/*--------------------------------*- C++ -*----------------------------------*\
| =========                 |                                                 |
| \\      /  F ield         | OpenFOAM: The Open Source CFD Toolbox           |
|  \\    /   O peration     | Version:  2.1.1                                 |
|   \\  /    A nd           | Web:      www.OpenFOAM.org                      |
|    \\/     M anipulation  |                                                 |
\*---------------------------------------------------------------------------*/
FoamFile
{
    version     2.0;
    format      ascii;
    class       Cloud<solidParticle>;
    location    "0.0011";
    object      positions;
}
// * * * * * * * * * * * * * * * * * * * * * * * * * * * * * * * * * * * * * //

44661
(
(0.000735615 0.00899425 0.00100801) 20041
(0.0192281 0.00640199 0.00215923) 13418
(0.0191635 0.00640158 0.00215781) 13418
(0.0190939 0.00640137 0.00215632) 13418
(0.0190217 0.0064013 0.00215476) 13418
(0.0189456 0.00640141 0.00215309) 13417
(0.0188655 0.00640166 0.00215123) 13417
(0.0187805 0.0064021 0.00214924) 13417
(0.018692 0.00640267 0.00214704) 13417
(0.0185994 0.00640341 0.00214468) 13417
(0.0185021 0.00640436 0.00214216) 13417
(0.0184009 0.00640559 0.0021395) 13416
(0.0182946 0.00640714 0.00213673) 13416
(0.0181836 0.00640912 0.00213395) 13416
(0.0180694 0.00641153 0.0021313) 13416
(0.0179529 0.00641437 0.00212878) 13415
(0.0178347 0.00641778 0.0021265) 13415
(0.019715 0.00641181 0.00216692) 13419
(0.0196652 0.00641004 0.00216443) 13419
(0.0196133 0.00640835 0.00216194) 13419
(0.0195594 0.00640671 0.00215947) 13419
(0.0195031 0.00640514 0.00215695) 13419
(0.0194438 0.00640367 0.00215441) 13418
(0.0193812 0.00640234 0.00215185) 13418
(0.0193158 0.00640112 0.00214929) 13418
(0.0192457 0.00640008 0.00214667) 13418
(0.0191735 0.00639922 0.00214407) 13418
(0.0190966 0.00639854 0.00214138) 13418
(0.0190163 0.00639805 0.00213862) 13418
(0.0189316 0.00639786 0.00213582) 13417
(0.018843 0.00639793 0.00213299) 13417
(0.0187501 0.00639823 0.00213006) 13417
(0.0186541 0.00639878 0.00212708) 13417
(0.0185528 0.00639969 0.00212403) 13417
(0.0184478 0.00640102 0.00212096) 13416
(0.0201047 0.00643008 0.00218455) 6100
(0.0183377 0.00640287 0.00211792) 13416
(0.0200632 0.00642757 0.00218138) 6100
(0.0159793 0.00302726 0.00325093) 811
(0.0182245 0.00640512 0.00211485) 13416
(0.0200205 0.00642505 0.00217812) 6100
(0.0158709 0.00302359 0.00325081) 811
(0.0181073 0.00640799 0.00211196) 13416
(0.0199761 0.00642254 0.00217481) 6099
(0.0157577 0.00301997 0.00325093) 811
(0.0179885 0.00641148 0.00210933) 13415
(0.0199301 0.00642006 0.00217148) 6099
(0.0156351 0.00301596 0.00325149) 811
(0.0178669 0.00641584 0.00210701) 13415
(0.0198824 0.00641761 0.00216813) 13419
(0.0155015 0.00301134 0.00325258) 811
(0.0177421 0.00642113 0.002105) 13415
(0.0198329 0.0064152 0.00216473) 13419
(0.0153556 0.00300595 0.00325426) 810
(0.0197812 0.00641283 0.00216129) 13419
(0.0151976 0.00299964 0.00325656) 31393
(0.0197275 0.00641048 0.00215777) 13419
(0.0150271 0.00299215 0.00325954) 31393
(0.0196716 0.00640818 0.00215422) 13419
(0.0148461 0.00298326 0.00326324) 31249
(0.0196129 0.00640599 0.00215065) 13419
(0.0146573 0.00297284 0.00326767) 31249
(0.0195505 0.00640393 0.00214703) 13419
(0.0144673 0.00296106 0.00327264) 31105
(0.0194844 0.00640194 0.00214331) 13418
(0.0194163 0.00640018 0.00213974) 13418
(0.0193432 0.00639865 0.00213615) 13418
(0.0192663 0.0063973 0.00213252) 13418
(0.0171251 0.00305428 0.00325386) 814
(0.0191851 0.00639609 0.00212874) 13418
(0.0170527 0.00305197 0.00325142) 814
(0.0190991 0.0063952 0.00212491) 13418
(0.0169776 0.00304949 0.00324927) 813
(0.0190082 0.00639465 0.00212107) 13418
(0.0168982 0.00304669 0.00324749) 813
(0.0189126 0.00639458 0.0021173) 13417
(0.0203955 0.0064485 0.00220073) 6100
(0.0168162 0.00304371 0.00324591) 813
(0.0188123 0.0063949 0.00211359) 13417
(0.0203588 0.00644544 0.00219715) 6100
(0.0167299 0.00304046 0.00324456) 813
(0.0187073 0.00639575 0.00211002) 13417
(0.0203208 0.00644238 0.00219348) 6100
(0.01664 0.00303703 0.00324343) 813
(0.0185976 0.00639713 0.00210654) 13417
(0.0202815 0.00643933 0.00218978) 6100
(0.0165466 0.00303344 0.0032425) 813
(0.0184837 0.00639908 0.00210319) 13416
(0.0202408 0.00643635 0.00218607) 6100
(0.0164491 0.0030298 0.00324175) 812
(0.0183645 0.00640183 0.00210009) 13416
(0.0201988 0.0064334 0.00218237) 6100
(0.0163463 0.00302607 0.0032412) 752
(0.0182403 0.00640546 0.0020973) 13416
(0.020155 0.00643047 0.00217863) 6100
(0.0162391 0.0030224 0.0032408) 752
(0.0181127 0.0064099 0.00209483) 13416
(0.0201096 0.00642757 0.00217485) 6100
(0.0161267 0.0030188 0.00324057) 752
(0.0179804 0.00641537 0.00209271) 13415
(0.0200623 0.00642471 0.00217105) 13420
(0.0160045 0.00301479 0.00324077) 752
(0.0178431 0.00642215 0.002091) 13415
(0.0200131 0.00642188 0.00216721) 13420
(0.0158706 0.00301015 0.00324149) 751
(0.0177005 0.00643036 0.00208968) 13415
(0.0199618 0.0064191 0.00216332) 13419
(0.0157241 0.00300471 0.00324279) 751
(0.0199081 0.00641638 0.00215936) 13419
(0.0155649 0.00299826 0.00324474) 31536
(0.0198518 0.0064137 0.0021553) 13419
(0.0153922 0.00299046 0.0032474) 31392
(0.0197928 0.00641113 0.0021512) 13419
(0.0156408 0.00465728 0.000952973) 11551
(0.0152093 0.00298118 0.0032508) 31393
(0.0197304 0.00640867 0.00214703) 13419
(0.0156105 0.00466275 0.000951058) 11551
(0.0150188 0.00297016 0.00325501) 31393
(0.0178405 0.0030638 0.00326062) 815
(0.0196647 0.00640627 0.00214271) 13419
(0.0155792 0.00466808 0.000949089) 11551
(0.0148282 0.00295768 0.00325971) 31249
(0.017778 0.00306252 0.0032573) 815
(0.0195955 0.00640403 0.00213835) 13419
(0.0155471 0.00467327 0.000947108) 11551
(0.014649 0.00294456 0.00326445) 31249
(0.0177134 0.00306106 0.0032541) 815
(0.0195222 0.00640197 0.00213391) 13419
(0.0155143 0.00467834 0.000945124) 11551
(0.0176464 0.0030594 0.00325103) 815
(0.0194446 0.0064001 0.00212938) 13418
(0.0154807 0.00468327 0.000943125) 11550
(0.0175767 0.0030575 0.0032481) 815
(0.0193626 0.00639853 0.00212494) 13418
(0.0154464 0.00468808 0.00094112) 11550
(0.0175041 0.00305537 0.00324535) 815
(0.0192747 0.0063973 0.00212046) 13418
(0.0206412 0.00646894 0.00221798) 6101
(0.0154116 0.00469277 0.000939104) 11610
(0.0174294 0.00305302 0.00324275) 814
(0.0191827 0.00639642 0.00211602) 13418
(0.0206074 0.00646545 0.00221441) 6101
(0.0153761 0.00469733 0.00093708) 11610
(0.0173514 0.0030504 0.00324046) 814
(0.0190845 0.00639601 0.00211161) 13418
(0.0205722 0.00646196 0.00221069) 6101
(0.0153397 0.00470178 0.000935038) 11610
(0.0172706 0.00304752 0.00323846) 814
(0.0189805 0.00639619 0.00210728) 13417
(0.020536 0.00645853 0.00220691) 6101
(0.0153022 0.00470614 0.00093297) 11610
(0.0171872 0.00304439 0.00323662) 814
(0.0188702 0.00639701 0.00210315) 13417
(0.0204984 0.00645513 0.00220304) 6100
(0.0152638 0.00471046 0.00093087) 11610
(0.0171 0.00304095 0.00323498) 754
(0.0187549 0.00639853 0.00209926) 13417
(0.0204596 0.00645178 0.00219916) 6100
(0.0152243 0.00471471 0.000928737) 11610
(0.0170104 0.00303738 0.00323346) 754
(0.0186344 0.00640078 0.00209565) 13417
(0.0204191 0.00644847 0.0021952) 6100
(0.0169177 0.00303364 0.00323212) 753
(0.0185074 0.00640388 0.00209223) 13417
(0.0203771 0.00644524 0.00219123) 6100
(0.0168217 0.0030299 0.00323089) 753
(0.0183743 0.00640809 0.00208922) 13416
(0.0203335 0.00644208 0.00218726) 6100
(0.0167213 0.00302618 0.00322979) 753
(0.018235 0.00641347 0.00208666) 13416
(0.0202881 0.00643897 0.00218326) 6100
(0.0165262 0.00521071 0.000726831) 11913
(0.0166165 0.00302254 0.00322879) 753
(0.0180894 0.00642011 0.00208451) 13416
(0.0202409 0.00643593 0.00217927) 6100
(0.0164884 0.00521543 0.000728539) 11912
(0.0165061 0.00301899 0.0032279) 753
(0.0179374 0.00642828 0.00208285) 13415
(0.0201918 0.00643293 0.00217525) 6100
(0.016449 0.00521996 0.000730071) 11912
(0.0163852 0.00301501 0.0032274) 752
(0.0177775 0.0064385 0.00208175) 13415
(0.0201404 0.00642998 0.00217119) 13420
(0.0162644 0.00463529 0.000956015) 11552
(0.0164083 0.00522435 0.000731454) 11912
(0.016252 0.00301039 0.0032274) 752
(0.0185545 0.00307084 0.00327241) 817
(0.0200862 0.00642707 0.00216703) 13420
(0.0162353 0.00464127 0.000954261) 11552
(0.0163659 0.00522859 0.000732602) 11912
(0.0161051 0.00300488 0.00322789) 752
(0.018497 0.00307035 0.00326843) 816
(0.0200298 0.00642421 0.0021628) 13420
(0.0162051 0.00464704 0.000952521) 11552
(0.0163221 0.00523271 0.000733609) 11912
(0.0159441 0.00299822 0.00322908) 31536
(0.0184381 0.00306978 0.00326456) 816
(0.019971 0.00642142 0.0021585) 13419
(0.0161736 0.00465262 0.000950787) 11552
(0.0162771 0.00523674 0.000734496) 11912
(0.0157683 0.00298999 0.00323101) 31536
(0.0183777 0.00306908 0.00326081) 816
(0.0199091 0.00641872 0.00215404) 13419
(0.0161411 0.00465806 0.000949056) 11552
(0.0162309 0.0052407 0.000735275) 11912
(0.0155799 0.00297989 0.00323382) 31536
(0.0183154 0.00306824 0.00325718) 816
(0.0198433 0.00641612 0.00214945) 13419
(0.0161076 0.00466335 0.000947325) 11552
(0.0161835 0.00524461 0.000735951) 11912
(0.0153856 0.00296799 0.00323745) 31392
(0.0182511 0.00306725 0.00325366) 816
(0.0197747 0.00641361 0.00214472) 13419
(0.0160733 0.00466849 0.000945592) 11552
(0.016135 0.0052485 0.000736547) 11912
(0.0151928 0.00295449 0.00324168) 31392
(0.0181848 0.00306607 0.00325021) 816
(0.0115317 0.00368473 0.00345256) 14483
(0.0197015 0.0064113 0.0021399) 13419
(0.0209107 0.00649824 0.00223995) 6101
(0.0160386 0.00467351 0.000944053) 11552
(0.016086 0.00525241 0.000737259) 11912
(0.0150167 0.00294084 0.00324608) 31392
(0.018116 0.00306471 0.00324699) 816
(0.0183245 0.00654438 0.0016597) 6756
(0.0115078 0.00368468 0.0034526) 14483
(0.0114801 0.00377858 0.00367158) 14542
(0.0196246 0.00640912 0.00213498) 13419
(0.0208783 0.00649422 0.00223697) 6101
(0.0160033 0.00467847 0.000942486) 11552
(0.0160361 0.00525635 0.000737875) 11912
(0.0148757 0.0029292 0.00324926) 31248
(0.0180454 0.00306315 0.00324379) 816
(0.0182232 0.0065506 0.00165731) 6756
(0.011484 0.0036846 0.00345264) 14482
(0.0114566 0.0037785 0.00367159) 14542
(0.0195428 0.00640718 0.0021299) 13419
(0.0208452 0.00649026 0.00223382) 6101
(0.0159673 0.00468334 0.000940899) 11551
(0.0159852 0.00526031 0.000738413) 11911
(0.017972 0.00306133 0.00324069) 815
(0.0181141 0.00655789 0.00165482) 6756
(0.0114648 0.00639038 0.00288702) 13522
(0.0114601 0.0036845 0.00345268) 14482
(0.0114332 0.00377841 0.0036716) 14542
(0.0194565 0.00640554 0.00212477) 13418
(0.0208115 0.00648635 0.00223055) 6101
(0.0159308 0.00468815 0.000939281) 11551
(0.0159337 0.00526431 0.000738889) 11911
(0.0173935 0.00516243 0.00071296) 11914
(0.0178972 0.00305928 0.00323765) 815
(0.0179965 0.00656647 0.00165227) 6755
(0.011442 0.00639034 0.00288708) 13522
(0.0114363 0.00368439 0.00345273) 14482
(0.0119363 0.00368007 0.00345385) 14483
(0.0114098 0.00377831 0.00367163) 14542
(0.0193643 0.00640422 0.00211963) 13418
(0.020777 0.0064825 0.00222712) 6101
(0.0158938 0.00469288 0.000937639) 11611
(0.0158813 0.00526834 0.000739293) 11911
(0.0173721 0.00516947 0.00071697) 11914
(0.0178205 0.00305702 0.00323471) 815
(0.0178723 0.00657635 0.00164977) 6755
(0.0114191 0.00639032 0.00288713) 13522
(0.0114125 0.00368426 0.00345278) 14482
(0.0119125 0.00368031 0.00345382) 14483
(0.0113865 0.0037782 0.00367167) 14542
(0.0118767 0.0037751 0.00367603) 14543
(0.0192664 0.0064034 0.00211454) 13418
(0.0207415 0.00647869 0.00222355) 6101
(0.0158564 0.00469756 0.000935964) 11611
(0.0158284 0.00527244 0.000739644) 11911
(0.017347 0.00517594 0.000720523) 11914
(0.0177409 0.00305445 0.00323205) 755
(0.0177704 0.00658082 0.00164803) 6755
(0.0113961 0.00639032 0.00288717) 13522
(0.0118705 0.00639666 0.00288458) 13523
(0.0113887 0.00368411 0.00345284) 14482
(0.0118887 0.00368054 0.0034538) 14483
(0.0113632 0.00377808 0.00367172) 14542
(0.0118528 0.00377525 0.00367588) 14543
(0.0191625 0.00640305 0.00210953) 13418
(0.0207053 0.00647495 0.0022199) 6101
(0.0158181 0.0047022 0.000934253) 11611
(0.0157742 0.00527662 0.000739931) 11911
(0.0173206 0.0051821 0.000723872) 11914
(0.0176594 0.00305166 0.00322963) 755
(0.0176893 0.00658325 0.00164722) 6755
(0.0113732 0.00639034 0.00288721) 13522
(0.0118487 0.00639626 0.00288472) 13523
(0.011365 0.00368394 0.0034529) 14482
(0.0118648 0.00368076 0.00345378) 14483
(0.0113399 0.00377794 0.00367178) 14542
(0.0118289 0.00377539 0.00367574) 14543
(0.0190522 0.00640334 0.00210458) 13418
(0.0206678 0.00647126 0.0022161) 6101
(0.0157791 0.00470683 0.000932499) 11611
(0.0157191 0.0052809 0.000740178) 11911
(0.017293 0.00518799 0.000727042) 11914
(0.0175748 0.00304851 0.00322743) 755
(0.0176136 0.0065853 0.0016466) 6755
(0.0113502 0.00639038 0.00288724) 13522
(0.0118267 0.00639588 0.00288486) 13523
(0.0113413 0.00368375 0.00345296) 14482
(0.011841 0.00368096 0.00345377) 14483
(0.0113167 0.00377779 0.00367184) 14542
(0.0118051 0.00377552 0.0036756) 14543
(0.0189351 0.00640436 0.00209984) 13417
(0.0206288 0.00646765 0.00221221) 6101
(0.0157394 0.00471145 0.0009307) 11611
(0.0172642 0.00519362 0.000730032) 11914
(0.0174892 0.00304522 0.00322532) 754
(0.017543 0.00658757 0.00164633) 6755
(0.0113272 0.00639044 0.00288727) 13522
(0.0118047 0.00639552 0.00288499) 13523
(0.0113176 0.00368355 0.00345303) 14482
(0.0118172 0.00368115 0.00345375) 14483
(0.0112935 0.00377763 0.00367192) 14542
(0.0117813 0.00377563 0.00367546) 14543
(0.0188111 0.00640631 0.00209544) 13417
(0.0205887 0.00646413 0.00220827) 6101
(0.0156988 0.00471606 0.000928852) 11611
(0.0172341 0.005199 0.000732837) 11914
(0.0174007 0.00304166 0.00322336) 754
(0.0174841 0.00659024 0.00164687) 6754
(0.0113042 0.00639052 0.00288728) 13522
(0.0117826 0.00639518 0.00288512) 13523
(0.0112939 0.00368334 0.0034531) 14482
(0.0117934 0.00368132 0.00345374) 14483
(0.0112704 0.00377746 0.003672) 14542
(0.0117575 0.00377573 0.00367533) 14543
(0.01868 0.00640924 0.00209134) 13417
(0.0205472 0.00646066 0.00220428) 6101
(0.0156576 0.00472067 0.000926953) 11611
(0.0172023 0.00520413 0.000735451) 11914
(0.0173097 0.00303795 0.00322152) 754
(0.0174313 0.00659312 0.00164783) 6754
(0.0112811 0.00639062 0.0028873) 13522
(0.0117604 0.00639486 0.00288524) 13523
(0.011177 0.00420783 0.00185588) 14122
(0.0112703 0.0036831 0.00345317) 14482
(0.0117695 0.00368148 0.00345373) 14483
(0.0122657 0.00367317 0.00345535) 14484
(0.0112473 0.00377728 0.00367209) 14542
(0.0117337 0.00377582 0.00367521) 14543
(0.0112843 0.00639498 0.00312516) 15262
(0.0185408 0.00641332 0.00208757) 13417
(0.0205042 0.00645727 0.00220022) 6101
(0.0156155 0.00472526 0.000925) 11611
(0.017169 0.00520902 0.000737861) 11914
(0.0172154 0.00303412 0.00321983) 754
(0.0192877 0.00307298 0.00328288) 818
(0.017378 0.00659603 0.00164864) 6754
(0.011258 0.00639074 0.0028873) 13522
(0.0117382 0.00639455 0.00288536) 13523
(0.0111549 0.00420767 0.00185586) 14122
(0.0112467 0.00368285 0.00345324) 14482
(0.0117456 0.00368162 0.00345372) 14483
(0.0122422 0.00367353 0.00345529) 14484
(0.0112243 0.00377708 0.00367219) 14542
(0.01171 0.0037759 0.00367509) 14543
(0.0110828 0.00500646 0.00438527) 14842
(0.0112613 0.00639512 0.00312523) 15262
(0.0117424 0.00639792 0.00312497) 15263
(0.0183946 0.00641879 0.00208439) 13416
(0.0204595 0.00645396 0.00219613) 6100
(0.0155726 0.00472984 0.000923003) 11611
(0.0168923 0.00461958 0.000959967) 11553
(0.0171338 0.0052137 0.000740067) 11914
(0.0171173 0.00303032 0.00321824) 754
(0.0192333 0.00307332 0.00327902) 818
(0.017324 0.00659893 0.00164931) 6754
(0.0112349 0.00639087 0.00288729) 13522
(0.011716 0.00639426 0.00288548) 13523
(0.0121698 0.00640563 0.00288202) 13524
(0.0111329 0.00420749 0.00185583) 14122
(0.0112232 0.00368258 0.00345332) 14482
(0.0117218 0.00368175 0.00345371) 14483
(0.0122187 0.00367388 0.00345523) 14484
(0.0112013 0.00377688 0.00367229) 14542
(0.0116862 0.00377596 0.00367498) 14543
(0.012181 0.00377007 0.00368091) 14544
(0.0110603 0.00500634 0.00438556) 14842
(0.0115365 0.00500876 0.00438539) 14843
(0.0112382 0.00639528 0.0031253) 15262
(0.0117199 0.00639766 0.00312498) 15263
(0.0182405 0.00642581 0.00208175) 13416
(0.0204129 0.00645072 0.00219198) 6100
(0.0155289 0.00473439 0.000920961) 11611
(0.016865 0.0046262 0.000958611) 11553
(0.0170969 0.00521818 0.000742081) 11914
(0.0170156 0.0030267 0.0032167) 754
(0.0191772 0.00307358 0.00327529) 818
(0.0172698 0.00660173 0.00164985) 6754
(0.0112117 0.00639103 0.00288728) 13522
(0.0116936 0.00639399 0.00288559) 13523
(0.012149 0.00640506 0.00288217) 13524
(0.0111109 0.00420731 0.00185579) 14122
(0.0115651 0.00420574 0.00185268) 14123
(0.0111996 0.00368229 0.0034534) 14482
(0.0116979 0.00368185 0.00345371) 14483
(0.0121951 0.00367423 0.00345516) 14484
(0.0111783 0.00377666 0.0036724) 14542
(0.0116625 0.00377601 0.00367488) 14543
(0.0121572 0.00377032 0.00368071) 14544
(0.0110377 0.00500622 0.00438586) 14842
(0.0115135 0.00500859 0.00438536) 14843
(0.0112152 0.00639545 0.00312537) 15262
(0.0116973 0.00639743 0.00312499) 15263
(0.0180788 0.00643449 0.00207963) 13416
(0.0203644 0.00644757 0.00218781) 6100
(0.015484 0.00473889 0.000918853) 11610
(0.0168375 0.00463261 0.000957257) 11553
(0.0170582 0.00522249 0.000743913) 11914
(0.0169075 0.00302312 0.00321527) 753
(0.0191196 0.00307372 0.00327164) 818
(0.0172151 0.00660447 0.00165025) 2494
(0.0111886 0.0063912 0.00288726) 13522
(0.0116712 0.00639374 0.0028857) 13523
(0.0121281 0.00640449 0.00288232) 13524
(0.011089 0.00420712 0.00185575) 14122
(0.0115429 0.00420581 0.00185285) 14123
(0.0111761 0.00368199 0.00345349) 14482
(0.011674 0.00368194 0.00345371) 14483
(0.0121716 0.00367456 0.00345511) 14484
(0.0111554 0.00377643 0.00367252) 14542
(0.0116389 0.00377605 0.00367478) 14543
(0.0121333 0.00377056 0.00368051) 14544
(0.0110152 0.00500611 0.00438617) 14842
(0.0114904 0.00500842 0.00438535) 14842
(0.0111921 0.00639564 0.00312545) 15262
(0.0116748 0.00639721 0.003125) 15263
(0.0179074 0.00644546 0.0020782) 13415
(0.0203137 0.00644447 0.00218357) 6100
(0.0168087 0.00463879 0.000955916) 11553
(0.0170176 0.00522665 0.000745563) 11914
(0.0167886 0.00301913 0.00321416) 753
(0.0190594 0.00307369 0.00326815) 818
(0.01716 0.00660716 0.00165052) 2494
(0.0191254 0.00654302 0.00166578) 6758
(0.0111653 0.00639139 0.00288724) 13522
(0.0116487 0.00639351 0.0028858) 13523
(0.0121071 0.00640394 0.00288247) 13524
(0.011067 0.00420692 0.00185569) 14122
(0.0115207 0.00420587 0.00185301) 14123
(0.0111527 0.00368167 0.00345357) 14482
(0.0116501 0.00368201 0.00345371) 14483
(0.012148 0.00367489 0.00345505) 14484
(0.0111325 0.00377619 0.00367265) 14542
(0.0116152 0.00377608 0.0036747) 14543
(0.0121094 0.00377079 0.00368032) 14544
(0.0109927 0.005006 0.0043865) 14841
(0.0114674 0.00500824 0.00438536) 14842
(0.011169 0.00639585 0.00312553) 15262
(0.0116521 0.00639701 0.00312502) 15263
(0.0177232 0.00645955 0.00207756) 13415
(0.0202614 0.00644145 0.00217932) 6100
(0.0167786 0.00464475 0.000954586) 11553
(0.0169752 0.00523069 0.00074705) 11913
(0.0166564 0.00301448 0.00321351) 753
(0.018998 0.00307358 0.00326474) 817
(0.0171045 0.00660996 0.00165063) 2494
(0.0190685 0.00654487 0.00166565) 6758
(0.0111421 0.00639159 0.0028872) 13522
(0.0116261 0.0063933 0.0028859) 13523
(0.012086 0.0064034 0.00288262) 13524
(0.0110451 0.00420671 0.00185563) 14122
(0.0114984 0.00420591 0.00185316) 14122
(0.0111292 0.00368133 0.00345366) 14482
(0.0116261 0.00368206 0.00345372) 14483
(0.0121243 0.00367521 0.00345499) 14484
(0.0111097 0.00377594 0.00367278) 14542
(0.0115916 0.00377609 0.00367462) 14543
(0.0120855 0.00377101 0.00368013) 14544
(0.0109702 0.00500589 0.00438683) 14841
(0.0114445 0.00500807 0.00438538) 14842
(0.0111459 0.00639607 0.00312561) 15262
(0.0116294 0.00639683 0.00312504) 15263
(0.0202063 0.0064385 0.00217499) 6100
(0.016747 0.00465049 0.00095326) 11553
(0.0169312 0.00523461 0.000748386) 11913
(0.0165092 0.0030089 0.00321344) 753
(0.0189354 0.00307337 0.0032614) 817
(0.0170497 0.00661285 0.00165064) 2494
(0.0190043 0.00654726 0.00166495) 6758
(0.0111188 0.00639182 0.00288716) 13522
(0.0116034 0.00639311 0.00288599) 13523
(0.0120649 0.00640288 0.00288277) 13524
(0.0110232 0.00420649 0.00185557) 14122
(0.0114762 0.00420595 0.0018533) 14122
(0.0111058 0.00368098 0.00345376) 14482
(0.0116022 0.00368209 0.00345373) 14483
(0.0121007 0.00367551 0.00345494) 14484
(0.0110868 0.00377569 0.00367293) 14542
(0.011568 0.00377609 0.00367456) 14543
(0.0120616 0.00377123 0.00367994) 14544
(0.0109477 0.00500579 0.00438718) 14841
(0.0114215 0.0050079 0.00438542) 14842
(0.0111228 0.0063963 0.0031257) 15262
(0.0116066 0.00639668 0.00312506) 15263
(0.0201485 0.00643559 0.00217057) 13420
(0.0167142 0.00465604 0.000951932) 11553
(0.0168855 0.00523845 0.000749574) 11913
(0.0163456 0.00300203 0.0032141) 752
(0.0188704 0.003073 0.00325818) 817
(0.0169951 0.00661575 0.0016505) 2493
(0.018933 0.00655026 0.00166378) 6757
(0.0110955 0.00639205 0.00288712) 13522
(0.0115807 0.00639294 0.00288608) 13523
(0.0120436 0.00640236 0.00288292) 13524
(0.0114174 0.00441631 0.00173431) 14062
(0.0110013 0.00420627 0.00185549) 14122
(0.011454 0.00420597 0.00185343) 14122
(0.0110824 0.00368061 0.00345385) 14482
(0.0115782 0.00368209 0.00345375) 14483
(0.012077 0.00367581 0.0034549) 14484
(0.0110641 0.00377542 0.00367308) 14542
(0.0115445 0.00377607 0.0036745) 14543
(0.0120377 0.00377144 0.00367977) 14544
(0.0109253 0.00500569 0.00438753) 14841
(0.0113985 0.00500773 0.00438548) 14842
(0.0110996 0.00639655 0.00312579) 15262
(0.0115837 0.00639654 0.00312509) 15263
(0.0200882 0.00643273 0.00216605) 13420
(0.0166801 0.00466144 0.000950602) 11553
(0.0168383 0.00524223 0.000750634) 11913
(0.0161663 0.00299348 0.00321555) 31680
(0.0188039 0.00307252 0.00325504) 817
(0.0169398 0.00661868 0.00165014) 2493
(0.0188546 0.00655394 0.00166225) 6757
(0.0110722 0.00639231 0.00288706) 13522
(0.0115579 0.0063928 0.00288617) 13523
(0.0120223 0.00640186 0.00288307) 13524
(0.0109477 0.00441549 0.00173585) 14061
(0.0113953 0.00441631 0.00173442) 14062
(0.0109794 0.00420604 0.00185541) 14121
(0.0114318 0.00420597 0.00185354) 14122
(0.011059 0.00368023 0.00345395) 14482
(0.0115542 0.00368208 0.00345377) 14483
(0.0120533 0.00367609 0.00345486) 14484
(0.0110413 0.00377514 0.00367324) 14542
(0.011521 0.00377605 0.00367445) 14543
(0.0120138 0.00377164 0.00367959) 14544
(0.0109028 0.0050056 0.0043879) 14841
(0.0113756 0.00500756 0.00438555) 14842
(0.0110765 0.00639681 0.00312589) 15262
(0.0115608 0.00639642 0.00312512) 15263
(0.0120304 0.00640458 0.00312564) 15264
(0.0200246 0.00642992 0.00216134) 13420
(0.0211454 0.00652797 0.00225479) 6102
(0.016645 0.00466668 0.000949265) 11553
(0.0167896 0.00524597 0.000751578) 11913
(0.0180063 0.00513167 0.000703578) 11916
(0.0159729 0.00298275 0.00321791) 31536
(0.0187367 0.00307194 0.00325196) 817
(0.016883 0.00662153 0.00164948) 2493
(0.0187691 0.00655847 0.00166045) 6757
(0.0110489 0.00639258 0.002887) 13522
(0.0115351 0.00639267 0.00288625) 13523
(0.0120009 0.00640137 0.00288321) 13524
(0.0109257 0.00441537 0.00173563) 14061
(0.0113732 0.0044163 0.00173451) 14062
(0.0109576 0.00420579 0.00185532) 14121
(0.0114095 0.00420597 0.00185365) 14122
(0.0118608 0.0042007 0.00184727) 14123
(0.0110357 0.00367984 0.00345405) 14482
(0.0115303 0.00368205 0.0034538) 14483
(0.0120296 0.00367637 0.00345482) 14484
(0.0110186 0.00377486 0.00367341) 14542
(0.0114975 0.00377601 0.00367442) 14542
(0.0119899 0.00377183 0.00367942) 14543
(0.0108804 0.00500551 0.00438827) 14841
(0.0113527 0.00500739 0.00438564) 14842
(0.0110533 0.00639708 0.00312599) 15262
(0.0115379 0.00639633 0.00312515) 15263
(0.0120087 0.00640411 0.00312562) 15264
(0.0199577 0.00642717 0.00215642) 13419
(0.0211125 0.00652356 0.00225289) 6102
(0.0166087 0.00467178 0.000947916) 11553
(0.0167397 0.00524967 0.000752411) 11913
(0.0180025 0.00514113 0.00070946) 11916
(0.0157731 0.00296986 0.00322122) 31536
(0.0186671 0.00307119 0.00324897) 817
(0.0168239 0.00662432 0.00164844) 2493
(0.0186766 0.00656395 0.00165846) 6757
(0.0110255 0.00639286 0.00288693) 13522
(0.0115122 0.00639257 0.00288632) 13523
(0.0119794 0.0064009 0.00288336) 13523
(0.0109038 0.00441525 0.00173541) 14061
(0.0113511 0.00441629 0.00173458) 14062
(0.0109358 0.00420555 0.00185523) 14121
(0.0113873 0.00420595 0.00185375) 14122
(0.011839 0.00420091 0.00184759) 14123
(0.0110124 0.00367943 0.00345415) 14482
(0.0115063 0.00368201 0.00345383) 14483
(0.0120058 0.00367663 0.00345479) 14484
(0.0109959 0.00377456 0.00367359) 14541
(0.011474 0.00377596 0.00367439) 14542
(0.011966 0.00377201 0.00367926) 14543
(0.010858 0.00500543 0.00438865) 14841
(0.0113298 0.00500723 0.00438574) 14842
(0.0110301 0.00639736 0.00312609) 15262
(0.0115149 0.00639625 0.00312519) 15263
(0.011987 0.00640365 0.00312561) 15263
(0.0198874 0.00642443 0.00215122) 13419
(0.0210794 0.00651914 0.00225072) 6102
(0.0165716 0.00467677 0.000946555) 11553
(0.0166886 0.00525336 0.000753141) 11913
(0.017996 0.00515005 0.000715005) 11915
(0.0155775 0.00295538 0.00322512) 31536
(0.018596 0.00307028 0.00324602) 817
(0.0167625 0.00662697 0.00164699) 2493
(0.0185765 0.00657058 0.00165634) 6757
(0.0110021 0.00639316 0.00288686) 13522
(0.0114892 0.00639249 0.00288639) 13522
(0.0119579 0.00640044 0.0028835) 13523
(0.0108818 0.00441512 0.00173517) 14061
(0.011329 0.00441627 0.00173464) 14062
(0.0109139 0.00420529 0.00185512) 14121
(0.0113651 0.00420592 0.00185384) 14122
(0.0118172 0.00420112 0.00184791) 14123
(0.0109891 0.00367901 0.00345425) 14481
(0.0114824 0.00368194 0.00345387) 14482
(0.0119821 0.00367688 0.00345476) 14483
(0.0109733 0.00377426 0.00367377) 14541
(0.0114506 0.0037759 0.00367438) 14542
(0.0119421 0.00377218 0.0036791) 14543
(0.0108356 0.00500535 0.00438903) 14841
(0.011307 0.00500706 0.00438586) 14842
(0.011007 0.00639765 0.0031262) 15262
(0.0114919 0.0063962 0.00312523) 15262
(0.0119652 0.00640321 0.00312559) 15263
(0.0198127 0.00642182 0.0021458) 13419
(0.0210458 0.00651475 0.00224831) 6102
(0.0165337 0.00468166 0.000945182) 11553
(0.0166366 0.00525706 0.00075379) 11913
(0.0179867 0.00515847 0.000720222) 11915
(0.0154042 0.00294121 0.00322883) 31392
(0.0185229 0.00306919 0.00324311) 817
(0.0166987 0.00662943 0.00164507) 2493
(0.0184676 0.00657855 0.00165407) 6756
(0.0109787 0.00639348 0.00288678) 13521
(0.0114662 0.00639242 0.00288646) 13522
(0.0119362 0.00639999 0.00288365) 13523
(0.0107403 0.00580225 0.00188697) 13761
(0.0108598 0.004415 0.00173492) 14061
(0.0113069 0.00441625 0.00173468) 14062
(0.0108921 0.00420503 0.00185501) 14121
(0.0113429 0.00420588 0.00185391) 14122
(0.0117954 0.00420131 0.00184821) 14123
(0.0109659 0.00367857 0.00345435) 14481
(0.0114585 0.00368186 0.00345391) 14482
(0.0119583 0.00367712 0.00345474) 14483
(0.0109506 0.00377395 0.00367396) 14541
(0.0114273 0.00377583 0.00367438) 14542
(0.0119182 0.00377234 0.00367895) 14543
(0.0108131 0.00500527 0.00438942) 14841
(0.0112842 0.0050069 0.00438599) 14842
(0.0109838 0.00639795 0.00312632) 15261
(0.0114688 0.00639617 0.00312528) 15262
(0.0119433 0.00640279 0.00312558) 15263
(0.019734 0.00641936 0.00214018) 13419
(0.0210121 0.00651036 0.00224568) 6102
(0.0164952 0.00468647 0.000943786) 11552
(0.0165836 0.00526077 0.000754357) 11913
(0.0179727 0.00516616 0.000724946) 11915
(0.015272 0.00292994 0.00323108) 31392
(0.0184472 0.00306786 0.00324026) 816
(0.0166317 0.00663157 0.0016426) 2493
(0.0183664 0.00658384 0.00165231) 6756
(0.0109553 0.0063938 0.0028867) 13521
(0.0114432 0.00639238 0.00288652) 13522
(0.0119145 0.00639957 0.00288379) 13523
(0.010718 0.00580242 0.00188669) 13761
(0.0108379 0.00441487 0.00173467) 14061
(0.0112849 0.00441622 0.00173471) 14062
(0.0108703 0.00420475 0.0018549) 14121
(0.0113208 0.00420583 0.00185398) 14122
(0.0117735 0.0042015 0.0018485) 14123
(0.0109427 0.00367813 0.00345445) 14481
(0.0114346 0.00368177 0.00345396) 14482
(0.0119344 0.00367735 0.00345471) 14483
(0.010928 0.00377363 0.00367416) 14541
(0.0114039 0.00377574 0.00367439) 14542
(0.0118943 0.0037725 0.0036788) 14543
(0.0107907 0.0050052 0.00438982) 14841
(0.0112614 0.00500675 0.00438614) 14842
(0.0109606 0.00639827 0.00312643) 15261
(0.0114457 0.00639615 0.00312533) 15262
(0.0119214 0.00640238 0.00312557) 15263
(0.0196505 0.00641702 0.0021343) 13419
(0.0209778 0.00650601 0.0022428) 6101
(0.016456 0.0046912 0.000942365) 11552
(0.0165296 0.00526452 0.000754839) 11913
(0.0179551 0.00517329 0.000729251) 11915
(0.0183712 0.00306637 0.00323739) 816
(0.0165611 0.00663338 0.0016395) 2493
(0.0182786 0.00658676 0.00165128) 6756
(0.0109319 0.00639415 0.00288661) 13521
(0.0114201 0.00639236 0.00288657) 13522
(0.0118927 0.00639915 0.00288393) 13523
(0.0106958 0.0058026 0.00188641) 13761
(0.0108159 0.00441473 0.0017344) 14061
(0.0112628 0.00441618 0.00173472) 14062
(0.0117091 0.00441493 0.00172805) 14063
(0.0108485 0.00420448 0.00185477) 14121
(0.0112986 0.00420577 0.00185403) 14122
(0.0117515 0.00420168 0.00184879) 14123
(0.0109195 0.00367767 0.00345455) 14481
(0.0114108 0.00368165 0.00345401) 14482
(0.0119106 0.00367757 0.0034547) 14483
(0.0109055 0.0037733 0.00367436) 14541
(0.0113807 0.00377565 0.00367441) 14542
(0.0118704 0.00377264 0.00367865) 14543
(0.0107683 0.00500513 0.00439022) 14841
(0.0112387 0.0050066 0.00438629) 14842
(0.0109374 0.00639859 0.00312655) 15261
(0.0114226 0.00639616 0.00312538) 15262
(0.0118993 0.00640199 0.00312556) 15263
(0.0195616 0.00641497 0.00212825) 13419
(0.020943 0.00650171 0.00223972) 6101
(0.0164164 0.00469586 0.000940912) 11612
(0.0164749 0.00526833 0.000755259) 11912
(0.0179352 0.00518003 0.000733319) 11915
(0.0182933 0.00306462 0.00323456) 816
(0.0182036 0.00658902 0.00165108) 6756
(0.0109084 0.00639451 0.00288652) 13521
(0.0113969 0.00639236 0.00288662) 13522
(0.0118708 0.00639876 0.00288407) 13523
(0.0106735 0.00580279 0.00188612) 13761
(0.0107939 0.0044146 0.00173413) 14061
(0.0112407 0.00441614 0.00173471) 14062
(0.0116875 0.00441503 0.00172837) 14063
(0.0108267 0.00420419 0.00185464) 14121
(0.0112765 0.00420569 0.00185408) 14122
(0.0117296 0.00420185 0.00184906) 14123
(0.0108963 0.0036772 0.00345465) 14481
(0.011387 0.00368152 0.00345407) 14482
(0.0118868 0.00367778 0.00345468) 14483
(0.0108829 0.00377296 0.00367456) 14541