/*--------------------------------*- C++ -*----------------------------------*\
| =========                 |                                                 |
| \\      /  F ield         | OpenFOAM: The Open Source CFD Toolbox           |
|  \\    /   O peration     | Version:  2.1.1                                 |
|   \\  /    A nd           | Web:      www.OpenFOAM.org                      |
|    \\/     M anipulation  |                                                 |
\*---------------------------------------------------------------------------*/
FoamFile
{
    version     2.0;
    format      ascii;
    class       scalarField;
    location    "0.0011";
    object      T;
}
// * * * * * * * * * * * * * * * * * * * * * * * * * * * * * * * * * * * * * //


44661
(
572.5
444.959
438.454
431.927
425.491
419.197
413.002
406.945
401.12
395.63
390.568
386.058
382.287
379.222
376.847
374.968
373.733
490.449
482.366
474.207
465.932
457.579
449.213
440.772
432.308
423.805
415.338
406.843
398.379
390.078
381.957
373.97
366.243
358.829
351.679
547.05
345.27
538.781
579.436
339.473
530.316
571.131
334.25
521.614
562.501
329.335
512.717
553.399
324.789
503.623
543.501
320.793
494.35
533.142
484.9
522.216
475.305
510.622
3.91153e+180
500.383
4.72822e+222
492.338
445.63
484.22
435.571
425.637
415.624
405.594
624.782
395.547
618.927
385.477
612.914
375.447
3.91153e+180
365.578
594.254
599.719
355.952
586.107
592.627
346.468
577.683
585.172
337.218
569.025
577.277
328.163
560.158
568.971
319.634
551.053
560.184
311.796
541.694
550.67
304.394
532.076
540.174
3.91153e+180
522.22
528.364
289.791
512.128
515.385
283.127
3.91153e+180
501.316
491.305
485.697
480.547
467.878
469.586
619.645
449.836
1.19354e+190
619.486
430.624
648.991
446.941
2.06697e+161
410.497
643.303
435.331
618.899
388.775
2.06685e+161
423.607
2.06697e+161
631.395
2.06697e+161
617.921
625.184
400.53
617.223
618.837
388.968
636.23
616.383
612.297
377.427
628.37
615.363
6.75387e+87
365.82
2.06697e+161
614.063
598.655
354.27
611.837
612.438
591.5
342.957
603.187
6.75387e+87
9.09155e+223
2.06697e+161
594.287
608.285
576.362
321.076
585.083
568.347
310.438
575.642
560.102
300.242
565.945
551.651
290.842
555.975
663.534
542.943
281.696
545.745
6.75387e+87
533.817
272.198
535.211
666.075
523.956
263.339
4.2695e+257
588.979
666.818
513.082
688.914
513.211
2.06697e+161
667.139
9.09155e+223
4.2695e+257
501.702
585.869
667.135
487.647
676.577
489.915
584.101
666.871
472.501
669.902
477.823
582.176
666.354
454.479
663.07
4.2695e+257
580.085
9.09155e+223
9.09155e+223
656.098
452.662
577.828
664.58
410.094
648.887
438.728
439.642
685.122
575.337
663.361
386.846
641.551
579.197
438.055
486.466
426.36
9.09155e+223
572.655
661.995
364.63
634.01
576.869
437.366
485.283
412.921
670.725
569.739
660.596
626.293
574.442
445.915
436.654
484.054
399.665
663.139
566.588
658.948
647.981
618.305
571.791
444.91
435.912
425.584
482.779
386.451
2.06697e+161
563.198
9.09155e+223
650.057
610.202
569.11
443.931
435.141
425.028
481.456
475.843
373.293
647.189
9.09155e+223
654.796
651.555
602.034
566.642
442.969
449.499
434.343
424.478
480.08
475.159
360.168
638.783
555.573
9.09155e+223
652.7
593.7
564.482
442.007
447.627
433.502
423.932
478.643
474.428
2.06697e+161
630.103
9.09155e+223
649.451
653.536
585.115
562.341
441.044
445.792
432.625
423.384
477.137
473.638
2.06697e+161
621.155
9.09155e+223
9.09155e+223
576.266
560.217
440.066
443.993
431.711
422.832
475.549
472.767
2.06697e+161
611.94
541.522
654.38
567.102
558.198
439.069
442.217
430.748
422.264
473.854
471.787
309.417
602.443
536.168
654.365
557.721
556.193
438.032
440.439
549.254
429.702
421.655
414.376
472.006
470.66
446.31
297.391
9.09155e+223
530.515
654.038
548.114
752.079
554.094
436.938
438.667
546.655
428.448
420.911
413.546
470.079
469.561
456.301
445.114
450.547
285.62
9.09155e+223
524.598
594.823
653.397
538.428
745.219
551.932
435.78
436.986
464.343
544.102
427.185
420.162
412.725
468.244
468.545
461.178
454.858
471.436
443.851
448.732
274.957
572.249
518.464
593.085
652.497
528.734
738.251
549.67
434.698
435.434
461.316
541.584
575.596
426.043
419.526
411.974
466.513
467.565
460.497
453.427
470.1
442.639
447.015
264.612
561.591
9.09155e+223
591.093
651.343
519.067
731.1
547.349
433.756
433.981
458.42
539.1
573.268
425.047
418.985
411.272
464.841
466.606
459.841
452.005
468.759
441.559
445.4
253.809
9.09155e+223
588.927
649.962
509.381
723.9
544.931
607.399
432.918
432.631
455.64
536.649
570.962
424.118
418.486
410.61
463.21
465.655
459.204
450.59
467.403
440.57
443.878
244.057
539.302
586.597
648.349
499.46
716.598
542.367
606.215
432.162
431.371
452.985
534.222
568.673
423.23
418.003
409.982
461.606
464.703
458.58
449.179
466.031
439.652
442.437
527.631
9.09155e+223
646.287
489.325
709.177
539.586
604.768
431.476
430.198
450.435
531.818
566.397
422.366
417.534
409.38
460.022
463.744
457.969
447.766
464.641
438.793
441.068
9.09155e+223
581.366
643.734
479.209
701.553
536.65
603.001
430.85
429.099
447.995
594.05
529.433
564.107
421.527
417.06
408.8
458.452
462.774
457.365
446.35
463.235
437.98
439.757
503.191
9.09155e+223
1.49258e+195
468.533
693.797
533.665
600.877
430.277
428.066
445.658
552.004
591.559
527.068
561.8
420.702
416.581
408.235
456.895
461.79
456.765
444.931
461.813
437.206
438.504
458.588
490.341
726.643
575.321
637.425
9.09155e+223
3.94662e+180
9.09155e+223
530.608
598.543
429.75
427.092
443.426
549.79
589.056
524.705
559.476
596.458
419.889
416.091
407.688
455.347
460.782
456.164
443.514
460.372
436.465
437.307
456.081
477.148
720.175
9.09155e+223
9.09155e+223
649.164
443.877
677.954
527.418
596.113
429.252
426.169
441.278
547.579
586.532
522.335
557.125
593.681
419.086
415.576
407.142
453.8
459.741
455.552
442.098
458.913
435.749
436.151
453.66
463.511
713.385
9.09155e+223
629.655
652.681
430.865
669.759
524.109
593.595
428.77
425.285
439.209
545.361
583.989
519.956
554.75
590.916
418.288
415.033
406.599
452.248
458.662
454.93
440.684
457.432
435.045
435.032
451.323
449.404
706.339
564.497
625.167
655.676
416.264
661.312
520.711
590.877
428.292
424.438
437.204
401.565
543.143
581.416
517.572
552.346
588.165
417.49
414.449
406.06
450.687
457.543
454.292
439.271
455.925
434.349
433.946
449.061
434.916
698.986
560.364
620.27
658.184
401.798
652.625
517.405
587.965
427.84
423.618
435.263
400.524
540.914
578.793
515.18
549.908
585.417
416.693
413.839
405.521
449.119
456.384
453.636
437.859
454.384
433.668
432.884
446.87
420.01
691.4
9.09155e+223
607.681
660.152
643.584
514.243
584.958
427.407
422.813
433.366
399.507
538.664
576.121
618.094
512.784
547.428
582.697
415.9
413.205
404.99
447.54
455.179
452.958
436.441
452.843
432.991
431.844
444.751
404.85
9.09155e+223
551.23
609.583
661.548
634.266
581.913
426.98
422.014
431.526
398.544
536.389
573.444
615.067
510.385
544.9
580.019
415.101
412.546
404.468
445.948
453.924
452.251
435.057
451.312
432.315
430.823
442.695
389.778
9.09155e+223
9.09155e+223
603.546
662.368
624.655
578.75
426.549
421.219
429.725
397.626
534.08
570.789
612.11
507.973
542.319
577.375
414.304
411.862
403.955
444.34
452.614
451.508
433.712
449.795
431.641
429.817
440.696
374.886
9.09155e+223
554.142
540.9
597.062
662.621
614.777
575.417
426.112
420.422
427.961
396.749
531.748
568.166
609.241
505.549
539.729
574.77
413.499
411.149
403.447
442.711
451.239
450.717
432.402
448.317
430.966
428.824
438.753
360.058
658.061
550.747
535.169
590.133
662.449
604.561
572.078
425.663
419.616
426.223
395.913
529.459
565.621
606.453
503.102
537.146
572.229
412.684
410.401
402.939
441.054
449.789
449.861
431.14
446.869
427.835
436.867
345.321
649.02
546.964
529.012
582.64
661.951
593.963
822.619
568.806
425.196
418.798
424.512
395.111
563.143
603.739
500.668
534.609
569.739
411.844
409.607
402.426
439.362
448.243
448.919
429.946
445.445
426.84
435.031
330.724
639.747
542.805
522.401
574.594
661.111
583.032
816.649
565.475
424.708
417.95
422.818
394.338
560.719
601.086
498.285
532.112
567.295
410.962
408.739
401.884
437.627
446.57
447.881
428.816
444.043
425.828
433.23
9.09155e+223
630.23
538.253
515.339
566.008
659.951
571.756
810.317
561.936
424.18
417.052
421.147
393.59
558.344
598.491
495.959
529.652
564.894
410.019
407.7
401.236
435.832
444.855
446.9
427.746
442.658
424.775
431.466
302.798
620.472
533.377
9.09155e+223
622.554
556.885
658.502
560.296
803.683
558.19
630.889
423.602
416.102
419.556
392.868
556.013
595.954
493.713
527.229
562.538
409.022
406.668
400.59
434.026
443.234
445.97
426.732
441.292
423.676
429.774
289.533
610.485
528.14
499.839
620.622
548.491
656.713
548.593
796.706
554.21
631.58
423.071
415.232
418.082
392.169
553.726
593.459
491.546
524.836
560.224
408.082
405.735
400.039
432.292
441.674
445.07
425.772
439.941
422.619
428.168
276.346
600.247
523.137
491.427
618.408
541.817
654.616
536.829
789.4
550.018
631.891
422.637
414.477
416.706
551.479
591.014
489.449
522.471
557.934
407.281
404.895
399.569
430.653
440.154
444.188
424.864
438.604
421.666
426.673
2.06697e+161
589.747
518.672
503.284
482.743
615.912
535.056
652.164
525.054
781.84
545.595
631.88
422.309
413.807
415.422
549.264
588.587
487.421
520.128
555.672
406.578
404.099
399.13
429.094
438.659
443.313
437.279
420.785
425.266
253.08
2.06697e+161
9.09155e+223
503.097
473.711
613.179
649.388
513.503
774.028
540.919
631.531
422.072
413.207
414.224
547.082
586.172
485.455
517.808
553.444
405.953
403.334
398.722
427.604
437.184
442.437
435.957
419.961
423.936
2.06697e+161
567.697
508.708
502.798
464.28
610.232
646.34
502.164
765.996
535.937
630.869
421.913
412.665
413.105
544.919
583.762
483.546
515.51
551.22
405.401
402.587
398.324
426.171
435.724
441.556
434.633
419.182
422.674
556.058
9.09155e+223
502.361
637.863
637.863
637.863
454.52
607.06
643.031
646.397
491.002
757.768
530.685
629.953
412.174
412.062
542.763
581.347
481.688
513.235
548.989
404.913
401.852
397.934
424.79
434.275
440.665
433.312
418.438
421.472
544.014
501.742
638.088
2.06697e+161
638.088
9.09155e+223
603.211
639.422
651.688
480.178
749.383
525.184
628.788
411.73
411.09
540.61
578.927
479.867
510.97
546.746
404.482
401.129
397.535
423.454
432.832
439.758
431.992
417.721
420.326
2.06697e+161
762.463
500.925
638.227
638.227
638.227
600.038
635.283
656.482
469.801
740.713
519.46
627.391
411.322
410.181
538.453
576.503
478.082
508.706
544.487
404.098
400.419
397.13
422.155
431.395
438.83
430.671
417.027
419.229
518.593
9.09155e+223
9.09155e+223
638.256
638.256
638.256
596.152
630.603
660.77
459.695
731.862
513.498
625.764
410.945
409.324
536.284
574.065
476.331
506.439
542.209
403.751
399.719
396.717
420.878
429.958
437.876
429.352
416.349
418.17
2.06697e+161
750.445
498.65
638.165
638.165
638.165
591.997
625.518
664.568
449.833
722.931
507.278
623.888
410.585
408.511
534.104
571.601
474.62
504.171
539.905
403.428
399.024
396.287
419.619
428.518
436.888
428.034
415.677
417.145
491.445
2.06697e+161
9.09155e+223
4.2695e+257
637.885
637.885
587.557
620.078
667.873
439.314
713.897
500.72
621.829
410.231
407.731
531.912
569.112
472.948
501.898
537.575
403.112
398.329
395.832
418.374
427.068
435.865
426.708
415.008
416.152
477.174
9.09155e+223
586.586
495.447
637.419
637.419
637.419
582.813
614.292
670.779
430.433
704.764
493.842
619.624
409.888
406.975
529.705
566.585
499.617
535.213
402.834
397.624
395.352
417.161
425.605
434.805
425.38
414.348
415.183
462.587
9.09155e+223
9.09155e+223
493.487
636.736
636.736
636.736
577.756
608.136
673.198
420.189
695.364
486.664
617.248
409.55
406.234
527.482
564.052
497.322
532.812
402.602
396.917
394.849
415.977
424.129
433.703
424.057
413.691
414.235
2.06697e+161
722.908
9.09155e+223
491.285
9.09155e+223
635.857
635.857
572.402
601.562
675.085
410.538
685.635
479.348
614.677
409.206
405.504
525.235
561.54
495.018
530.363
402.406
396.208
394.322
414.82
422.64
432.553
422.766
413.035
413.303
431.9
715.356
580.286
488.823
634.769
634.769
634.769
650.057
566.717
594.549
676.433
401.22
675.603
471.973
611.901
408.863
404.781
522.966
559.05
492.699
527.897
402.231
395.488
393.768
413.686
421.133
431.351
421.507
412.373
412.385
415.937
707.533
577.402
9.09155e+223
3.94662e+180
9.09155e+223
633.495
642.335
560.707
587.222
677.236
665.235
889.533
464.426
608.969
408.511
404.061
520.72
556.6
490.366
525.442
402.067
394.761
393.182
412.564
419.6
430.087
420.282
411.703
411.475
399.701
9.09155e+223
574.042
631.999
631.999
631.999
634.101
554.333
579.28
677.499
654.467
885.536
456.869
605.999
408.137
403.339
518.507
554.215
488.017
522.997
401.901
394.018
392.551
411.445
418.04
428.752
419.095
411.017
410.565
2.06697e+161
690.998
9.09155e+223
630.301
630.301
630.301
642.539
642.539
642.539
625.416
547.573
570.79
677.239
643.333
881.161
449.437
602.985
407.733
402.608
516.33
551.877
485.707
520.589
401.721
393.25
391.869
410.318
416.445
427.328
417.968
410.31
409.645
367.492
682.241
2.06697e+161
628.371
9.09155e+223
628.371
643.377
643.377
643.377
616.348
540.321
561.724
676.609
631.741
876.414
442.442
599.747
407.296
401.856
514.237
549.585
483.436
518.22
401.509
392.448
391.11
409.177
414.806
425.795
416.899
409.568
408.703
351.473
9.09155e+223
560.778
626.067
626.067
626.067
644.074
644.074
644.074
606.945
532.546
552.092
675.7
619.701
871.295
435.363
596.22
653.25
406.814
401.069
512.224
547.334
481.22
515.882
401.253
391.584
390.223
408.015
413.112
424.27
415.882
408.781
407.715
335.497
663.748
555.191
644.491
644.491
644.491
597.241
524.248
669.361
541.878
674.519
607.166
865.813
592.435
655.646
406.336
400.253
510.287
545.123
479.08
513.577
401.009
390.677
389.336
406.853
411.429
422.81
414.917
407.957
406.712
457.672
2.06697e+161
549.025
9.09155e+223
644.66
644.66
644.66
587.13
515.448
667.949
531.063
673.057
594.237
859.923
588.352
657.602
405.902
399.514
508.421
542.945
477.009
511.299
400.779
389.815
388.538
405.718
409.803
421.39
414.001
407.151
405.737
304.226
644.222
542.176
515.498
644.407
644.407
644.407
576.884
506.158
666.276
519.787
671.305
581.926
853.679
583.954
659.143
405.539
398.865
506.623
540.798
475.004
509.051
400.571
389.059
387.802
404.615
408.252
419.997
413.135
406.369
404.837
289.474
9.09155e+223
534.639
514.62
644.047
644.047
644.047
566.433
496.436
664.311
509.827
669.228
622.534
847.069
579.248
660.283
405.253
398.285
504.893
538.678
473.062
506.831
400.411
388.385
387.098
494.585
494.585
494.585
403.557
406.764
418.623
412.314
405.643
404
593.09
575.342
275.129
9.09155e+223
526.919
513.578
643.608
643.608
643.608
555.872
486.395
662.026
500.417
666.833
553.69
840.121
574.158
661.112
405.032
397.764
503.232
536.586
471.183
504.631
400.339
387.778
386.421
495.039
495.039
495.039
402.587
405.335
417.263
411.542
404.983
403.211
593.186
576.726
2.06697e+161
613.313
9.09155e+223
512.355
643.08
643.08
643.08
545.334
475.908
659.465
490.792
664.118
540.178
832.793
568.664
661.676
404.888
397.295
501.625
534.501
469.365
502.456
400.344
387.232
385.762
495.496
495.496
495.496
401.701
403.961
415.916
452.257
410.814
404.379
402.463
471.266
596.861
593.209
578.528
2.06697e+161
602.548
511.016
510.989
642.439
642.439
642.439
534.921
464.907
656.644
480.952
661.089
526.964
825.158
562.823
662.008
404.803
396.87
420.936
500.072
532.42
467.603
500.302
510.73
510.73
510.73
400.414
386.739
385.117
495.923
495.923
495.923
400.886
402.63
414.578
452.755
410.114
403.819
401.747
474.422
600.317
593.426
580.791
2.06697e+161
591.472
803.158
502.388
509.472
641.654
641.654
641.654
524.47
453.485
653.536
471.017
657.747
660.478
513.997
817.165
556.565
662.109
404.769
396.48
592.678
421.179
524.551
498.557
530.34
465.889
498.146
512.689
511.301
511.301
511.301
400.521
386.292
384.49
496.302
496.302
496.302
400.122
401.337
413.248
453.276
409.443
403.294
401.052
477.897
604.022
594.306
583.508
766.324
580.06
798.021
9.09155e+223
507.773
640.684
640.684
640.684
441.76
650.135
460.931
654.157
665.767
501.175
808.902
549.916
662.005
404.766
396.126
593.51
421.452
524.866
497.08
528.257
464.218
495.985
513.839
487.767
511.84
511.84
511.84
400.625
385.874
383.876
496.636
496.636
496.636
448.491
399.384
400.074
411.914
453.831
408.797
661.539
402.791
400.375
481.381
607.679
1153.5
1034
595.664
587.087
764.205
568.253
792.558
483.99
505.85
639.511
639.511
639.511
429.718
646.409
650.2
670.562
488.739
800.283
542.881
661.559
404.741
395.791
594.212
421.758
525.147
495.623
526.156
462.586
493.815
514.91
488.162
512.351
512.351
512.351
400.71
385.48
383.271
496.915
496.915
496.915
448.757
398.658
398.829
410.567
454.388
408.171
660.72
402.293
399.703
858.568
484.959
611.881
996.4
1153.06
1032.51
597.602
593.004
763.075
1025.82
556.019
786.758
474.351
627.021
503.703
638.104
638.104
638.104
417.359
642.346
645.702
674.873
476.645
791.396
535.427
660.687
404.684
395.463
594.891
422.117
525.422
494.186
524.044
460.999
491.639
515.9
488.546
512.821
512.821
512.821
400.773
385.114
382.673
497.15
497.15
497.15
449.011
414.923
397.948
397.603
409.217
454.902
407.566
659.889
401.788
399.031
907.864
906.28
856.158
489.157
617.804
994.941
1145.92
1031.11
599.528
597.305
764.008
1065.03
951.742
1024.91
543.298
780.653
626.117
501.325
636.463
636.463
636.463
404.739
637.949
640.722
678.754
465.155
782.339
527.591
659.42
404.614
395.14
595.583
422.442
525.723
492.764
521.92
545.742
545.742
545.742
459.452
489.458
516.833
488.912
513.247
513.247
513.247
400.814
384.772
382.074
497.359
497.359
497.359
449.26
414.715
397.253
396.396
407.859
455.362
406.984
659.037
401.281
398.365
886.446
905.457
853.455
996.564
1131.48
1030.03
1215.04
1206.54
599.752
768.572
1052.24
1210.03
1025.63
530.088
774.234
624.93
2.06697e+161
634.544
634.544
634.544
708.964
391.951
633.213
635.326
682.284
453.745
773.111
519.348
657.819
404.561
394.818
596.232
422.76
526.03
491.35
519.784
546.606
546.606
546.606
457.941
487.272
517.714
489.266
513.645
513.645
513.645
400.854
384.47
381.469
497.536
497.536
497.536
449.499
414.51
396.572
395.215
406.489
455.807
406.42
658.173
400.776
397.705
863.175
905.503
851.548
1114.13
1029.08
1279.66
1228.34
603.048
777.134
1034.65
1119.47
1014.45
516.337
767.545
623.44
495.791
632.246
632.246
632.246
702.638
628.181
629.49
685.44
442.865
763.767
510.605
655.956
404.527
394.487
596.83
423.078
526.349
489.941
517.625
547.424
547.424
547.424
456.464
485.071
518.543
489.607
514.058
514.058
514.058
400.905
384.204
380.861
497.706
497.706
497.706
449.726
414.32
395.93
394.061
405.105
456.249
433.475
405.875
657.293
400.282
397.046
867.413
903.447
850.296
1092.78
1029.69
1342.39
1254.59
606.438
1029.14
1022.14
502.036
9.09155e+223
621.621
492.609
571.283
629.731
629.731
629.731
649.084
649.084
649.084
695.628
622.833
533.098
623.204
688.163
432.249
754.235
501.37
653.874
404.5
394.143
597.379
423.399
403.966
526.678
488.536
515.447
548.239
548.239
548.239
455.018
482.852
519.324
497.038
489.947
514.499
514.499
514.499
467.197
400.968
383.967
380.242
497.901
497.901
497.901
449.98
414.171
395.33
392.931
403.705
456.692
434.428
405.37
656.424
399.796
396.383
871.571
902.431
847.187
792.405
1069.52
1029.03
1380.77
1298.66
609.779
741.735
1025.39
1021.49
487.134
753.413
619.453
489.149
569.1
626.86
626.86
626.86
651.559
651.559
651.559
687.908
617.161
531.929
616.468
690.415
421.41
744.446
946.547
491.915
651.556
404.437
393.779
597.865
423.727
404.073
527.019
487.129
513.301
549.056
549.056
549.056
453.601
480.62
520.056
499.331
490.292
514.975
514.975
514.975
467.625
401.046
383.744
379.613
498.126
498.126
498.126
450.269
414.068
394.772
391.82
402.284
457.137
435.389
404.908
655.572
399.315
395.714
875.528
901.373
846.146
788.321
1046.38
1028.19
1310.06
613.165
629.562
1028.57
1020.68
471.649
9.09155e+223
616.867
485.408
566.467
623.574
623.574
623.574
653.699
653.699
653.699
679.725
611.102
530.217
609.342
692.215
411.116
734.389
943.899
482.28
649.053
404.326
393.397
598.279
588.084
424.066
404.188
527.376
485.744
511.184
549.887
549.887
549.887
452.21
478.365
520.743
501.601
490.631
515.494
515.494
515.494
468.085
401.125
383.527
378.972
498.386
498.386
498.386
450.598
414.014
394.25
390.721
400.838
457.581
436.36
404.491
654.722
398.831
395.032
880.622
900.371
845.443
785.624
1025.21
1027.64
930.686
1303.65
613.988
625.194
1023.98
1019.84
455.598
9.09155e+223
613.825
481.379
563.373
619.882
619.882
619.882
655.535
655.535
655.535
670.88
604.669
528.03
601.799
693.575
400.756
724.161
940.972
472.298
646.355
404.169
392.991
598.62
589.703
424.418
404.313
527.755
540.419
484.408
509.093
550.73
550.73
550.73
450.842
476.133
521.391
503.843
490.988
516.06
516.06
516.06
468.577
401.174
383.3
378.315
498.683
498.683
498.683
450.963
414.008
393.758
389.62
399.362
458.018
437.326
404.115
653.872
398.333
394.33
882.036
899.327
844.736
784.597
1008.07
1028.36
926.346
1079.42
978.492
1002.49
1257.14
1301.45
615.663
627.272
1022.64
1018.41
9.09155e+223
730.65
610.304
477.001
559.815
615.779
615.779
615.779
657.057
657.057
657.057
661.28
597.857
525.471
593.907
694.49
389.65
713.75
937.763
462.147
643.426
403.964
392.56
598.882
591.36
424.799
404.45
528.159
540.615
483.127
507.045
551.586
551.586
551.586
449.508
473.938
522.003
506.056
491.369
516.677
516.677
516.677
469.103
429.485
401.176
383.054
377.63
499.024
499.024
499.024
451.371
414.052
393.284
388.512
397.851
458.448
438.285
403.774
653.037
397.808
393.6
882.902
897.981
844.798
784.269
994.091
1030.44
923.477
1088
978.734
980.55
1299.55
1042.19
1295.41
957.407
618.89
627.992
1023.51
1020.38
999.792
421.854
722.668
606.285
472.25
555.789
611.253
611.253
611.253
658.278
658.278
658.278
673.338
2023.22
590.662
522.52
585.392
694.948
703.136
934.23
451.944
640.224
670.413
403.706
392.097
599.086
593.042
425.225
404.594
528.599
540.843
481.91
505.078
552.467
552.467
552.467
511.747
448.238
471.774
522.581
508.239
491.772
471.844
517.338
517.338
517.338
469.656
429.801
401.128
382.766
376.907
499.417
499.417
499.417
451.825
414.146
392.816
387.39
396.296
458.871
439.234
501.154
403.477
652.227
436.672
397.246
392.833
885.485
896.102
844.049
784.18
983.469
1032.05
920.914
1098.81
981.527
967.783
1316.23
1016.2
1299.06
962.784
623.019
629.625
1022.22
1021.58
954.007
404.418
714.508
601.723
467.129
551.295
606.337
606.337
606.337
659.183
659.183
659.183
665.447
639.931
583.188
519.149
576.392
694.952
684.511
692.144
930.377
441.866
636.718
675.22
403.416
391.59
599.276
594.74
425.677
404.739
529.072
541.11
482.922
480.757
503.179
553.361
553.361
553.361
513.488
447.039
469.666
523.134
510.413
492.191
472.551
518.024
518.024
518.024
470.23
430.137
401.078
382.43
376.125
499.863
499.863
499.863
452.33
414.282
392.345
386.252
394.708
459.292
440.173
501.768
403.249
651.394
436.429
396.639
392.012
889.4
892.983
843.263
783.247
976.406
1033.57
918.759
983.807
959.089
1302.02
996.635
1306.84
994.155
631.714
632.276
1018.51
1035.26
926.407
386.947
9.09155e+223
596.578
461.604
539.89
546.321
601.06
601.06
6.22655e+228
659.699
659.699
659.699
656.953
628.235
575.035
708.418
566.834
694.654
686.34
680.594
926.177
431.925
632.902
679.304
403.122
391.093
599.488
596.428
426.147
404.889
529.577
541.414
483.409
479.683
501.345
554.221
554.221
554.221
515.247
445.912
467.626
523.686
512.573
492.625
473.285
518.739
518.739
518.739
470.825
430.494
401.037
382.094
375.334
500.32
500.32
500.32
452.856
414.449
391.891
385.122
393.135
459.761
441.141
502.381
403.088
650.543
436.234
396.017
391.172
895.453
884.212
842.821
781.875
972.114
1035.8
916.994
987.191
953.688
1285.84
975.454
1052.09
641.17
633.504
1004.8
1173.34
929.79
9.09155e+223
697.673
590.832
455.705
538.874
540.867
595.219
595.219
595.219
659.829
659.829
659.829
647.917
615.917
566.486
707.352
556.671
694.139
687.881
668.408
921.672
422.107
628.778
682.712
402.823
390.624
599.699
598.114
426.639
405.047
530.106
541.759
484.012
478.721
499.572
517.019
450.74
444.859
465.652
524.237
514.704
474.036
519.486
519.486
519.486
471.446
430.877
401.011
381.772
374.575
500.789
500.789
500.789
453.388
414.653
391.472
384.021
391.6
460.305
442.139
502.996
402.99
649.665
435.994
395.403
390.349
1191.83
859.284
841.463
781.202
967.458
1036.73
915.608
991.104
949.723
1304.11
954.515
637.685
979.042
1264.67
930.659
352.818
689.041
9.09155e+223
449.478
537.768
534.994
588.694
588.694
588.694
659.679
659.679
659.679
638.365
602.996
557.436
706.035
545.952
693.396
689.178
655.535
916.8
412.694
624.332
685.648
402.529
390.214
599.911
599.792
427.162
405.218
530.639
542.134
484.769
477.855
497.855
518.802
451.357
443.903
463.744
524.776
516.795
474.791
520.269
520.269
520.269
472.095
431.286
400.997
381.473
373.903
501.27
501.27
501.27
453.926
414.893
391.089
382.953
390.128
460.947
443.141
503.654
402.952
648.767
435.778
394.798
389.543
1198.85
827.33
840.654
780.561
963.178
1037.86
914.251
996.164
946.723
916.991
1346.97
964.456
640.826
959.476
1249.07
930.747
2.06697e+161
680.212
9.09155e+223
442.921
536.559
528.721
581.972
581.972
581.972
659.313
659.313
659.313
628.337
589.408
547.889
704.468
534.738
692.403
690.255
641.916
911.606
403.542
619.569
688.138
402.25
389.87
600.12
601.45
427.711
405.403
531.193
542.531
485.697
477.096
496.198
520.592
484.532
452.079
443.051
461.892
525.294
518.839
475.546
521.083
521.083
521.083
472.767
431.719
401.002
381.214
373.292
501.76
501.76
501.76
454.467
415.169
390.743
381.918
388.711
461.647
444.113
504.348
402.97
647.842
435.593
418.601
394.204
388.787
1205.16
806.273
839.793
779.925
959.981
1037.21
912.72
999.281
943.508
915.82
1002.67
646.6
948.156
1062.96
930.591
319.544
671.128
569.827
436.07
535.233
522.056
575.017
575.017
575.017
658.794
658.794
658.794
617.913
575.34
537.945
702.623
523.153
691.124
691.102
627.37
906.063
393.967
614.473
690.198
402.006
389.582
600.323
603.074
428.284
405.605
392.007
531.766
542.944
519.833
486.794
476.453
494.598
522.389
486.588
452.919
442.298
460.097
525.785
520.83
476.299
521.928
521.928
521.928
473.455
432.172
401.032
381.034
372.729
502.257
502.257
502.257
455.012
415.476
390.441
380.967
387.34
462.273
445.039
505.062
403.041
548.244
435.441
418.295
393.624
388.087
1212.6
800.889
838.936
779.267
958.935
1032.56
911.236
1000.56
942.799
916.354
1044.02
1283.67
888.234
654.101
939.618
989.307
929.749
303.76
661.826
9.09155e+223
533.779
515.012
567.634
567.634
567.634
658.928
658.147
658.147
607.034
560.82
527.671
700.491
512.395
689.539
691.706
612.29
900.164
609.025
691.905
401.8
389.337
600.501
604.655
428.897
405.831
392.166
532.323
543.377
522.594
488.059
475.923
493.055
524.191
488.737
453.881
441.638
458.355
526.241
522.809
502.727
477.045
522.805
522.805
522.805
474.158
432.645
401.114
380.932
372.214
502.759
502.759
502.759
455.562
415.815
390.185
380.097
386.012
462.836
445.907
425.693
505.78
419.809
403.16
549.173
435.325
418.013
393.098
387.432
1208.02
802.998
837.968
778.655
959.013
1023.73
909.927
1009.56
942.971
915.591
1092.55
1302.49
881.63
663.296
932.653
969.295
928.387
288.818
652.309
552.253
532.186
507.598
559.778
559.778
559.778
657.345
657.345
657.345
595.749
545.96
516.912
698.093
501.693
687.623
692.06
596.74
893.919
603.256
693.317
401.634
389.134
600.621
606.184
429.557
406.094
392.34
532.886
543.829
525.513
489.468
475.502
491.567
525.997
490.967
454.948
441.065
456.664
526.695
524.771
506.458
477.783
523.711
523.711
523.711
474.877
433.136
401.261
380.902
371.746
503.264
503.264
503.264
456.116
416.182
390.003
379.299
384.722
463.357
446.786
427.019
506.487
420.522
403.326
550.039
435.245
417.756
404.139
392.624
386.817
1093.5
1205.4
809.707
836.572
777.542
960.611
1013.85
908.809
1019.76
944.714
914.762
1133.62
1292.48
876.842
670.643
927.612
942.897
923.315
2.06697e+161
642.51
3.94662e+180
542.721
530.457
551.403
551.403
551.403
656.365
656.365
656.365
530.871
505.63
695.462
490.779
685.368
692.15
580.948
887.288
597.1
694.499
414.191
401.486
388.973
607.671
430.263
406.398
392.537
381.031
533.46
544.298
528.537
490.994
475.151
490.101
527.798
493.261
456.109
440.566
455.023
527.159
526.7
510.178
478.513
475.609
433.653
401.426
380.917
371.322
503.77
503.77
503.77
456.676
416.573
389.864
378.553
383.464
463.95
447.718
428.427
507.175
473.386
421.266
403.522
550.859
417.528
403.84
392.191
386.232
1090.94
1244.54
814.802
835.69
775.461
962.819
1002.44
907.965
1029.11
945.882
911.799
1284.48
872.729
679.456
924.018
941.057
923.651
260.645
632.374
832.773
532.69
661.143
528.576
542.524
542.524
542.524
655.185
655.185
655.185
515.695
493.886
692.596
479.682
682.759
673.945
691.97
565.19
880.293
590.576
695.336
413.941
401.287
388.854
609.113
599.918
431.013
406.747
392.757
381.167
544.788
531.666
492.627
474.85
488.652
529.562
495.62
457.359
440.135
453.429
528.578
513.894
479.249
476.343
434.185
401.589
380.941
370.937
504.235
504.235
504.235
457.218
416.973
389.744
377.84
382.239
464.638
448.716
429.893
507.837
474.145
422.05
403.747
551.632
417.394
403.564
391.772
385.667
1114.04
1239.09
818.839
834.707
773.58
990.412
907.315
1037.78
948.204
908.591
998.605
1280.22
870.163
869.567
920.763
940.734
920.411
248.804
9.09155e+223
827.812
522.233
661.321
526.527
653.785
653.785
653.785
500.406
481.774
689.495
468.443
679.828
679.572
691.511
549.503
872.927
583.723
695.715
413.68
401.043
388.738
610.504
602.294
407.144
393.004
381.316
545.311
558.727
534.885
494.369
474.65
487.223
531.29
498.048
458.695
439.766
451.871
530.391
517.621
479.991
477.074
434.717
401.746
380.954
370.589
457.737
417.378
389.639
377.151
381.039
465.414
449.742
431.373
508.532
474.929
422.874
403.997
552.358
417.301
403.281
391.348
385.109
1135.4
824.381
832.772
771.703
978.501
906.732
1045.47
950.488
905.742
1315.16
965.512
1280.29
871.392
867.001
941.028
919.617
2.06697e+161
822.481
9.09155e+223
661.304
524.304
652.139
652.139
652.139
484.866
469.343
686.136
457.146
676.541
684.748
690.743
534.542
865.19
576.53
695.599
413.412
400.76
388.587
611.851
604.733
407.591
393.275
381.48
545.867
559.402
538.196
496.303
474.552
485.808
532.983
500.544
460.12
439.459
450.348
532.14
521.365
480.737
477.795
435.249
401.901
380.95
370.268
458.236
417.788
389.549
376.484
379.855
466.071
450.709
432.838
509.261
475.754
423.731
404.268
553.034
417.204
402.987
390.915
384.553
1140.65
831.829
830.916
769.999
967.307