/*--------------------------------*- C++ -*----------------------------------*\
| =========                 |                                                 |
| \\      /  F ield         | OpenFOAM: The Open Source CFD Toolbox           |
|  \\    /   O peration     | Version:  2.1.1                                 |
|   \\  /    A nd           | Web:      www.OpenFOAM.org                      |
|    \\/     M anipulation  |                                                 |
\*---------------------------------------------------------------------------*/
FoamFile
{
    version     2.0;
    format      ascii;
    class       vectorField;
    location    "0.0011";
    object      U;
}
// * * * * * * * * * * * * * * * * * * * * * * * * * * * * * * * * * * * * * //


44661
(
(-0.486181 -0.016912 0.0166457)
(19.3228 -0.915029 -0.836664)
(19.233 -0.90813 -0.826361)
(19.1327 -0.899855 -0.814201)
(19.0266 -0.892185 -0.80078)
(18.915 -0.886181 -0.789077)
(18.7963 -0.878857 -0.776657)
(18.6675 -0.869756 -0.762533)
(18.5318 -0.858351 -0.746615)
(18.3885 -0.844461 -0.728299)
(18.2403 -0.830787 -0.708296)
(18.0872 -0.819507 -0.691401)
(17.9335 -0.803033 -0.670544)
(17.7786 -0.781264 -0.645597)
(17.6313 -0.753535 -0.616393)
(17.4849 -0.730736 -0.588227)
(17.3531 -0.703692 -0.561817)
(19.7886 -0.993561 -0.930325)
(19.7146 -0.997499 -0.932146)
(19.637 -0.999904 -0.933361)
(19.556 -1.00147 -0.932397)
(19.4715 -1.00277 -0.929434)
(19.3862 -1.0038 -0.928112)
(19.2955 -1.0027 -0.924943)
(19.1986 -0.999945 -0.920126)
(19.0922 -0.995216 -0.913057)
(18.9799 -0.988175 -0.903509)
(18.8557 -0.97919 -0.890916)
(18.724 -0.970269 -0.874935)
(18.589 -0.964124 -0.865331)
(18.4521 -0.954368 -0.850645)
(18.3068 -0.942055 -0.832421)
(18.1567 -0.926578 -0.810261)
(18.0007 -0.907593 -0.783433)
(17.8291 -0.8965 -0.762924)
(20.2309 -0.974586 -0.929875)
(17.6688 -0.878568 -0.738665)
(20.1724 -0.986933 -0.938183)
(8.81043 -0.410485 0.427907)
(17.5104 -0.855132 -0.710114)
(20.1096 -0.99993 -0.946076)
(8.60557 -0.418545 0.429857)
(17.3577 -0.823894 -0.676178)
(20.0427 -1.01288 -0.953204)
(8.39124 -0.42631 0.432222)
(17.2024 -0.79541 -0.641875)
(19.9683 -1.02693 -0.960568)
(8.15367 -0.435014 0.435555)
(17.0467 -0.768994 -0.611533)
(19.8895 -1.04039 -0.967832)
(7.88662 -0.445222 0.44008)
(16.915 -0.731148 -0.580176)
(19.8097 -1.05171 -0.975286)
(7.5842 -0.457638 0.446094)
(19.7276 -1.06084 -0.983126)
(7.24563 -0.472494 0.45364)
(19.6428 -1.06807 -0.991136)
(6.86766 -0.49054 0.462808)
(19.5535 -1.07314 -0.997544)
(6.45499 -0.512083 0.473664)
(19.4584 -1.07521 -1.00135)
(6.01483 -0.53702 0.486132)
(19.3557 -1.07553 -1.00217)
(5.56229 -0.565163 0.499783)
(19.2492 -1.07616 -1.00329)
(19.1473 -1.07507 -1.00454)
(19.035 -1.07113 -1.00159)
(18.9127 -1.0649 -0.995329)
(10.2965 -0.370662 0.443583)
(18.7784 -1.05634 -0.984276)
(10.17 -0.375992 0.439456)
(18.6298 -1.04484 -0.967146)
(10.0373 -0.381915 0.436051)
(18.4672 -1.03379 -0.947259)
(9.89299 -0.388549 0.433489)
(18.3012 -1.02687 -0.937443)
(20.5336 -0.926412 -0.880259)
(9.74191 -0.395697 0.431431)
(18.1367 -1.01363 -0.916573)
(20.4917 -0.9439 -0.89561)
(9.57988 -0.403584 0.430089)
(17.9627 -0.996525 -0.889462)
(20.4445 -0.961748 -0.910554)
(9.40881 -0.411988 0.429403)
(17.7831 -0.974495 -0.855715)
(20.3921 -0.979655 -0.924973)
(9.22851 -0.420879 0.429364)
(17.5835 -0.958799 -0.827199)
(20.3341 -0.997444 -0.938764)
(9.03916 -0.429875 0.429837)
(17.3852 -0.942998 -0.800839)
(20.27 -1.01526 -0.952093)
(8.83728 -0.439135 0.430885)
(17.2037 -0.914802 -0.766106)
(20.1994 -1.03306 -0.965047)
(8.62609 -0.448106 0.43223)
(17.0285 -0.877116 -0.725659)
(20.1223 -1.05099 -0.977629)
(8.40438 -0.456649 0.433878)
(16.8301 -0.84548 -0.685535)
(20.0392 -1.06947 -0.989846)
(8.15731 -0.466206 0.436661)
(16.6339 -0.812278 -0.649896)
(19.9545 -1.08658 -1.00176)
(7.878 -0.477437 0.440792)
(16.4688 -0.762543 -0.61361)
(19.8702 -1.10158 -1.01345)
(7.56175 -0.49103 0.446498)
(19.7843 -1.11422 -1.02572)
(7.20741 -0.50719 0.453797)
(19.6959 -1.12475 -1.03898)
(6.81245 -0.526303 0.462551)
(19.6023 -1.13277 -1.0513)
(6.29756 -0.510735 -0.351818)
(6.38458 -0.548767 0.47305)
(19.5017 -1.13781 -1.0619)
(6.24531 -0.502162 -0.355834)
(5.92488 -0.575768 0.485672)
(11.0424 -0.363435 0.483676)
(19.393 -1.13981 -1.06996)
(6.19005 -0.493856 -0.360022)
(5.45688 -0.606098 0.499333)
(10.9343 -0.367055 0.477283)
(19.2738 -1.13845 -1.07257)
(6.13239 -0.485767 -0.3643)
(5.00435 -0.638962 0.513428)
(10.8217 -0.37111 0.47105)
(19.1433 -1.1354 -1.06867)
(6.07264 -0.477876 -0.368652)
(10.7034 -0.375688 0.46504)
(19.0194 -1.13401 -1.07813)
(6.01061 -0.470197 -0.373108)
(10.5782 -0.380831 0.459331)
(18.8876 -1.12878 -1.07598)
(5.94652 -0.46273 -0.377632)
(10.446 -0.386604 0.454019)
(18.7389 -1.12037 -1.06743)
(20.7039 -0.861808 -0.792441)
(5.88049 -0.455436 -0.38225)
(10.3074 -0.393105 0.449156)
(18.5752 -1.10895 -1.0514)
(20.6832 -0.879899 -0.813381)
(5.81265 -0.44835 -0.386939)
(10.1597 -0.400413 0.444984)
(18.3897 -1.0937 -1.02443)
(20.6583 -0.898408 -0.833709)
(5.74239 -0.441433 -0.391706)
(10.0041 -0.408447 0.441552)
(18.1843 -1.08362 -1.0064)
(20.6299 -0.916577 -0.852901)
(5.66911 -0.434643 -0.396574)
(9.84133 -0.417208 0.438644)
(17.9801 -1.07276 -0.988614)
(20.5993 -0.932627 -0.870814)
(5.59334 -0.427913 -0.401545)
(9.66787 -0.42684 0.436426)
(17.7758 -1.05398 -0.956882)
(20.5633 -0.948116 -0.887999)
(5.51441 -0.421266 -0.406628)
(9.48827 -0.436767 0.434705)
(17.563 -1.02942 -0.916889)
(20.512 -0.970178 -0.906743)
(9.29982 -0.447196 0.433548)
(17.3244 -1.00745 -0.879753)
(20.4538 -0.992274 -0.924776)
(9.10399 -0.45756 0.43275)
(17.0757 -0.991692 -0.850632)
(20.3889 -1.01444 -0.942158)
(8.89826 -0.467725 0.432342)
(16.8548 -0.95785 -0.809901)
(20.3167 -1.0368 -0.95907)
(7.19429 -0.397988 -0.898838)
(8.68265 -0.477457 0.432198)
(16.6269 -0.912958 -0.763303)
(20.2368 -1.05915 -0.975447)
(7.12203 -0.391265 -0.898077)
(8.45473 -0.486688 0.432307)
(16.3558 -0.881484 -0.719582)
(20.1487 -1.08151 -0.991427)
(7.04529 -0.384878 -0.897702)
(8.19792 -0.49712 0.433505)
(16.1136 -0.831691 -0.679302)
(20.0521 -1.10369 -1.00764)
(6.77506 -0.564715 -0.365559)
(6.96468 -0.378743 -0.897665)
(7.90874 -0.50883 0.435952)
(11.899 -0.352393 0.53572)
(19.9526 -1.12397 -1.02465)
(6.72491 -0.555066 -0.369146)
(6.8792 -0.372848 -0.898148)
(7.5807 -0.522716 0.43976)
(11.7941 -0.354925 0.52849)
(19.851 -1.1416 -1.04026)
(6.67159 -0.545816 -0.37277)
(6.78974 -0.367145 -0.898942)
(7.21112 -0.539206 0.445259)
(11.6871 -0.357704 0.521379)
(19.7514 -1.15689 -1.05684)
(6.61508 -0.536912 -0.376453)
(6.69693 -0.361566 -0.899985)
(6.79535 -0.559642 0.45269)
(11.5767 -0.360478 0.51434)
(19.651 -1.16954 -1.07383)
(6.5559 -0.528255 -0.3802)
(6.6009 -0.356085 -0.901257)
(6.33454 -0.585226 0.462406)
(11.4619 -0.363829 0.507408)
(19.5427 -1.17971 -1.09066)
(6.49398 -0.51987 -0.384018)
(6.50097 -0.350678 -0.902773)
(5.84876 -0.615093 0.474276)
(11.3432 -0.367573 0.500568)
(19.429 -1.18619 -1.10553)
(6.42958 -0.511738 -0.38791)
(6.39784 -0.345248 -0.904473)
(5.35058 -0.650203 0.487926)
(11.2197 -0.371811 0.493779)
(22.7413 0.0606654 0.0308701)
(19.3029 -1.18865 -1.11678)
(20.797 -0.715684 -0.602413)
(6.36432 -0.503787 -0.39147)
(6.29332 -0.339727 -0.90595)
(4.8885 -0.685764 0.502009)
(11.0909 -0.376527 0.487327)
(11.1075 -0.129984 -0.724475)
(22.7387 0.0608971 0.0309519)
(22.7397 0.0536776 -0.0243599)
(19.1642 -1.18727 -1.12169)
(20.7989 -0.739071 -0.633833)
(6.2972 -0.495904 -0.395155)
(6.18548 -0.334059 -0.907635)
(4.51886 -0.716512 0.512774)
(10.9576 -0.381794 0.480855)
(10.8012 -0.110108 -0.740149)
(22.7361 0.0611493 0.0310522)
(22.7372 0.053663 -0.024786)
(19.0076 -1.1825 -1.11698)
(20.7959 -0.762629 -0.664496)
(6.22777 -0.488183 -0.398956)
(6.07508 -0.328259 -0.909452)
(10.8171 -0.387912 0.47454)
(10.4623 -0.0846947 -0.755836)
(22.7646 -0.0799629 0.0510403)
(22.7335 0.0613654 0.0311605)
(22.7347 0.0536366 -0.0251228)
(18.8568 -1.18034 -1.12741)
(20.7888 -0.785787 -0.693913)
(6.15665 -0.480568 -0.402875)
(5.96208 -0.322284 -0.911458)
(8.30025 -0.474745 -0.944338)
(10.6718 -0.394839 0.468312)
(10.0875 -0.0525853 -0.771376)
(22.7621 -0.0803975 0.0513579)
(22.7308 0.061532 0.0312747)
(22.7848 0.0558939 0.0294821)
(22.7322 0.0535939 -0.0253775)
(18.6981 -1.17438 -1.12684)
(20.7765 -0.80895 -0.722407)
(6.08377 -0.473053 -0.406919)
(5.84591 -0.31614 -0.913693)
(8.27481 -0.462682 -0.938)
(10.5206 -0.402672 0.462252)
(9.68151 -0.0131875 -0.786186)
(22.7596 -0.0807924 0.05166)
(22.728 0.0616475 0.031395)
(22.7823 0.0564275 0.0295075)
(22.7297 0.0535305 -0.0255577)
(22.7795 0.0492247 -0.0192072)
(18.5194 -1.16432 -1.11603)
(20.7581 -0.832127 -0.749935)
(6.0094 -0.46561 -0.41108)
(5.72727 -0.309796 -0.91607)
(8.23606 -0.452359 -0.933134)
(10.3607 -0.411413 0.456836)
(9.38236 0.000469558 -0.797515)
(22.7571 -0.0811462 0.0519468)
(22.8032 -0.0682351 0.0466322)
(22.7253 0.0617111 0.0315214)
(22.7798 0.0569255 0.0295465)
(22.7272 0.0534419 -0.0256706)
(22.777 0.0496517 -0.0195489)
(18.3178 -1.1502 -1.0937)
(20.7348 -0.855174 -0.776298)
(5.93289 -0.458212 -0.415363)
(5.60472 -0.30321 -0.918617)
(8.1937 -0.442689 -0.928719)
(10.1958 -0.420558 0.452004)
(9.16638 0.00543004 -0.80538)
(22.7546 -0.0814586 0.052219)
(22.8012 -0.0689873 0.0468622)
(22.7225 0.0617208 0.0316558)
(22.7772 0.0573885 0.0295996)
(22.7246 0.0533242 -0.0257235)
(22.7745 0.050065 -0.019846)
(18.0902 -1.13219 -1.05965)
(20.7048 -0.878361 -0.801806)
(5.85392 -0.450838 -0.419784)
(5.47913 -0.296315 -0.921265)
(8.14789 -0.433611 -0.924688)
(10.0216 -0.43049 0.447857)
(8.97193 0.00898198 -0.812276)
(22.752 -0.0817293 0.0524773)
(22.7991 -0.0697251 0.0470894)
(22.7197 0.0616768 0.0317988)
(22.7746 0.0578168 0.0296667)
(22.7221 0.053173 -0.0257229)
(22.772 0.050459 -0.0201058)
(17.8407 -1.1247 -1.04779)
(20.6699 -0.901502 -0.826204)
(5.77296 -0.443424 -0.424344)
(8.09872 -0.425036 -0.921022)
(9.84422 -0.44065 0.444058)
(8.79325 0.0132981 -0.817975)
(22.7494 -0.081958 0.0527228)
(22.7971 -0.070447 0.0473137)
(22.7169 0.0615777 0.0319522)
(22.772 0.0582106 0.0297463)
(22.7196 0.0529835 -0.0256751)
(22.7694 0.0508275 -0.0203344)
(17.6024 -1.10695 -1.0177)
(20.6307 -0.923905 -0.849201)
(5.68947 -0.435998 -0.429057)
(8.04563 -0.416975 -0.917759)
(9.65803 -0.451669 0.440811)
(8.64928 0.0188952 -0.821111)
(22.7468 -0.0821448 0.0529567)
(22.7949 -0.0711519 0.0475361)
(22.7142 0.0614201 0.032119)
(22.7693 0.0585683 0.029839)
(22.7172 0.0527503 -0.0255856)
(22.7669 0.051164 -0.0205381)
(17.3524 -1.08111 -0.974753)
(20.5872 -0.946228 -0.871089)
(5.60362 -0.428533 -0.433931)
(7.98828 -0.409421 -0.914919)
(9.46476 -0.463076 0.438025)
(8.52378 0.0250822 -0.822944)
(22.7443 -0.08229 0.0531813)
(22.7928 -0.0718387 0.0477594)
(22.6931 0.0695681 0.090328)
(22.7115 0.0611962 0.0323066)
(22.7667 0.0588847 0.02995)
(22.8136 0.0483771 0.0294402)
(22.7148 0.0524696 -0.0254612)
(22.7643 0.0514656 -0.0207213)
(22.7535 -0.0744939 0.0108476)
(17.0758 -1.05216 -0.929702)
(20.5393 -0.967595 -0.891622)
(5.51527 -0.421042 -0.438972)
(7.92622 -0.402385 -0.912541)
(9.26299 -0.474711 0.435777)
(12.9696 -0.343082 0.582689)
(8.39699 0.0314073 -0.825056)
(22.7417 -0.0823942 0.0533987)
(22.7906 -0.0725056 0.047985)
(22.6907 0.0692692 0.0904248)
(22.7089 0.0608986 0.0325198)
(22.764 0.0591537 0.0300854)
(22.8116 0.0489281 0.0294515)
(22.7124 0.0521498 -0.0253176)
(22.7618 0.0517467 -0.0209098)
(22.5394 0.00829691 -0.0446872)
(22.7508 -0.0744464 0.0111136)
(22.8022 -0.0676001 0.00875947)
(16.7619 -1.03797 -0.899531)
(20.486 -0.987209 -0.911144)
(5.42435 -0.413497 -0.444157)
(7.32338 -0.60694 -0.380242)
(7.8589 -0.395816 -0.910641)
(9.05223 -0.486011 0.433904)
(12.8583 -0.344077 0.576289)
(8.2688 0.0377719 -0.827447)
(22.7392 -0.0824592 0.0536118)
(22.7884 -0.0731589 0.0482055)
(22.8207 -0.0561194 0.0434646)
(22.6883 0.0689632 0.0904958)
(22.7062 0.0605636 0.0327354)
(22.7614 0.0593976 0.0302189)
(22.8095 0.0494635 0.0294688)
(22.71 0.0518034 -0.0251719)
(22.7592 0.0520144 -0.0211181)
(22.8046 0.0424821 -0.0126)
(22.537 0.0080096 -0.0442465)
(22.5825 0.0143138 -0.0484951)
(22.7482 -0.0743613 0.0113984)
(22.7999 -0.0681472 0.00894718)
(16.4923 -0.999495 -0.854838)
(20.4163 -1.01291 -0.931985)
(5.33059 -0.405911 -0.449487)
(7.27725 -0.59566 -0.382948)
(7.78647 -0.389666 -0.90919)
(8.83369 -0.496588 0.432193)
(12.7439 -0.345302 0.56999)
(8.1414 0.0437642 -0.830063)
(22.7366 -0.0824947 0.0538122)
(22.7861 -0.0738019 0.0484206)
(22.8195 -0.0569456 0.0436096)
(22.6859 0.0686504 0.0905429)
(22.7291 0.0710452 0.0840237)
(22.7036 0.0602071 0.0329441)
(22.7587 0.059629 0.030337)
(22.8074 0.0499922 0.0294741)
(22.7077 0.0514373 -0.0250371)
(22.7566 0.052265 -0.0213484)
(22.8024 0.0430792 -0.0129389)
(22.5346 0.00772505 -0.0437903)
(22.5797 0.0140499 -0.0486717)
(22.7456 -0.0742446 0.0116886)
(22.7976 -0.0686725 0.00912839)
(16.2102 -0.947201 -0.803397)
(20.3381 -1.0389 -0.952212)
(5.23357 -0.398333 -0.45501)
(7.23001 -0.584792 -0.385699)
(7.70911 -0.383831 -0.908168)
(8.59929 -0.506882 0.430649)
(12.6269 -0.346834 0.56377)
(8.01353 0.0495472 -0.832918)
(22.7341 -0.082508 0.0539965)
(22.7838 -0.0744337 0.0486341)
(22.8182 -0.0577725 0.0437623)
(22.6836 0.0683315 0.0905677)
(22.7267 0.0711288 0.0844461)
(22.701 0.0598524 0.0331347)
(22.756 0.0598596 0.0304309)
(22.8053 0.050518 0.0294689)
(22.7053 0.0510482 -0.0249159)
(22.754 0.0524946 -0.0216032)
(22.8002 0.0436608 -0.0133075)
(22.5321 0.00744381 -0.0433168)
(22.5769 0.0137832 -0.0488299)
(22.743 -0.0741026 0.0119706)
(22.7952 -0.0691776 0.00929228)
(15.8574 -0.911451 -0.756479)
(20.2507 -1.06528 -0.97196)
(7.17973 -0.57436 -0.388478)
(7.62641 -0.378277 -0.907573)
(8.33785 -0.517613 0.429831)
(12.504 -0.348765 0.557769)
(7.88491 0.0552282 -0.835964)
(12.453 -0.10833 -0.677984)
(22.7315 -0.0824995 0.0541702)
(22.7815 -0.0750534 0.0488489)
(22.8169 -0.0586011 0.0439264)
(22.6813 0.0680073 0.0905718)
(22.7242 0.0712097 0.0848555)
(22.6984 0.0594908 0.0333194)
(22.7533 0.0600864 0.0305102)
(22.8031 0.0510438 0.0294556)
(22.703 0.0506326 -0.0248102)
(22.7515 0.0526995 -0.0218845)
(22.798 0.0442239 -0.0137097)
(22.5297 0.0071667 -0.0428282)
(22.574 0.0135098 -0.0489543)
(22.7404 -0.0739378 0.0122376)
(22.7927 -0.069665 0.00943426)
(15.5433 -0.844185 -0.711454)
(20.1555 -1.09154 -0.991092)
(7.12577 -0.564373 -0.39129)
(7.53858 -0.372975 -0.907374)
(8.03904 -0.529882 0.430363)
(12.3795 -0.3512 0.551883)
(7.75477 0.0613216 -0.839273)
(12.3104 -0.110288 -0.688898)
(22.729 -0.0824691 0.0543387)
(22.7792 -0.0756603 0.0490687)
(22.8155 -0.0594303 0.0441029)
(22.679 0.0676788 0.0905569)
(22.7217 0.0712896 0.0852515)
(22.6957 0.0591192 0.033506)
(22.7505 0.0603093 0.0305814)
(22.8009 0.0515728 0.0294363)
(22.7007 0.0501873 -0.0247222)
(22.7489 0.052876 -0.0221949)
(22.7958 0.0447655 -0.0141494)
(22.5272 0.00689391 -0.0423148)
(22.5712 0.0132289 -0.0490353)
(22.7378 -0.0737518 0.0124828)
(22.7903 -0.0701361 0.00954881)
(20.0482 -1.11823 -1.01007)
(7.06797 -0.554813 -0.394156)
(7.4454 -0.367945 -0.907582)
(7.69901 -0.543898 0.432333)
(12.253 -0.35389 0.546073)
(7.62591 0.0678218 -0.84272)
(12.1379 -0.109253 -0.701865)
(22.7264 -0.0824169 0.0545074)
(22.7768 -0.0762532 0.049297)
(22.8141 -0.0602592 0.0442946)
(22.6768 0.0673466 0.0905239)
(22.7192 0.0713651 0.0856355)
(22.6931 0.058737 0.0336995)
(22.7478 0.06053 0.0306476)
(22.7986 0.0521078 0.0294143)
(22.6984 0.0497093 -0.0246554)
(22.7463 0.053021 -0.0225375)
(22.7936 0.0452826 -0.0146312)
(22.5247 0.00662819 -0.0417741)
(22.5685 0.0129419 -0.0490719)
(22.7352 -0.0735466 0.0126989)
(22.7878 -0.0705918 0.0096299)
(19.9334 -1.1436 -1.03013)
(7.00652 -0.545627 -0.39709)
(7.34642 -0.36316 -0.908207)
(7.30668 -0.561602 0.436452)
(12.1213 -0.356719 0.540341)
(7.49716 0.0744813 -0.846448)
(11.9351 -0.104958 -0.716491)
(22.7239 -0.0823429 0.0546811)
(22.7744 -0.0768313 0.0495376)
(22.8126 -0.061087 0.0445027)
(22.6995 0.0255335 0.110943)
(22.6746 0.0670128 0.0904727)
(22.7167 0.0714126 0.0860126)
(22.6906 0.0583459 0.0339035)
(22.745 0.0607496 0.0307139)
(22.7964 0.0526525 0.029392)
(22.6962 0.0491964 -0.0246138)
(22.7438 0.0531317 -0.0229157)
(22.7913 0.0457725 -0.0151594)
(22.5223 0.00637019 -0.0412057)
(22.5659 0.0126497 -0.0490634)
(22.7326 -0.0733237 0.0128783)
(22.7853 -0.071033 0.00967167)
(19.8165 -1.16653 -1.05093)
(6.94186 -0.536747 -0.4001)
(7.24242 -0.358497 -0.909179)
(6.86474 -0.583515 0.442802)
(11.9866 -0.360069 0.534598)
(7.36644 0.0813465 -0.850606)
(11.7019 -0.0967487 -0.731721)
(22.7214 -0.0822473 0.0548647)
(22.772 -0.0773936 0.0497947)
(22.8111 -0.0619139 0.0447302)
(22.6553 0.0209992 0.114453)
(22.6969 0.0254384 0.111357)
(22.6725 0.0666814 0.0904028)
(22.7142 0.0714321 0.0863801)
(22.688 0.0579469 0.0341234)
(22.7423 0.0609709 0.0307841)
(22.7941 0.0532106 0.0293726)
(22.694 0.0486464 -0.0246023)
(22.7412 0.0532051 -0.0233335)
(22.7891 0.0462317 -0.0157396)
(22.52 0.00612016 -0.04061)
(22.5632 0.0123535 -0.0490093)
(22.7301 -0.0730838 0.0130134)
(22.7828 -0.0714599 0.00966823)
(22.8247 -0.0579227 0.00758367)
(19.6953 -1.1858 -1.06949)
(20.7515 -0.571926 -0.386893)
(6.87394 -0.528168 -0.403196)
(7.13415 -0.353868 -0.910419)
(8.90957 -0.538556 -1.00236)
(6.36915 -0.611814 0.451716)
(11.8513 -0.363647 0.528826)
(7.23242 0.0881166 -0.855393)
(11.4372 -0.0839158 -0.747676)
(22.7189 -0.0821305 0.0550639)
(22.7696 -0.0779386 0.0500729)
(22.8095 -0.0627379 0.0449784)
(22.6531 0.0205962 0.114353)
(22.6943 0.0253472 0.11174)
(22.6705 0.0663132 0.0903239)
(22.7117 0.0714231 0.0867361)
(22.7494 0.0687701 0.0756241)
(22.6855 0.0575416 0.0343639)
(22.7396 0.0611966 0.030863)
(22.7918 0.0537868 0.0293583)
(22.6919 0.0480574 -0.0246264)
(22.7388 0.0532364 -0.023803)
(22.7869 0.0466497 -0.0163942)
(22.5176 0.00587811 -0.0399869)
(22.5607 0.012054 -0.0489088)
(22.7276 -0.0728274 0.013097)
(22.7802 -0.0718723 0.00961389)
(22.8231 -0.0587344 0.0074753)
(19.5778 -1.20268 -1.09132)
(20.7623 -0.601066 -0.424995)
(6.80292 -0.519844 -0.406389)
(7.02234 -0.349231 -0.911897)
(8.93605 -0.519233 -0.990778)
(5.8422 -0.646438 0.463754)
(11.7108 -0.367628 0.523152)
(7.09263 0.0948216 -0.861051)
(11.1404 -0.0659077 -0.764047)
(22.7165 -0.0819928 0.0552848)
(22.7671 -0.0784652 0.0503762)
(22.8079 -0.0635603 0.045254)
(22.6508 0.0202032 0.114213)
(22.6917 0.0252577 0.112089)
(22.6684 0.0659085 0.0902346)
(22.7091 0.071385 0.087079)
(22.7474 0.0689863 0.0762535)
(22.6831 0.0571319 0.0346303)
(22.7369 0.0614298 0.0309567)
(22.7895 0.0543858 0.0293503)
(22.69 0.0474257 -0.0247045)
(22.7364 0.0532305 -0.0242994)
(22.7847 0.0470607 -0.0170303)
(22.5153 0.00564362 -0.0393357)
(22.5582 0.0117521 -0.048761)
(22.7252 -0.0725546 0.0131225)
(22.7777 -0.0722706 0.00950196)
(22.8214 -0.0595515 0.0073125)
(19.4577 -1.21666 -1.11294)
(20.774 -0.628903 -0.462269)
(6.72914 -0.511737 -0.409682)
(6.9069 -0.344532 -0.913586)
(8.95507 -0.501144 -0.979991)
(5.30978 -0.686438 0.477555)
(11.5676 -0.371966 0.517412)
(6.94758 0.101201 -0.867676)
(10.8084 -0.0415714 -0.780552)
(22.7142 -0.0818346 0.0555332)
(22.7647 -0.078973 0.0507141)
(22.8063 -0.0643759 0.045523)
(22.6486 0.0198185 0.114032)
(22.6891 0.0251674 0.112405)
(22.6663 0.065468 0.0901334)
(22.7066 0.0713175 0.0874069)
(22.7453 0.0691851 0.0768759)
(22.6807 0.0567294 0.034931)
(22.7343 0.0616794 0.0310671)
(22.7872 0.0550171 0.0293477)
(22.688 0.0467561 -0.0247968)
(22.7339 0.0532163 -0.0247073)
(22.7824 0.0474835 -0.0175895)
(22.5131 0.00541678 -0.038657)
(22.5558 0.0114482 -0.0485648)
(22.7229 -0.0722658 0.0130819)
(22.7752 -0.0726584 0.00930747)
(22.8197 -0.0603581 0.00717249)
(19.3283 -1.2265 -1.13337)
(20.7817 -0.653746 -0.497542)
(6.65303 -0.503789 -0.413072)
(6.78916 -0.339687 -0.9154)
(8.96669 -0.484248 -0.969981)
(4.8299 -0.726139 0.49125)
(11.4199 -0.376773 0.511634)
(6.79674 0.106996 -0.875436)
(10.4359 -0.00966203 -0.797192)
(22.7119 -0.0816575 0.0558175)
(22.7623 -0.0794518 0.0510542)
(22.8046 -0.0651834 0.0457865)
(22.4415 -0.0728762 0.0635259)
(22.6464 0.0194395 0.11381)
(22.6865 0.0250737 0.112689)
(22.6642 0.0649924 0.0900183)
(22.704 0.0712202 0.0877181)
(22.7431 0.0693668 0.0774896)
(22.6784 0.0562923 0.035239)
(22.7316 0.0618893 0.0311848)
(22.7849 0.0556211 0.0293603)
(22.6861 0.0460729 -0.0248066)
(22.7314 0.0531896 -0.0250328)
(22.78 0.0479127 -0.0180786)
(22.5109 0.00519708 -0.0379501)
(22.5534 0.0111426 -0.0483196)
(22.7207 -0.0719656 0.0129468)
(22.7727 -0.0730179 0.0091141)
(22.8179 -0.061144 0.00708086)
(19.188 -1.23157 -1.15044)
(20.79 -0.67506 -0.531175)
(6.57463 -0.495982 -0.416589)
(6.66868 -0.334691 -0.917355)
(8.96147 -0.46962 -0.96157)
(4.46532 -0.758427 0.50051)
(11.2661 -0.382383 0.505912)
(6.63946 0.111646 -0.884527)
(10.1094 0.00831024 -0.811071)
(22.7096 -0.0814347 0.0560733)
(22.7598 -0.0798927 0.0513765)
(22.8028 -0.065981 0.046044)
(22.4394 -0.0727617 0.0630238)
(22.6442 0.0190645 0.113547)
(22.6839 0.0249736 0.112939)
(22.6622 0.0644825 0.0898875)
(22.7015 0.0710926 0.0880111)
(22.741 0.0695307 0.0780942)
(22.676 0.0558062 0.0355359)
(22.7289 0.0620508 0.0313066)
(22.7824 0.0561885 0.0293892)
(22.6841 0.0453745 -0.024739)
(22.7289 0.053146 -0.0252828)
(22.7776 0.0483436 -0.0185048)
(22.5087 0.00498375 -0.0372141)
(22.551 0.0108352 -0.0480244)
(22.7185 -0.071634 0.0128662)
(22.7702 -0.0733316 0.0089959)
(22.8161 -0.0619083 0.00703314)
(19.0311 -1.23193 -1.16072)
(20.799 -0.692765 -0.563781)
(6.49422 -0.488299 -0.420226)
(6.54466 -0.329542 -0.919513)
(8.94439 -0.456646 -0.954462)
(11.1109 -0.38872 0.5)
(6.47358 0.115029 -0.895207)
(9.84929 0.0150201 -0.821652)
(22.7073 -0.0811654 0.0562985)
(22.7573 -0.0802941 0.0516822)
(22.8009 -0.0667676 0.0462972)
(22.4374 -0.0726262 0.0625082)
(22.642 0.0186908 0.113243)
(22.6813 0.0248628 0.113155)
(22.7198 0.0256861 0.102859)
(22.6601 0.0639389 0.089739)
(22.699 0.070934 0.0882847)
(22.7388 0.0696817 0.0786835)
(22.6736 0.0552704 0.035821)
(22.7261 0.0621625 0.0314333)
(22.7799 0.0567201 0.0294335)
(22.6821 0.0446595 -0.0245994)
(22.7263 0.0530817 -0.025464)
(22.7751 0.0487713 -0.0188766)
(22.5065 0.00477608 -0.0364481)
(22.5487 0.0105287 -0.0477007)
(22.7162 -0.0712709 0.0128641)
(22.7676 -0.0735985 0.00894775)
(22.8142 -0.0626507 0.0070273)
(18.8522 -1.22719 -1.15898)
(20.8033 -0.71338 -0.596821)
(6.41183 -0.480769 -0.423994)
(6.41832 -0.324124 -0.921781)
(8.92132 -0.444539 -0.947836)
(10.95 -0.396155 0.494045)
(9.64063 0.0190425 -0.828941)
(22.7049 -0.0808501 0.0564945)
(22.7547 -0.0806552 0.0519721)
(22.799 -0.0675422 0.0465458)
(22.4353 -0.0724794 0.061974)
(22.6398 0.018315 0.1129)
(22.6788 0.0247379 0.11334)
(22.7176 0.0258043 0.103449)
(22.6581 0.0633624 0.0895712)
(22.6964 0.0707433 0.0885378)
(22.7366 0.0698215 0.0792553)
(22.6711 0.0546843 0.0360944)
(22.7233 0.0622233 0.0315653)
(22.7774 0.0572169 0.0294916)
(22.6801 0.0439266 -0.0243939)
(22.7238 0.0529928 -0.0255833)
(22.7726 0.0491909 -0.0192012)
(22.5044 0.00457696 -0.0356742)
(22.5465 0.0102234 -0.0473509)
(22.7139 -0.0708762 0.0129367)
(22.7649 -0.073818 0.00896394)
(22.8122 -0.0633705 0.00705999)
(18.674 -1.22473 -1.16994)
(20.802 -0.738346 -0.630767)
(6.32826 -0.473348 -0.427862)
(6.2884 -0.318494 -0.92428)
(8.89168 -0.433282 -0.941708)
(10.7823 -0.404572 0.488251)
(9.4683 0.0219961 -0.834067)
(22.7025 -0.0804895 0.0566628)
(22.7521 -0.0809754 0.0522469)
(22.7971 -0.0683038 0.0467896)
(22.4332 -0.0723167 0.0614239)
(22.6377 0.0179329 0.112518)
(22.6763 0.024599 0.113494)
(22.7154 0.0259104 0.104023)
(22.6561 0.0627523 0.0893834)
(22.694 0.0705207 0.0887683)
(22.7343 0.0699488 0.0798106)
(22.6686 0.054048 0.0363555)
(22.7205 0.0622325 0.0317033)
(22.7748 0.05768 0.0295631)
(22.6781 0.0431748 -0.0241287)
(22.7212 0.0528758 -0.0256472)
(22.77 0.049598 -0.0194861)
(22.5023 0.00438635 -0.0348939)
(22.5442 0.00991942 -0.0469758)
(22.7116 -0.0704495 0.0130777)
(22.7623 -0.0739903 0.00903843)
(22.8101 -0.0640672 0.00712679)
(18.491 -1.21887 -1.17363)
(20.7948 -0.765947 -0.664785)
(7.03127 0.306311 0.135156)
(6.24375 -0.465983 -0.43183)
(6.15564 -0.312608 -0.926961)
(8.85541 -0.422861 -0.936094)
(10.6124 -0.413457 0.482695)
(9.29451 0.0250276 -0.839547)
(22.7001 -0.0800853 0.0568045)
(22.7495 -0.0812543 0.0525073)
(22.7951 -0.0690515 0.0470301)
(22.4311 -0.0721337 0.0608607)
(22.6356 0.0175404 0.1121)
(22.6737 0.0244466 0.113616)
(22.7132 0.0259986 0.104585)
(22.6542 0.0621095 0.0891739)
(22.6915 0.0702749 0.0889729)
(22.732 0.0700655 0.0803489)
(22.6661 0.053361 0.0366067)
(22.7177 0.0621882 0.0318497)
(22.7721 0.0581099 0.0296474)
(22.676 0.0424025 -0.0238091)
(22.7187 0.0527267 -0.0256616)
(22.7675 0.0499871 -0.0197378)
(22.5003 0.00420337 -0.0341064)
(22.5419 0.00961899 -0.0465949)
(22.7092 -0.0699915 0.0132807)
(22.7596 -0.0741159 0.00916486)
(22.8081 -0.0647409 0.00722437)
(18.2815 -1.20769 -1.16167)
(20.7808 -0.793727 -0.697899)
(6.82616 0.325963 0.132984)
(6.15706 -0.458672 -0.435952)
(6.01982 -0.306412 -0.929763)
(8.8148 -0.413087 -0.930897)
(10.4364 -0.423025 0.477472)
(9.14344 0.0289788 -0.843293)
(22.6977 -0.0796387 0.0569205)
(22.7469 -0.0814916 0.0527541)
(22.793 -0.0697838 0.0472668)
(22.429 -0.0719245 0.0602895)
(22.6336 0.0171374 0.11165)
(22.6712 0.0242779 0.11371)
(22.7109 0.0260662 0.105137)
(22.6523 0.0614337 0.0889419)
(22.6891 0.0700092 0.0891508)
(22.7296 0.0701777 0.0808678)
(22.6637 0.0526235 0.0368497)
(22.7149 0.0620897 0.0320059)
(22.7694 0.0585061 0.029744)
(22.674 0.0416084 -0.0234409)
(22.7162 0.0525409 -0.0256318)
(22.7649 0.0503528 -0.0199612)
(22.4982 0.00402931 -0.0333167)
(22.5397 0.00932168 -0.0462065)
(22.7569 -0.0741958 0.00933648)
(22.8059 -0.0653918 0.00734887)
(18.0421 -1.19107 -1.13402)
(20.7592 -0.821537 -0.729859)
(6.61292 0.346311 0.130845)
(6.0686 -0.451322 -0.440237)
(5.88043 -0.299877 -0.932696)
(8.76973 -0.404021 -0.926172)
(10.257 -0.433069 0.472407)
(14.1613 -0.344971 0.600933)
(9.01533 0.0337947 -0.845324)
(22.6953 -0.0791512 0.0570128)
(22.7443 -0.081687 0.0529884)
(22.7909 -0.0704998 0.047501)
(22.4268 -0.0716878 0.0597098)
(22.6687 0.02409 0.113781)
(22.7085 0.0261108 0.105683)
(22.6504 0.0607346 0.0886841)
(22.6867 0.0697331 0.0892993)
(22.7273 0.0702848 0.0813692)
(22.6612 0.0518341 0.0370888)
(22.7122 0.0619345 0.0321739)
(22.7668 0.0588678 0.0298516)
(22.672 0.0407893 -0.0230281)
(22.7138 0.0523136 -0.0255631)
(22.7624 0.0506891 -0.0201618)
(22.4961 0.00386673 -0.0325394)
(22.5374 0.00902703 -0.0458088)
(22.7542 -0.0742318 0.00954637)
(22.8037 -0.06602 0.00749579)
(17.7714 -1.17255 -1.09893)
(20.7297 -0.849247 -0.760509)
(6.39109 0.367321 0.128826)
(5.97817 -0.443916 -0.444691)
(5.73826 -0.292952 -0.935724)
(8.72022 -0.395612 -0.921896)
(10.0716 -0.444013 0.467662)
(14.0499 -0.343572 0.595991)
(8.89332 0.0389981 -0.846993)
(22.693 -0.0786244 0.0570834)
(22.7417 -0.0818406 0.0532123)
(22.7888 -0.0711987 0.0477351)
(22.4246 -0.0714204 0.0591236)
(22.6662 0.0238797 0.113831)
(22.7062 0.0261303 0.106225)
(22.6485 0.0600205 0.0883993)
(22.6842 0.0694489 0.0894193)
(22.7249 0.0703873 0.0818539)
(22.6587 0.05099 0.0373281)
(22.7094 0.061716 0.0323593)
(22.7641 0.059191 0.0299734)
(22.6701 0.0399418 -0.022575)
(22.7114 0.0520413 -0.0254598)
(22.7598 0.0509939 -0.0203452)
(22.494 0.00371598 -0.0317718)
(22.5351 0.00873462 -0.0453999)
(22.7515 -0.0742258 0.00978794)
(22.8015 -0.0666262 0.0076612)
(17.4767 -1.16411 -1.0864)
(20.6918 -0.877211 -0.790185)
(6.1607 0.388894 0.127043)
(5.88601 -0.436418 -0.449319)
(5.59328 -0.285598 -0.938835)
(8.6663 -0.387772 -0.918067)
(9.87966 -0.455806 0.463288)
(13.931 -0.342584 0.591106)
(8.76917 0.0443759 -0.848981)
(22.6906 -0.0780604 0.0571354)
(22.7391 -0.0819528 0.0534281)
(22.7866 -0.0718796 0.0479706)
(22.4224 -0.0711191 0.0585334)
(22.6637 0.0236445 0.113865)
(22.7038 0.0261226 0.106764)
(22.6467 0.0592959 0.0880877)
(22.6819 0.0691566 0.0895127)
(22.7224 0.0704851 0.0823236)
(22.6563 0.0500875 0.0375725)
(22.7068 0.0614261 0.0325687)
(22.7614 0.0594681 0.0301187)
(22.6681 0.0390625 -0.0220867)
(22.709 0.0517331 -0.0253397)
(22.7572 0.0512825 -0.0205413)
(22.4919 0.00357724 -0.0310109)
(22.5327 0.00844446 -0.0449781)
(22.7488 -0.0741802 0.0100547)
(22.7993 -0.0672109 0.00783944)
(17.1951 -1.14016 -1.04609)
(20.6464 -0.905257 -0.818659)
(5.92365 0.41038 0.125886)
(5.79203 -0.428816 -0.454129)
(7.8321 -0.615663 -0.396416)
(5.44615 -0.277749 -0.94197)
(8.60643 -0.380599 -0.914796)
(9.68065 -0.467932 0.459257)
(13.8082 -0.342107 0.586219)
(8.64218 0.0497811 -0.851308)
(12.7729 -0.0330275 -0.71591)
(22.6882 -0.0774617 0.0571729)
(22.7365 -0.0820253 0.0536386)
(22.7844 -0.0725462 0.0482006)
(22.4202 -0.0707801 0.0579414)
(22.6612 0.0233818 0.113885)
(22.7013 0.0260852 0.107302)
(22.6449 0.05857 0.0877486)
(22.6795 0.0688569 0.0895807)
(22.72 0.0705787 0.082779)
(22.654 0.0491344 0.0378237)
(22.7041 0.0611013 0.0327785)
(22.7587 0.0597208 0.0302624)
(22.6662 0.0381576 -0.0215798)
(22.7066 0.0514028 -0.025225)
(22.7546 0.051555 -0.020758)
(22.4898 0.00345101 -0.0302541)
(22.5304 0.00815685 -0.0445414)
(22.7462 -0.0740981 0.010339)
(22.797 -0.0677738 0.00802076)
(16.8904 -1.10722 -0.995825)
(20.5962 -0.932483 -0.845514)
(5.69469 0.42777 0.128275)
(5.69607 -0.421096 -0.459129)
(7.78081 -0.603454 -0.39896)
(5.32033 -0.268757 -0.944043)
(8.54036 -0.374037 -0.912099)
(9.47964 -0.479816 0.455254)
(13.6777 -0.342342 0.581531)
(8.51388 0.0551237 -0.853813)
(12.7407 -0.0377889 -0.712486)
(22.6859 -0.0768368 0.0571959)
(22.7339 -0.0820685 0.0538354)
(22.7822 -0.0732012 0.0484259)
(22.4179 -0.070398 0.0573506)
(22.6588 0.0230893 0.113896)
(22.6989 0.0260162 0.107841)
(22.6431 0.0578456 0.0873822)
(22.6772 0.06855 0.0896252)
(22.7175 0.0706688 0.0832208)
(22.6516 0.0481599 0.0380666)
(22.7015 0.0607585 0.0329795)
(22.756 0.0599627 0.0303898)
(22.6643 0.0372384 -0.0210733)
(22.7043 0.0510501 -0.0251208)
(22.752 0.0518075 -0.0209974)
(22.4877 0.00333786 -0.0294985)
(22.528 0.00787223 -0.044088)
(22.7436 -0.0739839 0.0106286)
(22.7946 -0.0683137 0.00819839)
(16.5249 -1.0876 -0.958828)
(20.5405 -0.959456 -0.871109)
(5.49116 0.436996 0.136247)
(5.59802 -0.413256 -0.464321)
(7.72968 -0.591686 -0.401479)
(5.19903 -0.259201 -0.946166)
(8.46791 -0.368062 -0.909984)
(9.26669 -0.491784 0.451548)