/*--------------------------------*- C++ -*----------------------------------*\
| =========                 |                                                 |
| \\      /  F ield         | OpenFOAM: The Open Source CFD Toolbox           |
|  \\    /   O peration     | Version:  2.1.1                                 |
|   \\  /    A nd           | Web:      www.OpenFOAM.org                      |
|    \\/     M anipulation  |                                                 |
\*---------------------------------------------------------------------------*/
FoamFile
{
    version     2.0;
    format      ascii;
    class       Cloud<solidParticle>;
    location    "0.00135";
    object      positions;
}
// * * * * * * * * * * * * * * * * * * * * * * * * * * * * * * * * * * * * * //

44454
(
(0.000600302 0.00898916 0.00101278) 20041
(0.024436 0.00609999 0.00187121) 13488
(0.0243529 0.00610588 0.00187794) 13488
(0.0242635 0.0061126 0.00188541) 13488
(0.0241708 0.00611996 0.00189347) 13488
(0.0240735 0.0061281 0.00190219) 13488
(0.0239713 0.00613696 0.00191151) 13487
(0.0238631 0.00614661 0.00192143) 13487
(0.0237512 0.00615671 0.0019315) 13487
(0.0236344 0.00616724 0.00194174) 13487
(0.0235122 0.00617809 0.00195197) 13487
(0.0233845 0.006189 0.00196172) 13486
(0.0232501 0.00620008 0.00197085) 13486
(0.0231087 0.00621141 0.00197909) 13486
(0.0229625 0.00622305 0.00198628) 13485
(0.0228128 0.00623499 0.00199244) 13485
(0.0226597 0.00624735 0.00199766) 13485
(0.0250556 0.00606483 0.00182324) 13490
(0.0249913 0.00606562 0.00182496) 13489
(0.0249243 0.00606683 0.00182677) 13489
(0.0248547 0.00606863 0.00182923) 13489
(0.0247822 0.00607101 0.00183231) 13489
(0.0247059 0.00607409 0.00183618) 13489
(0.0246254 0.00607791 0.0018408) 13489
(0.0245411 0.00608236 0.0018459) 13489
(0.0244508 0.00608771 0.00185174) 13488
(0.0243576 0.00609391 0.00185833) 13488
(0.0242586 0.00610116 0.00186589) 13488
(0.0241556 0.00610935 0.0018743) 13488
(0.0240474 0.00611851 0.0018833) 13488
(0.0239345 0.00612865 0.00189308) 13487
(0.0238166 0.0061397 0.00190358) 13487
(0.0236952 0.00615131 0.0019144) 13487
(0.0235672 0.00616342 0.00192538) 13487
(0.0234339 0.00617559 0.00193587) 13486
(0.0255596 0.00607638 0.00181794) 13491
(0.0232928 0.006188 0.00194573) 13486
(0.025506 0.00607164 0.00181543) 13491
(0.0181994 0.00292905 0.00335589) 32257
(0.0231468 0.00620037 0.00195436) 13486
(0.0254505 0.00606759 0.00181353) 13490
(0.0180391 0.00292352 0.00335628) 32257
(0.0229937 0.00621307 0.00196179) 13485
(0.0253928 0.00606404 0.00181166) 13490
(0.0178716 0.00291813 0.00335703) 32113
(0.0228359 0.006226 0.00196776) 13485
(0.0253332 0.00606097 0.00180974) 13490
(0.0176889 0.00291217 0.00335845) 32113
(0.0226719 0.00623971 0.00197268) 13485
(0.0252716 0.00605861 0.00180844) 13490
(0.0174878 0.00290533 0.00336067) 31969
(0.0225002 0.00625415 0.00197645) 13485
(0.0252075 0.00605696 0.00180782) 13490
(0.0172656 0.00289727 0.00336385) 31969
(0.0251405 0.00605602 0.00180789) 13490
(0.0170223 0.0028878 0.00336799) 31969
(0.0250709 0.00605555 0.00180805) 13490
(0.0167565 0.00287643 0.00337319) 31825
(0.0249982 0.00605568 0.00180862) 13489
(0.0164712 0.00286285 0.00337952) 31681
(0.024922 0.00605664 0.00181015) 13489
(0.0161709 0.00284689 0.00338696) 31681
(0.0248411 0.00605848 0.00181262) 13489
(0.0158663 0.00282873 0.0033952) 31537
(0.0247554 0.00606112 0.00181595) 13489
(0.0246671 0.0060645 0.00181968) 13489
(0.024572 0.00606908 0.00182455) 13489
(0.024472 0.00607482 0.0018306) 13488
(0.0197235 0.00296659 0.0033627) 32689
(0.0243667 0.00608172 0.00183765) 13488
(0.0196193 0.00296293 0.00335917) 32689
(0.0242553 0.00608979 0.00184529) 13488
(0.0195106 0.00295898 0.00335612) 32689
(0.024138 0.00609937 0.00185422) 13488
(0.0193945 0.00295448 0.00335368) 32545
(0.0240147 0.00611046 0.00186434) 13488
(0.0259358 0.00612432 0.00183933) 13491
(0.019274 0.00294967 0.00335158) 32545
(0.0238855 0.00612278 0.00187525) 13487
(0.0258906 0.00611449 0.0018332) 13491
(0.0191464 0.00294441 0.0033499) 32545
(0.02375 0.00613623 0.00188681) 13487
(0.0258431 0.00610517 0.00182765) 13491
(0.0190129 0.00293886 0.0033486) 32545
(0.0236085 0.00615054 0.00189889) 13487
(0.0257932 0.00609652 0.00182287) 13491
(0.0188735 0.00293303 0.00334766) 32401
(0.023461 0.00616506 0.00191075) 13486
(0.0257412 0.00608816 0.00181776) 13491
(0.0187279 0.00292712 0.00334704) 32401
(0.023304 0.00617968 0.00192183) 13486
(0.0256873 0.00608044 0.00181283) 13491
(0.018574 0.00292111 0.00334676) 32401
(0.023138 0.00619458 0.00193162) 13486
(0.0256308 0.00607349 0.0018085) 13491
(0.0184135 0.00291526 0.0033467) 32257
(0.0229642 0.00620979 0.00193962) 13485
(0.0255714 0.0060674 0.00180496) 13491
(0.0182452 0.00290959 0.00334689) 32257
(0.0227794 0.00622568 0.00194592) 13485
(0.0255094 0.00606201 0.00180176) 13491
(0.0180607 0.0029033 0.00334781) 32257
(0.0225832 0.00624288 0.00195102) 13485
(0.0254452 0.00605723 0.00179822) 13490
(0.0178565 0.00289604 0.00334958) 32113
(0.0223727 0.00626118 0.00195425) 13484
(0.0253779 0.00605336 0.00179549) 13490
(0.0176305 0.00288755 0.0033523) 32113
(0.0253073 0.00605038 0.00179356) 6050
(0.0173827 0.00287759 0.00335603) 31969
(0.0252334 0.00604825 0.00179249) 6050
(0.0171108 0.00286567 0.00336083) 31969
(0.0251557 0.00604673 0.00179143) 6050
(0.0172554 0.0045362 0.000865712) 11554
(0.0168202 0.00285154 0.00336679) 31825
(0.0250733 0.00604611 0.00179104) 6050
(0.0172132 0.00454377 0.000862881) 11554
(0.0165133 0.00283458 0.00337408) 31825
(0.020622 0.00297879 0.00338071) 32977
(0.0249865 0.00604649 0.00179183) 6049
(0.0171691 0.00455113 0.000859957) 11554
(0.0162042 0.00281534 0.00338207) 31681
(0.0205334 0.00297664 0.00337559) 32977
(0.024895 0.00604796 0.00179393) 6049
(0.0171236 0.0045583 0.000857002) 11554
(0.01591 0.00279474 0.00339021) 31537
(0.0204414 0.00297421 0.00337064) 32833
(0.0247982 0.00605029 0.00179643) 13489
(0.0170768 0.0045653 0.000854026) 11554
(0.0203453 0.00297142 0.00336589) 32833
(0.0246954 0.00605385 0.00180006) 13489
(0.0170287 0.00457211 0.000851015) 11554
(0.0202445 0.00296825 0.00336138) 32833
(0.0245869 0.00605899 0.00180546) 13489
(0.0169794 0.00457874 0.000847979) 11553
(0.020139 0.00296468 0.00335715) 32833
(0.0244704 0.00606577 0.00181221) 13488
(0.0262417 0.00619839 0.00188369) 13492
(0.0169289 0.0045852 0.000844912) 11553
(0.0200295 0.00296074 0.00335321) 32833
(0.0243487 0.00607395 0.00181967) 13488
(0.0262022 0.00618528 0.00187404) 13492
(0.0168773 0.00459149 0.000841818) 11553
(0.0199145 0.00295631 0.00334976) 32689
(0.024219 0.0060842 0.00182898) 13488
(0.0261607 0.00617202 0.00186441) 13492
(0.016824 0.00459761 0.00083868) 11553
(0.0197943 0.00295139 0.00334683) 32689
(0.0240817 0.00609651 0.00183989) 13488
(0.0261171 0.00615932 0.00185602) 13492
(0.0167687 0.00460363 0.000835486) 11553
(0.0196696 0.00294603 0.0033442) 32689
(0.0239357 0.00611066 0.0018518) 13487
(0.0260711 0.0061469 0.00184839) 13492
(0.0167118 0.00460957 0.000832231) 11553
(0.0195382 0.00294011 0.00334196) 32689
(0.0237828 0.00612649 0.00186466) 13487
(0.0260234 0.0061345 0.00184031) 13492
(0.016653 0.00461544 0.000828909) 11553
(0.0194029 0.00293395 0.00333998) 32545
(0.0236228 0.00614353 0.00187838) 13487
(0.0259731 0.00612248 0.00183253) 13491
(0.0192621 0.00292745 0.00333835) 32545
(0.0234527 0.00616106 0.00189198) 13486
(0.02592 0.00611119 0.00182555) 13491
(0.0191163 0.00292094 0.00333696) 32545
(0.0232708 0.00617866 0.00190446) 13486
(0.025864 0.00610067 0.00181958) 13491
(0.0189636 0.00291448 0.0033358) 32401
(0.0230767 0.00619664 0.0019151) 13486
(0.0258054 0.00609048 0.00181318) 13491
(0.0183302 0.00511268 0.000504189) 7836
(0.018804 0.00290818 0.00333481) 32401
(0.022868 0.00621523 0.00192327) 13485
(0.0257437 0.00608117 0.00180707) 13491
(0.0182746 0.0051189 0.000506126) 7836
(0.0186364 0.00290224 0.00333394) 32401
(0.0226439 0.00623528 0.0019296) 13485
(0.025679 0.00607283 0.00180172) 13491
(0.0182163 0.00512485 0.000507795) 7836
(0.0184516 0.00289576 0.0033337) 32257
(0.0223992 0.00625734 0.00193396) 13484
(0.0256108 0.0060655 0.0017973) 13491
(0.0179922 0.00450158 0.000864533) 11555
(0.0181557 0.00513061 0.000509242) 7836
(0.0182467 0.00288845 0.00333422) 32257
(0.0215418 0.00298943 0.00340813) 33265
(0.0255387 0.0060589 0.00179258) 13491
(0.0179519 0.0045099 0.000861964) 11555
(0.0180923 0.00513618 0.000510337) 7836
(0.0180185 0.00287982 0.00333558) 32257
(0.0214593 0.00298839 0.00340208) 33121
(0.0254632 0.00605329 0.00178814) 6050
(0.0179096 0.0045179 0.000859405) 11555
(0.0180265 0.00514158 0.00051122) 7836
(0.0177656 0.0028695 0.00333807) 32113
(0.021375 0.00298722 0.00339616) 33121
(0.0253843 0.00604894 0.00178486) 6050
(0.0178653 0.00452563 0.000856843) 11555
(0.0179586 0.00514687 0.000511922) 7835
(0.0174861 0.00285679 0.00334181) 31969
(0.0212884 0.00298586 0.00339037) 33121
(0.0253013 0.00604571 0.00178269) 6050
(0.0178192 0.00453315 0.000854272) 11555
(0.0178887 0.00515207 0.000512461) 7835
(0.0171824 0.00284107 0.00334698) 31969
(0.0211989 0.00298426 0.00338473) 33121
(0.025213 0.00604329 0.00178056) 6050
(0.0177716 0.00454044 0.000851687) 11555
(0.0178166 0.00515721 0.000512837) 7835
(0.0168658 0.0028226 0.00335352) 31825
(0.0211063 0.00298242 0.00337921) 33121
(0.0251207 0.00604187 0.00177895) 6050
(0.0177224 0.00454753 0.000849085) 11555
(0.0177427 0.00516235 0.00051309) 7835
(0.0165471 0.00280128 0.00336107) 31825
(0.0210102 0.00298026 0.00337378) 33121
(0.017215 0.0036967 0.00346209) 14494
(0.0250213 0.00604185 0.00177903) 6050
(0.0265636 0.00631201 0.00197586) 13493
(0.0176726 0.00455445 0.000846761) 11555
(0.017668 0.00516753 0.000513514) 7835
(0.0162539 0.00277958 0.00336887) 31681
(0.0209103 0.00297778 0.00336865) 32977
(0.0210928 0.00650119 0.00147183) 6762
(0.0171906 0.00369665 0.00346211) 14494
(0.0171645 0.00379022 0.00367046) 14554
(0.0249173 0.00604318 0.00178079) 6049
(0.026527 0.00629652 0.00196132) 13493
(0.0176218 0.0045613 0.000844382) 11555
(0.0175914 0.00517278 0.000513787) 7835
(0.0160186 0.00276084 0.00337468) 31681
(0.0208072 0.00297495 0.00336356) 32977
(0.0209142 0.00651284 0.00146626) 6761
(0.0171661 0.00369656 0.00346213) 14494
(0.0171404 0.00379014 0.00367044) 14554
(0.0248067 0.00604558 0.00178295) 6049
(0.0264903 0.00628099 0.00194628) 13492
(0.0175696 0.00456801 0.000841957) 11555
(0.0175132 0.00517808 0.000513939) 7835
(0.0206992 0.00297164 0.0033586) 32977
(0.0207196 0.006527 0.00146066) 6761
(0.0171564 0.00637229 0.00289982) 13534
(0.0171416 0.00369645 0.00346217) 14494
(0.0171164 0.00379004 0.00367043) 14554
(0.0246897 0.00604968 0.00178679) 6049
(0.0264514 0.00626553 0.00193264) 13492
(0.0175166 0.00457463 0.000839472) 11555
(0.0174337 0.00518348 0.000513994) 7834
(0.0194715 0.00504847 0.000478422) 7838
(0.0205885 0.00296793 0.00335374) 32977
(0.0205075 0.00654409 0.00145507) 6761
(0.017133 0.00637218 0.00289993) 13534
(0.0171171 0.00369631 0.00346221) 14494
(0.0176299 0.00369109 0.00346359) 14495
(0.0170924 0.00378993 0.00367043) 14554
(0.024565 0.00605579 0.00179278) 13489
(0.0264106 0.00625002 0.00191973) 13492
(0.0174625 0.00458115 0.000836933) 11554
(0.0173527 0.00518896 0.000513937) 7834
(0.0194447 0.00505839 0.000484023) 7838
(0.0204744 0.00296384 0.00334904) 32833
(0.0202809 0.00656427 0.00144972) 6760
(0.0171095 0.00637209 0.00290003) 13534
(0.0170927 0.00369615 0.00346225) 14494
(0.0176055 0.00369144 0.00346356) 14495
(0.0170685 0.00378979 0.00367046) 14554
(0.0175705 0.00378573 0.00367602) 14555
(0.0244319 0.0060638 0.00179994) 13488
(0.0263694 0.00623435 0.0019062) 13492
(0.0174076 0.0045876 0.00083433) 11554
(0.0172705 0.00519456 0.000513794) 7834
(0.0194108 0.0050673 0.000488813) 7838
(0.0203549 0.00295915 0.00334482) 32833
(0.0201045 0.0065727 0.00144572) 6760
(0.017086 0.00637203 0.00290013) 13534
(0.0175711 0.00638082 0.00289659) 13535
(0.0170683 0.00369596 0.0034623) 14494
(0.0175811 0.00369177 0.00346353) 14495
(0.0170446 0.00378963 0.00367049) 14554
(0.017546 0.00378599 0.00367578) 14555
(0.0242911 0.006074 0.00180877) 13488
(0.0263264 0.00621908 0.00189405) 13492
(0.0173512 0.004594 0.000831654) 11554
(0.0171861 0.00520032 0.000513547) 7834
(0.0193747 0.00507575 0.000493294) 7838
(0.0202318 0.00295402 0.00334101) 32833
(0.0199699 0.00657684 0.00144335) 6759
(0.0170625 0.006372 0.00290022) 13534
(0.0175488 0.00638027 0.00289676) 13535
(0.017044 0.00369574 0.00346235) 14494
(0.0175567 0.00369209 0.00346349) 14495
(0.0170208 0.00378945 0.00367054) 14554
(0.0175216 0.00378623 0.00367554) 14555
(0.0241416 0.00608685 0.00181995) 13488
(0.0262807 0.00620391 0.0018832) 13492
(0.0172932 0.00460036 0.000828897) 11554
(0.0171001 0.00520627 0.000513234) 7834
(0.0193366 0.00508378 0.000497506) 7838
(0.020103 0.0029482 0.00333763) 32833
(0.0198462 0.00658023 0.00144136) 6759
(0.0170389 0.00637199 0.0029003) 13534
(0.0175263 0.00637975 0.00289694) 13535
(0.0170196 0.0036955 0.0034624) 14494
(0.0175323 0.00369239 0.00346346) 14495
(0.016997 0.00378925 0.00367061) 14553
(0.0174971 0.00378646 0.00367532) 14554
(0.0239828 0.00610215 0.00183269) 13487
(0.0262336 0.00618855 0.00187177) 13492
(0.017234 0.00460673 0.000826055) 11554
(0.0192965 0.00509142 0.000501451) 7838
(0.0199721 0.00294212 0.00333446) 32689
(0.0197316 0.00658395 0.00143998) 6759
(0.0170153 0.00637201 0.00290038) 13534
(0.0175038 0.00637924 0.00289711) 13535
(0.0169953 0.00369523 0.00346245) 14493
(0.0175078 0.00369267 0.00346344) 14495
(0.0169732 0.00378903 0.00367069) 14553
(0.0174727 0.00378666 0.0036751) 14554
(0.0238137 0.00611979 0.00184664) 13487
(0.0261846 0.00617339 0.00186094) 13492
(0.0171732 0.0046131 0.00082312) 11554
(0.0192539 0.00509866 0.000505111) 7838
(0.019836 0.00293551 0.00333162) 32689
(0.019637 0.00658829 0.00144) 6759
(0.0169917 0.00637207 0.00290044) 13533
(0.0174813 0.00637875 0.00289728) 13534
(0.0169711 0.00369494 0.00346251) 14493
(0.0174834 0.00369293 0.00346341) 14494
(0.0169495 0.00378879 0.00367078) 14553
(0.0174483 0.00378686 0.00367489) 14554
(0.0236345 0.00613935 0.00186171) 13487
(0.0261329 0.00615883 0.00185146) 13492
(0.0171109 0.00461946 0.00082009) 11554
(0.0192086 0.00510553 0.000508477) 7838
(0.0196955 0.00292859 0.00332908) 32689
(0.0195532 0.00659293 0.00144072) 6759
(0.0169681 0.00637214 0.0029005) 13533
(0.0174586 0.00637828 0.00289745) 13534
(0.0168521 0.00422172 0.00187887) 14133
(0.0169469 0.00369462 0.00346258) 14493
(0.0174589 0.00369317 0.00346338) 14494
(0.017967 0.00368244 0.00346528) 14495
(0.0169259 0.00378853 0.00367088) 14553
(0.017424 0.00378703 0.00367468) 14554
(0.0169727 0.00637794 0.00313103) 15273
(0.0234423 0.00615971 0.00187679) 13486
(0.0260787 0.00614457 0.00184265) 13492
(0.0170472 0.00462582 0.000816961) 11554
(0.0191605 0.00511201 0.000511526) 7838
(0.0195494 0.00292139 0.00332687) 32689
(0.0225315 0.00299713 0.00343397) 33553
(0.0194684 0.00659762 0.00144122) 6758
(0.0169444 0.00637225 0.00290055) 13533
(0.0174359 0.00637784 0.00289761) 13534
(0.0168295 0.00422147 0.00187886) 14133
(0.0169227 0.00369428 0.00346264) 14493
(0.0174344 0.00369338 0.00346336) 14494
(0.017943 0.00368295 0.0034652) 14495
(0.0169023 0.00378825 0.003671) 14553
(0.0173996 0.00378718 0.00367449) 14554
(0.0167213 0.00500845 0.00437871) 14853
(0.016949 0.00637811 0.00313115) 15273
(0.0174424 0.00638191 0.00312985) 15274
(0.0232355 0.00618008 0.00189043) 13486
(0.0260223 0.00613042 0.00183329) 13492
(0.0169819 0.00463217 0.000813753) 11553
(0.018751 0.00447745 0.0008638) 11557
(0.0191093 0.00511815 0.000514254) 7838
(0.0193974 0.00291434 0.00332486) 32545
(0.0224505 0.00299685 0.00342821) 33409
(0.0193826 0.0066023 0.00144152) 6758
(0.0169207 0.00637238 0.00290058) 13533
(0.0174131 0.00637741 0.00289777) 13534
(0.0178749 0.00639215 0.00289359) 13535
(0.0168069 0.0042212 0.00187883) 14133
(0.0168986 0.00369391 0.00346272) 14493
(0.0174099 0.00369358 0.00346333) 14494
(0.0179189 0.00368345 0.00346512) 14495
(0.0168787 0.00378795 0.00367112) 14553
(0.0173753 0.00378731 0.0036743) 14554
(0.0178812 0.00377896 0.00368221) 14555
(0.0166982 0.00500827 0.00437915) 14853
(0.0171859 0.00501171 0.00437702) 14854
(0.0169254 0.0063783 0.00313127) 15273
(0.0174194 0.00638154 0.00312989) 15274
(0.0230122 0.006201 0.00190156) 13486
(0.0259624 0.0061172 0.00182481) 13491
(0.0169149 0.00463852 0.000810465) 11553
(0.0187138 0.00448678 0.000861847) 11557
(0.0190548 0.00512396 0.000516677) 7838
(0.0192407 0.00290787 0.00332288) 32545
(0.022367 0.00299648 0.00342259) 33409
(0.0192969 0.00660678 0.00144162) 6758
(0.016897 0.00637253 0.00290061) 13533
(0.0173903 0.00637701 0.00289792) 13534
(0.0178538 0.00639141 0.00289377) 13535
(0.0167844 0.00422091 0.00187879) 14133
(0.0172489 0.00422055 0.00187445) 14134
(0.0168744 0.00369351 0.00346279) 14493
(0.0173854 0.00369375 0.00346331) 14494
(0.0178948 0.00368394 0.00346504) 14495
(0.0168552 0.00378763 0.00367126) 14553
(0.017351 0.00378742 0.00367412) 14554
(0.0178568 0.00377936 0.0036819) 14555
(0.0166751 0.0050081 0.00437961) 14853
(0.0171622 0.0050115 0.00437699) 14854
(0.0169017 0.00637851 0.0031314) 15273
(0.0173963 0.0063812 0.00312993) 15274
(0.0227697 0.00622288 0.00190955) 13485
(0.0258992 0.00610485 0.0018175) 13491
(0.0168459 0.00464483 0.000807064) 11553
(0.018676 0.00449579 0.000859893) 11557
(0.0189973 0.00512951 0.000518811) 7837
(0.0190747 0.00290174 0.003321) 32545
(0.0222815 0.00299597 0.0034171) 33409
(0.0192105 0.00661114 0.00144152) 6818
(0.0168732 0.00637271 0.00290063) 13533
(0.0173673 0.00637663 0.00289807) 13534
(0.0178326 0.00639069 0.00289394) 13535
(0.0167619 0.00422061 0.00187874) 14133
(0.0172261 0.00422061 0.00187472) 14134
(0.0168504 0.00369308 0.00346287) 14493
(0.0173609 0.00369389 0.0034633) 14494
(0.0178707 0.00368442 0.00346496) 14495
(0.0168317 0.00378729 0.00367142) 14553
(0.0173268 0.00378752 0.00367396) 14554
(0.0178324 0.00377974 0.00368159) 14555
(0.016652 0.00500793 0.00438009) 14853
(0.0171385 0.0050113 0.004377) 14854
(0.016878 0.00637875 0.00313153) 15273
(0.0173731 0.00638088 0.00312997) 15274
(0.0225035 0.00624736 0.00191556) 13485
(0.0258325 0.00609311 0.00181032) 13491
(0.0186363 0.00450445 0.000857952) 11557
(0.0189364 0.00513481 0.000520654) 7837
(0.0188913 0.00289516 0.00331958) 32401
(0.0221919 0.00299525 0.0034118) 33409
(0.0191235 0.00661541 0.00144122) 6818
(0.0222323 0.0064995 0.00148581) 6764
(0.0168495 0.00637292 0.00290064) 13533
(0.0173443 0.00637627 0.00289822) 13534
(0.0178113 0.00638997 0.00289412) 13535
(0.0167394 0.00422029 0.00187867) 14133
(0.0172033 0.00422065 0.00187497) 14134
(0.0168263 0.00369263 0.00346296) 14493
(0.0173363 0.00369401 0.00346329) 14494
(0.0178466 0.00368489 0.00346489) 14495
(0.0168083 0.00378693 0.00367158) 14553
(0.0173025 0.00378759 0.0036738) 14554
(0.017808 0.00378012 0.00368129) 14555
(0.0166289 0.00500776 0.00438057) 14853
(0.0171149 0.00501109 0.00437703) 14854
(0.0168543 0.00637901 0.00313166) 15273
(0.0173499 0.00638059 0.00313001) 15274
(0.0222058 0.00627525 0.00191948) 13484
(0.0257631 0.00608236 0.00180298) 13491
(0.0185942 0.00451277 0.00085602) 11557
(0.0188724 0.0051399 0.000522235) 7837
(0.0186854 0.00288758 0.00331894) 32401
(0.0221007 0.00299444 0.00340661) 33409
(0.0190356 0.00661986 0.00144067) 6818
(0.0221392 0.00650122 0.00148328) 6764
(0.0168256 0.00637315 0.00290064) 13533
(0.0173212 0.00637594 0.00289836) 13534
(0.0177899 0.00638927 0.00289429) 13535
(0.0167169 0.00421996 0.00187859) 14133
(0.0171805 0.00422068 0.0018752) 14134
(0.0168023 0.00369216 0.00346304) 14493
(0.0173118 0.0036941 0.00346328) 14494
(0.0178224 0.00368534 0.00346482) 14495
(0.0167849 0.00378655 0.00367176) 14553
(0.0172783 0.00378765 0.00367367) 14554
(0.0177836 0.00378049 0.00368099) 14555
(0.0166059 0.0050076 0.00438107) 14853
(0.0170913 0.00501087 0.00437708) 14854
(0.0168306 0.00637929 0.0031318) 15273
(0.0173266 0.00638032 0.00313006) 15274
(0.0256888 0.0060728 0.00179661) 13491
(0.0185498 0.00452076 0.000854086) 11557
(0.0188055 0.00514483 0.000523573) 7837
(0.0184542 0.00287873 0.00331923) 32257
(0.022008 0.00299351 0.0034015) 33409
(0.0189488 0.00662447 0.00143997) 6817
(0.0220313 0.00650429 0.0014798) 6764
(0.0168018 0.0063734 0.00290063) 13533
(0.017298 0.00637564 0.0028985) 13534
(0.0177684 0.00638858 0.00289447) 13535
(0.0166945 0.00421962 0.00187851) 14133
(0.0171577 0.00422069 0.00187543) 14134
(0.0167783 0.00369166 0.00346314) 14493
(0.0172872 0.00369416 0.00346328) 14494
(0.0177982 0.00368578 0.00346475) 14495
(0.0167616 0.00378615 0.00367195) 14553
(0.0172541 0.00378768 0.00367354) 14554
(0.0177591 0.00378084 0.0036807) 14555
(0.0165829 0.00500744 0.00438159) 14853
(0.0170677 0.00501066 0.00437716) 14854
(0.0168069 0.00637959 0.00313194) 15273
(0.0173032 0.00638008 0.00313012) 15274
(0.0256107 0.00606447 0.00179122) 13491
(0.0185031 0.00452847 0.000852139) 11557
(0.0187355 0.00514962 0.000524673) 7837
(0.0181936 0.00286777 0.0033208) 32257
(0.0219118 0.00299237 0.00339651) 33265
(0.0188621 0.00662914 0.00143903) 6817
(0.0219085 0.00650881 0.00147554) 6763
(0.0167779 0.00637368 0.00290062) 13533
(0.0172747 0.00637536 0.00289864) 13534
(0.0177468 0.0063879 0.00289464) 13535
(0.0170951 0.00442278 0.00176103) 14074
(0.0166721 0.00421926 0.00187841) 14133
(0.0171349 0.00422069 0.00187564) 14134
(0.0167543 0.00369114 0.00346323) 14493
(0.0172626 0.00369419 0.00346328) 14494
(0.017774 0.00368621 0.00346469) 14495
(0.0167383 0.00378574 0.00367216) 14553
(0.01723 0.00378769 0.00367343) 14554
(0.0177347 0.00378119 0.00368042) 14555
(0.0165599 0.00500728 0.00438211) 14853
(0.0170441 0.00501045 0.00437727) 14854
(0.0167831 0.00637991 0.00313209) 15273
(0.0172798 0.00637987 0.00313018) 15274
(0.0255291 0.00605717 0.00178553) 13491
(0.0184544 0.00453593 0.000850173) 11556
(0.0186627 0.00515433 0.000525567) 7837
(0.0179046 0.00285426 0.00332374) 32113
(0.0218134 0.00299108 0.00339161) 33265
(0.0187741 0.00663388 0.00143776) 6817
(0.021771 0.006515 0.00147075) 6763
(0.0167541 0.00637399 0.00290059) 13533
(0.0172514 0.0063751 0.00289877) 13534
(0.0177251 0.00638724 0.00289482) 13535
(0.0166151 0.00442091 0.00176272) 14073
(0.0170725 0.00442277 0.0017612) 14074
(0.0166497 0.00421889 0.0018783) 14133
(0.0171121 0.00422067 0.00187583) 14134
(0.0167304 0.0036906 0.00346333) 14493
(0.017238 0.0036942 0.00346329) 14494
(0.0177497 0.00368662 0.00346463) 14495
(0.016715 0.0037853 0.00367237) 14553
(0.0172059 0.00378769 0.00367333) 14554
(0.0177102 0.00378152 0.00368014) 14555
(0.0165369 0.00500713 0.00438264) 14853
(0.0170206 0.00501024 0.0043774) 14854
(0.0167594 0.00638025 0.00313224) 15273
(0.0172563 0.00637968 0.00313024) 15274
(0.0177362 0.00639039 0.0031301) 15275
(0.0254421 0.00605114 0.00178035) 6050
(0.0268192 0.00641796 0.00208655) 13433
(0.0184038 0.00454316 0.000848183) 11556
(0.0185875 0.00515898 0.00052628) 7837
(0.0202358 0.00500415 0.000454718) 7840
(0.0175877 0.00283713 0.00332824) 32113
(0.0217142 0.00298965 0.00338674) 33265
(0.0186839 0.00663855 0.00143605) 6817
(0.0216183 0.00652321 0.0014656) 6763
(0.0167302 0.00637431 0.00290055) 13533
(0.017228 0.00637487 0.0028989) 13534
(0.0177033 0.00638658 0.002895) 13535
(0.0165926 0.00442071 0.00176245) 14073
(0.0170498 0.00442274 0.00176135) 14074
(0.0166274 0.0042185 0.00187818) 14133
(0.0170893 0.00422063 0.00187601) 14134
(0.0175498 0.00421534 0.0018672) 14135
(0.0167066 0.00369003 0.00346344) 14493
(0.0172134 0.00369418 0.0034633) 14494
(0.0177253 0.00368702 0.00346458) 14495
(0.0166918 0.00378486 0.00367261) 14553
(0.0171818 0.00378766 0.00367325) 14554
(0.0176857 0.00378184 0.00367987) 14555
(0.0165139 0.00500698 0.00438318) 14853
(0.016997 0.00501003 0.00437755) 14853
(0.0167356 0.00638061 0.0031324) 15273
(0.0172328 0.00637952 0.00313032) 15274
(0.0177142 0.00638976 0.00313009) 15275
(0.0253505 0.00604656 0.00177651) 6050
(0.0267915 0.00640485 0.00206918) 13433
(0.0183514 0.00455019 0.000846161) 11556
(0.0185101 0.00516361 0.000526825) 7837
(0.0202402 0.00501846 0.000463456) 7840
(0.0172559 0.00281645 0.00333448) 31969
(0.0216112 0.00298794 0.00338198) 33265
(0.01859 0.00664314 0.00143375) 6817
(0.0214505 0.00653365 0.00146024) 6762
(0.0167062 0.00637466 0.00290051) 13533
(0.0172045 0.00637467 0.00289903) 13534
(0.0176814 0.00638594 0.00289517) 13535
(0.0165701 0.0044205 0.00176215) 14073
(0.0170271 0.00442271 0.00176148) 14074
(0.0166051 0.00421811 0.00187804) 14133
(0.0170665 0.00422058 0.00187617) 14134
(0.0175276 0.00421558 0.00186767) 14135
(0.0166827 0.00368945 0.00346354) 14493
(0.0171888 0.00369413 0.00346333) 14494
(0.017701 0.00368741 0.00346453) 14495
(0.0166686 0.0037844 0.00367285) 14553
(0.0171577 0.00378762 0.00367319) 14554
(0.0176613 0.00378215 0.00367961) 14555
(0.0164909 0.00500684 0.00438373) 14852
(0.0169736 0.00500982 0.00437773) 14853
(0.0167119 0.00638099 0.00313257) 15273
(0.0172092 0.00637938 0.00313039) 15274
(0.017692 0.00638915 0.00313009) 15275
(0.0252546 0.00604328 0.00177362) 6050
(0.0267591 0.00639021 0.00205175) 13493
(0.0182973 0.00455705 0.000844105) 11556
(0.0184305 0.00516825 0.000527218) 7836
(0.0202399 0.00503192 0.000471666) 7840
(0.0169262 0.00279296 0.00334176) 31825
(0.021506 0.00298597 0.00337722) 33265
(0.0184926 0.00664752 0.00143082) 6816
(0.0212661 0.00654682 0.00145479) 6762
(0.0166823 0.00637503 0.00290045) 13533
(0.017181 0.0063745 0.00289915) 13534
(0.0176595 0.00638532 0.00289535) 13535
(0.0165477 0.00442029 0.00176185) 14073
(0.0170045 0.00442267 0.00176159) 14074
(0.0165828 0.0042177 0.0018779) 14133
(0.0170437 0.0042205 0.00187632) 14134
(0.0175053 0.00421581 0.00186812) 14135
(0.0166589 0.00368885 0.00346365) 14493
(0.0171642 0.00369406 0.00346335) 14494
(0.0176766 0.00368778 0.00346449) 14495
(0.0166454 0.00378392 0.00367311) 14553
(0.0171337 0.00378755 0.00367314) 14554
(0.0176368 0.00378245 0.00367936) 14555
(0.0164679 0.0050067 0.00438429) 14852
(0.0169501 0.00500961 0.00437793) 14853
(0.0166881 0.00638139 0.00313274) 15273
(0.0171855 0.00637927 0.00313048) 15274
(0.0176698 0.00638856 0.00313008) 15275
(0.0251524 0.00604092 0.0017705) 6050
(0.026723 0.00637453 0.00203486) 13493
(0.0182419 0.00456377 0.000842015) 11556
(0.0183494 0.00517294 0.000527499) 7836
(0.0202349 0.00504456 0.000479361) 7840
(0.0166317 0.00276984 0.0033488) 31825
(0.0213974 0.00298368 0.00337247) 33121
(0.0183912 0.00665155 0.00142716) 2556
(0.0210625 0.00656319 0.00144927) 6762
(0.0166583 0.00637543 0.0029004) 13533
(0.0171574 0.00637435 0.00289927) 13534
(0.0176374 0.00638472 0.00289553) 13535
(0.0163553 0.00578849 0.00190289) 13772
(0.0165252 0.00442007 0.00176152) 14073
(0.0169818 0.00442262 0.00176167) 14073
(0.0165605 0.00421729 0.00187774) 14133
(0.017021 0.00422042 0.00187646) 14134
(0.0174829 0.00421603 0.00186856) 14134
(0.0166351 0.00368823 0.00346375) 14493
(0.0171397 0.00369397 0.00346339) 14494
(0.0176522 0.00368814 0.00346446) 14495
(0.0166223 0.00378343 0.00367337) 14553
(0.0171098 0.00378747 0.00367312) 14554
(0.0176123 0.00378273 0.00367911) 14555
(0.016445 0.00500656 0.00438484) 14852
(0.0169267 0.0050094 0.00437815) 14853
(0.0166643 0.00638181 0.00313291) 15273
(0.0171618 0.00637919 0.00313056) 15274
(0.0176474 0.00638798 0.00313008) 15275
(0.0250439 0.00604006 0.001769) 6050
(0.0266875 0.00635887 0.00201817) 13493
(0.0181853 0.00457036 0.000839875) 11556
(0.0182667 0.00517769 0.000527663) 7836
(0.0202208 0.00505588 0.000486178) 7840
(0.016407 0.00275112 0.00335332) 31681
(0.0212847 0.00298098 0.00336778) 33121
(0.0182852 0.00665496 0.00142263) 2556
(0.020879 0.0065735 0.00144471) 6761
(0.0166344 0.00637585 0.00290033) 13533
(0.0171338 0.00637423 0.00289938) 13534
(0.0176153 0.00638413 0.00289571) 13535
(0.0163327 0.00578877 0.00190254) 13772
(0.0165028 0.00441984 0.00176119) 14073
(0.0169592 0.00442256 0.00176174) 14073
(0.0165382 0.00421686 0.00187757) 14133
(0.0169982 0.00422031 0.00187658) 14133
(0.0174605 0.00421624 0.00186899) 14134
(0.0166114 0.00368759 0.00346386) 14493
(0.0171152 0.00369385 0.00346342) 14494
(0.0176278 0.00368848 0.00346443) 14495
(0.0165992 0.00378292 0.00367364) 14553
(0.0170859 0.00378737 0.0036731) 14554
(0.0175879 0.00378301 0.00367887) 14555
(0.016422 0.00500643 0.00438541) 14852
(0.0169033 0.0050092 0.00437839) 14853
(0.0166406 0.00638224 0.00313308) 15273
(0.0171381 0.00637914 0.00313066) 15274
(0.017625 0.00638743 0.00313009) 15275
(0.0249286 0.00604092 0.00176981) 6049
(0.0266495 0.00634243 0.00200155) 13493
(0.0181275 0.00457685 0.000837681) 11556
(0.0181819 0.0051825 0.000527687) 7836
(0.0202001 0.0050662 0.000492258) 7840
(0.0211713 0.002978 0.00336304) 33121
(0.0181733 0.00665772 0.00141709) 2556
(0.0207264 0.00657866 0.00144155) 6761
(0.0166104 0.00637629 0.00290026) 13533
(0.0171101 0.00637414 0.00289949) 13534
(0.017593 0.00638356 0.00289589) 13535
(0.0163101 0.00578906 0.00190219) 13772
(0.0164803 0.00441961 0.00176083) 14072
(0.0169365 0.00442249 0.00176178) 14073
(0.0173922 0.00442129 0.00175336) 14074
(0.0165159 0.00421641 0.00187739) 14133
(0.0169755 0.00422019 0.00187668) 14133
(0.0174381 0.00421644 0.0018694) 14134
(0.0165876 0.00368694 0.00346397) 14493
(0.0170907 0.0036937 0.00346347) 14494
(0.0176034 0.00368881 0.0034644) 14495
(0.0165761 0.0037824 0.00367392) 14553
(0.017062 0.00378725 0.0036731) 14554
(0.0175634 0.00378326 0.00367864) 14555
(0.016399 0.0050063 0.00438597) 14852
(0.01688 0.005009 0.00437865) 14853
(0.0166168 0.00638268 0.00313326) 15273
(0.0171144 0.00637912 0.00313075) 15274
(0.0176025 0.00638689 0.0031301) 15275
(0.024806 0.0060431 0.00177116) 6049
(0.0266115 0.00632578 0.0019843) 13493
(0.0180687 0.00458323 0.000835419) 11556
(0.0180957 0.00518745 0.000527612) 7836
(0.0201757 0.0050759 0.000497981) 7840
(0.0210544 0.00297456 0.00335834) 33121
(0.0205994 0.00658243 0.00143993) 6761
(0.0165864 0.00637675 0.00290018) 13533
(0.0170864 0.00637408 0.00289959) 13534
(0.0175707 0.00638301 0.00289606) 13535
(0.0162875 0.00578936 0.00190184) 13772
(0.0164579 0.00441937 0.00176046) 14072
(0.0169139 0.00442241 0.0017618) 14073
(0.01737 0.00442142 0.00175381) 14074
(0.0164937 0.00421596 0.0018772) 14132
(0.0169528 0.00422005 0.00187676) 14133
(0.0174156 0.00421663 0.00186979) 14134