/*--------------------------------*- C++ -*----------------------------------*\
| =========                 |                                                 |
| \\      /  F ield         | OpenFOAM: The Open Source CFD Toolbox           |
|  \\    /   O peration     | Version:  2.1.1                                 |
|   \\  /    A nd           | Web:      www.OpenFOAM.org                      |
|    \\/     M anipulation  |                                                 |
\*---------------------------------------------------------------------------*/
FoamFile
{
    version     2.0;
    format      ascii;
    class       scalarField;
    location    "0.00135";
    object      T;
}
// * * * * * * * * * * * * * * * * * * * * * * * * * * * * * * * * * * * * * //


44454
(
623.749
571.598
565.466
559.168
552.897
546.622
540.727
534.914
529.1
523.655
518.822
514.708
511.136
508.339
506.431
505.263
504.49
618.874
610.675
602.516
594.377
586.299
578.169
570.044
561.914
554.174
546.184
538.112
529.948
521.814
514.083
506.258
498.54
491.154
484.497
685.361
478.271
675.939
768.22
472.504
666.386
759.891
467.495
656.719
752.187
463.066
647.017
743.579
458.84
637.146
734.412
455.779
627.199
724.895
617.221
714.348
607.231
703.471
3.91153e+180
693.019
4.72822e+222
682.776
577.378
673.605
567.604
557.997
548.374
538.924
813.463
529.47
807.996
520.018
802.23
510.511
3.91153e+180
501.164
744.155
790.176
491.947
735.339
783.586
482.501
726.071
776.758
473.252
716.51
769.856
464.65
706.628
762.528
456.561
696.299
754.557
448.569
685.553
746.493
441.269
674.521
736.898
3.91153e+180
663.287
725.758
427.578
651.74
714.462
422.988
3.91153e+180
701.253
628.448
687.507
616.756
670.103
605.089
818.595
653.441
1.19354e+190
820.214
633.277
833.961
581.422
2.06697e+161
612.114
830.098
569.731
822.665
589.764
2.06685e+161
558.385
2.06697e+161
821.039
2.06697e+161
824.125
815.807
536.078
824.565
810.147
525.102
792.913
824.645
804.033
514.245
785.473
824.337
6.75387e+87
503.446
2.06697e+161
823.617
791.269
492.584
768.987
822.433
784.459
481.935
760.032
6.75387e+87
9.09155e+223
2.06697e+161
750.66
818.702
770.792
460.41
740.663
764.03
450.212
730.181
757.321
440.548
719.385
751.186
430.921
708.209
813.715
744.949
422.264
696.502
6.75387e+87
738.045
413.082
684.275
817.977
730.836
406.389
4.2695e+257
783.652
819.755
721.435
861.049
658.687
2.06697e+161
821.176
9.09155e+223
4.2695e+257
645.273
786.02
822.209
699.118
853.662
631.715
786.793
822.847
685.592
849.702
618.198
787.283
823.272
668.962
845.509
4.2695e+257
787.469
9.09155e+223
9.09155e+223
841.059
590.906
787.342
823.472
624.916
836.207
602.948
577.268
842.596
786.93
823.249
601.421
831.106
736.133
602.372
683.581
563.747
9.09155e+223
786.187
822.751
575.823
825.513
735.115
601.801
682.313
550.656
829.482
785.069
821.931
819.412
734.946
623.036
601.28
681.003
537.801
822.623
783.605
820.915
796.051
812.8
734.948
622.116
600.74
573.63
679.651
525.02
2.06697e+161
781.834
9.09155e+223
798.83
805.846
735.546
621.251
600.165
573.489
678.249
656.094
512.437
808.294
9.09155e+223
818.636
801.287
798.5
733.777
620.434
611.011
599.571
573.349
676.8
655.758
500.136
800.534
776.679
9.09155e+223
803.624
790.862
731.476
619.645
609.465
598.94
573.209
675.305
655.386
2.06697e+161
792.386
9.09155e+223
815.24
805.884
782.924
729.009
618.882
607.968
598.271
573.064
673.76
654.933
2.06697e+161
783.855
9.09155e+223
9.09155e+223
774.91
726.568
618.136
606.537
597.581
572.914
672.178
654.401
2.06697e+161
774.807
764.649
809.949
766.672
724.622
617.406
605.167
596.852
572.759
670.565
653.81
451.569
765.044
759.496
811.657
758.515
722.899
616.691
603.84
749.72
596.125
572.601
548.161
668.921
653.166
608.379
439.934
9.09155e+223
753.814
813.1
750.638
923.11
721.183
615.998
602.584
747.129
595.374
572.451
547.793
667.248
652.49
632.581
607.388
601.913
428.775
9.09155e+223
747.722
782.21
814.244
743.76
915.804
719.441
615.346
601.389
610.59
744.489
594.617
572.303
547.456
665.546
651.784
623.383
631.007
637.986
606.433
600.121
418.12
732.424
741.107
783.996
815.049
736.806
908.867
717.554
614.73
600.253
608.104
741.772
760.984
593.847
572.138
547.123
663.816
651.032
623.43
629.44
636.77
605.515
598.42
407.915
720.362
9.09155e+223
785.525
815.451
730.115
902.232
715.537
614.143
599.16
605.718
738.989
758.832
593.048
571.953
546.799
662.066
650.238
623.442
627.88
635.554
604.642
596.812
398.568
9.09155e+223
786.877
815.49
724.3
895.99
713.478
769.677
613.585
598.114
603.4
736.189
756.673
592.228
571.757
546.509
660.291
649.393
623.399
626.324
634.332
603.832
595.312
391.791
694.828
788.035
815.236
717.518
890.046
711.651
769.388
613.03
597.1
601.166
733.367
754.522
591.332
571.528
546.253
658.466
648.479
623.29
624.775
633.102
603.106
593.917
681.121
9.09155e+223
814.627
710.851
884.389
709.967
768.742
612.442
596.105
598.968
730.526
752.401
590.284
571.243
546.016
656.552
647.478
623.108
623.236
631.858
602.391
592.618
9.09155e+223
789.596
813.631
702.039
878.962
708.231
767.659
611.773
595.114
596.813
761.477
727.728
750.29
589.107
570.889
545.777
654.578
646.438
622.856
621.71
630.604
601.613
591.352
652.201
9.09155e+223
1.49258e+195
693.432
873.628
706.476
766.688
611.103
594.157
594.719
732.402
759.356
724.971
748.18
587.854
570.508
545.527
652.567
645.359
622.574
620.2
629.339
600.799
590.12
605.226
637.11
885.869
789.854
810.413
9.09155e+223
3.94662e+180
9.09155e+223
704.489
765.745
610.431
593.243
592.724
730.209
757.231
722.238
746.066
765.199
586.556
570.111
545.293
650.577
644.278
622.31
618.714
628.063
600.008
588.958
602.31
621.874
880.391
9.09155e+223
9.09155e+223
796.053
670.472
862.951
702.115
764.879
609.74
592.367
590.845
728.024
755.095
719.505
743.935
762.918
585.201
569.67
545.057
648.643
643.183
622.054
617.253
626.771
599.232
587.847
599.513
606.532
874.594
9.09155e+223
805.314
800.226
658.554
857.408
699.392
764.8
609.02
591.522
589.062
725.827
752.956
716.772
741.788
760.677
583.889
569.26
544.866
646.732
642.054
621.799
615.819
625.459
598.465
586.793
596.885
591.136
868.139
787.336
802.152
804.237
642.366
851.596
696.525
765.271
608.361
590.759
587.368
538.869
723.622
750.801
714.036
739.619
758.475
582.652
568.847
544.714
644.807
640.881
621.531
614.41
624.124
597.772
585.848
594.366
575.828
861.245
785.63
798.512
808.131
627.779
845.404
693.547
764.436
607.769
590.06
585.757
537.647
721.403
748.634
711.29
737.423
756.31
581.454
568.42
544.569
642.838
639.664
621.236
613.031
622.766
597.143
584.938
591.918
560.5
854.019
9.09155e+223
787.018
811.767
838.71
690.517
762.313
607.209
589.402
584.21
536.419
719.167
746.475
775.718
708.536
735.201
754.179
580.273
567.955
544.43
640.843
638.398
620.909
611.68
621.386
596.542
584.033
589.551
545.436
9.09155e+223
780.755
789.748
815.048
831.509
759.806
606.674
588.775
582.738
535.186
716.937
744.328
773.111
705.775
732.954
752.087
579.116
567.463
544.299
638.829
637.088
620.545
610.362
619.986
595.897
583.132
587.254
530.764
9.09155e+223
9.09155e+223
784.638
817.933
823.81
757.058
606.114
588.176
581.318
533.941
714.714
742.198
770.585
703.009
730.684
750.015
578.004
566.947
544.18
636.789
635.734
620.147
609.079
618.569
595.224
582.237
585.026
516.28
9.09155e+223
766.736
774.007
779.066
820.409
815.596
754.134
605.531
587.598
579.955
532.655
712.482
740.093
768.158
700.241
728.392
747.962
576.932
566.404
544.065
634.712
634.335
619.718
607.828
617.134
594.529
581.344
582.876
502.051
822.932
761.197
769.611
772.969
822.636
806.935
751.207
604.927
587.037
578.643
531.382
710.258
738.009
765.814
697.469
726.074
745.934
575.895
565.841
543.942
632.61
632.901
619.236
606.61
615.679
580.458
580.812
488.157
814.621
754.745
764.494
766.217
824.702
797.799
1031.41
748.452
604.309
586.486
577.381
530.249
735.921
763.474
694.7
723.725
743.915
574.894
565.243
543.821
630.489
631.436
618.702
605.426
614.204
579.571
578.835
474.312
806.185
747.766
758.621
758.834
826.539
788.332
1023.56
745.656
603.683
585.948
576.17
529.202
733.779
761.116
691.934
721.335
741.889
573.933
564.626
543.692
628.339
629.943
618.132
604.289
612.717
578.687
576.949
9.09155e+223
797.309
740.276
752
750.919
828.089
778.248
1015.04
742.656
603.02
585.426
575.029
528.22
731.555
758.725
689.162
718.897
739.845
573.019
563.971
543.56
626.216
628.428
617.531
603.211
611.227
577.819
575.164
447.332
788.096
731.816
9.09155e+223
806.36
742.56
829.354
768.096
1005.95
739.46
798.045
602.363
584.932
573.946
527.292
729.202
756.369
686.371
716.405
737.786
572.164
563.282
543.424
624.109
626.891
616.901
602.192
609.739
576.971
573.478
434.248
778.427
722.763
736.555
807.948
734.699
830.206
758.134
996.264
735.993
800.313
601.739
584.468
572.915
526.407
726.84
754.144
683.567
713.838
735.73
571.341
562.556
543.288
622.036
625.331
616.232
601.229
608.267
576.155
571.88
421.756
768.106
714.462
727.812
809.341
728.35
830.653
748.83
986.118
732.291
801.998
601.103
584.034
571.922
724.468
752.021
680.737
711.207
733.671
570.603
561.78
543.145
620.003
623.744
615.526
600.327
606.806
575.378
570.384
2.06697e+161
757.056
707.243
646.167
718.419
810.536
721.837
830.69
739.655
975.749
728.411
803.177
600.436
583.617
570.97
722.158
749.971
677.882
708.551
731.639
569.982
560.928
542.985
618.006
622.117
614.77
605.354
574.645
568.986
398.447
2.06697e+161
9.09155e+223
646.237
708.436
811.589
830.319
731.113
965.315
724.387
803.944
599.703
583.188
570.052
719.925
747.96
674.985
705.871
729.644
569.408
559.94
542.812
616.01
620.428
613.954
603.913
573.987
567.686
2.06697e+161
732.883
691.237
646.094
697.993
812.523
829.529
723.837
955.034
720.315
804.386
598.864
582.712
569.157
717.726
745.945
672.09
703.217
727.67
568.848
558.823
542.593
613.984
618.647
613.054
602.485
573.321
566.479
719.529
9.09155e+223
645.784
869.466
869.466
869.466
687.198
813.31
828.353
791.037
716.775
945.05
716.062
804.748
582.153
568.267
715.556
743.922
669.262
700.602
725.713
568.289
557.618
542.309
611.899
616.804
612.116
601.075
572.581
565.306
705.668
645.305
870.832
2.06697e+161
870.832
9.09155e+223
813.469
826.953
796.104
710.932
935.54
711.5
805.038
581.581
567.403
713.411
741.891
666.527
698.014
723.761
567.827
556.412
542.002
609.739
614.93
611.161
599.685
571.807
564.165
2.06697e+161
919.248
644.578
872.067
872.067
872.067
814.333
825.081
801.276
704.053
926.462
706.479
805.351
580.987
566.582
711.272
739.862
663.872
695.44
721.806
567.438
555.214
541.671
607.708
613.103
610.212
598.316
571.045
563.087
675.697
9.09155e+223
9.09155e+223
873.116
873.116
873.116
814.489
822.566
806.705
697.121
917.853
701.174
805.916
580.375
565.797
709.117
737.832
661.291
692.865
719.84
567.176
554.068
541.304
605.848
611.286
609.244
596.975
570.296
562.058
2.06697e+161
910.132
642.284
873.905
873.905
873.905
814.36
819.548
812.488
686.69
909.717
695.602
805.944
579.767
565.063
706.943
735.79
658.777
690.282
717.853
567.096
553.02
540.978
604.146
609.456
608.242
595.657
569.558
561.094
643.117
2.06697e+161
9.09155e+223
4.2695e+257
874.382
874.382
813.821
816.055
818.506
676.303
901.938
689.609
805.139
579.234
564.411
704.748
733.756
656.331
687.693
715.848
567.12
552.027
540.641
602.565
607.611
607.199
594.355
568.887
560.226
626.337
9.09155e+223
799.093
638.844
874.509
874.509
874.509
812.821
812.057
824.587
668.566
894.418
683.227
803.901
578.744
563.814
702.537
731.731
685.096
713.814
567.231
551.055
540.282
601.047
605.738
606.113
593.077
568.278
559.385
609.403
9.09155e+223
9.09155e+223
636.701
874.319
874.319
874.319
811.339
807.802
830.449
657.219
886.985
676.295
802.311
578.276
563.261
700.335
729.714
682.483
711.758
567.39
550.097
539.892
599.57
603.838
604.98
591.829
567.681
558.549
2.06697e+161
888.705
9.09155e+223
634.281
9.09155e+223
873.847
873.847
809.347
803.024
835.894
647.086
879.409
669.031
800.48
577.803
562.735
698.144
727.715
679.86
709.666
567.589
549.155
539.467
598.141
601.901
603.802
590.606
567.045
557.715
575.925
882.148
798.571
631.587
873.061
873.061
873.061
909.4
806.786
797.515
840.745
634.433
871.558
661.464
798.42
577.306
562.226
695.946
725.737
677.229
707.552
567.83
548.232
539.009
596.757
599.945
602.575
589.411
566.376
556.887
559.233
875.081
797.08
9.09155e+223
3.94662e+180
9.09155e+223
872.007
902.699
803.624
791.411
844.97
863.306
1119.15
653.972
796.238
576.789
561.738
693.742
723.771
674.586
705.417
568.088
547.333
538.514
595.42
597.971
601.302
588.248
565.676
556.059
542.925
9.09155e+223
794.734
870.635
870.635
870.635
894.695
799.816
784.68
848.55
854.6
1116.76
646.513
794.078
576.239
561.269
691.53
721.786
671.932
703.254
568.37
546.46
537.972
594.135
595.969
599.991
587.114
564.96
555.225
2.06697e+161
859.254
9.09155e+223
868.923
868.923
868.923
864.989
864.989
864.989
885.605
795.391
777.393
851.499
845.368
1113.78
638.955
791.878
575.651
560.818
689.299
719.746
669.276
701.047
568.695
545.614
537.397
592.896
593.963
598.639
586.008
564.226
554.395
511.554
850.833
2.06697e+161
866.731
9.09155e+223
866.731
867.725
867.725
867.725
875.724
789.97
769.588
854.021
835.72
1110.18
632.365
789.41
575.021
560.387
687.049
717.642
666.612
698.795
569.072
544.802
536.79
591.743
591.966
597.251
584.95
563.485
553.567
496.196
9.09155e+223
782.409
863.874
863.874
863.874
870.083
870.083
870.083
865.121
783.618
760.781
856.248
825.557
1105.88
625.768
786.6
823.606
574.367
559.976
684.779
715.445
663.936
696.484
569.505
544.017
536.139
590.672
589.967
595.836
583.947
562.738
552.745
481.055
833.345
775.93
872.059
872.059
872.059
853.571
776.362
848.13
751.156
858.129
814.95
1100.87
783.496
828.235
573.735
559.586
682.483
713.154
661.244
694.108
570
543.26
535.463
589.688
587.999
594.397
582.995
561.993
551.941
603.946
2.06697e+161
768.177
9.09155e+223
873.74
873.74
873.74
841.227
768.188
849.773
740.649
859.617
803.85
1095.02
780.09
832.248
573.094
559.219
680.129
710.848
658.533
691.652
570.567
542.553
534.749
588.799
586.058
592.933
582.096
561.252
551.158
450.986
815.183
758.176
673.98
875.086
875.086
875.086
828.275
759.066
851.315
729.453
860.724
793.495
1088.3
776.34
835.646
572.441
558.869
677.681
708.598
655.789
689.153
571.195
541.924
534.018
588.013
584.16
591.443
581.256
560.53
550.404
436.187
9.09155e+223
746.911
673.657
876.193
876.193
876.193
814.722
749.008
852.698
719.578
861.498
836.602
1080.69
772.271
838.455
571.755
558.518
675.279
706.414
653.017
686.634
571.811
541.378
533.254
812.032
812.032
812.032
587.328
582.298
589.916
580.486
559.841
549.694
922.488
919.194
422.192
9.09155e+223
736.326
673.008
876.978
876.978
876.978
800.482
738.113
853.903
709.968
861.949
770.444
1072.17
767.854
840.823
570.981
558.146
673.01
704.26
650.204
684.12
572.417
540.864
532.446
813.51
813.51
813.51
586.7
580.442
588.329
579.784
559.132
549.052
922.296
920.541
2.06697e+161
785.929
9.09155e+223
672.053
877.425
877.425
877.425
785.765
726.527
855.001
700.271
861.851
759.961
1062.59
763.111
842.843
570.155
557.728
670.824
702.138
647.435
681.644
573.006
540.35
531.537
814.943
814.943
814.943
586.099
578.569
586.65
663.416
579.148
558.371
548.39
626.572
779.023
922.046
922.236
2.06697e+161
775.139
715.296
670.777
877.616
877.616
877.616
770.836
714.301
856.005
690.512
861.29
750.269
1051.97
757.964
844.628
569.245
557.213
565.996
668.715
700.039
644.773
679.189
819.108
819.108
819.108
573.634
539.84
530.577
816.322
816.322
816.322
585.514
576.662
584.908
663.426
578.571
557.554
547.657
630.846
784.344
921.973
924.328
2.06697e+161
763.409
963.215
703.458
669.179
877.678
877.678
877.678
755.659
701.508
856.872
680.607
860.298
806.558
741.237
1040.34
752.309
846.358
568.231
556.673
800.133
566.46
674.462
666.672
697.96
642.206
676.748
677.583
820.783
820.783
820.783
574.299
539.413
529.623
817.642
817.642
817.642
585.004
574.695
583.17
663.351
578.049
556.691
546.897
635.505
789.984
922.511
926.812
1018.49
751.098
957.754
9.09155e+223
667.259
877.709
877.709
877.709
688.227
857.574
670.426
858.935
813.992
732.708
1028.17
746.215
848.165
567.203
556.125
802.256
566.931
675.337
664.691
695.883
639.719
674.313
679.008
664.014
822.387
822.387
822.387
574.99
539.029
528.675
818.902
818.902
818.902
727.114
584.578
572.844
581.471
663.205
577.577
899.259
555.835
546.142
639.938
795.596
1526.35
1342.81
923.466
930.083
1017.63
737.704
952.249
678.228
665.014
877.736
877.736
877.736
674.452
858.052
857.121
822.087
725.784
1015.58
739.683
849.352
566.213
555.546
804.229
567.403
676.196
662.758
693.783
637.292
671.871
680.331
665.365
823.92
823.92
823.92
575.707
538.734
527.775
820.087
820.087
820.087
729.358
584.231
571.138
579.779
662.994
577.149
899.199
554.994
545.387
1076.93
644.263
801.919
1810.17
1532.79
1343.05
924.883
935.555
1017.95
1286.5
723.429
946.713
664.916
823.807
662.557
877.66
877.66
877.66
660.285
858.304
854.838
830.69
718.734
1002.77
732.695
849.804
565.332
554.998
806.174
567.878
677.06
660.881
691.67
634.935
669.425
681.628
666.724
825.374
825.374
825.374
576.498
538.59
526.949
821.211
821.211
821.211
731.561
638.615
583.985
569.572
578.079
662.726
576.761
899.128
554.159
544.648
1140.09
1111.95
1074.51
649.111
810.522
1797.87
1535.06
1343.36
926.297
847.176
1020.69
1316.94
1188.45
1286.38
708.517
941.171
825.855
659.93
877.176
877.176
877.176
645.978
858.313
852.288
839.331
712.595
990.108
725.25
849.628
564.541
554.498
808.119
568.361
677.955
659.055
689.545
762.379
762.379
762.379
632.647
666.978
682.936
668.075
826.746
826.746
826.746
577.388
538.57
526.164
822.293
822.293
822.293
733.726
640.605
583.889
568.128
576.354
662.468
576.406
899.037
553.41
543.981
1142.48
1110.59
1071.83
1783.91
1536.91
1343.93
2372.49
2284.16
850.296
1027.53
1301.95
1499.38
1288.02
692.82
935.608
827.591
2.06697e+161
876.204
876.204
876.204
948.867
631.202
858.003
849.124
847.798
704.145
977.897
717.301
848.967
563.811
554.018
809.984
568.853
678.852
657.268
687.422
764.363
764.363
764.363
630.418
664.518
684.253
669.419
828.053
828.053
828.053
578.296
538.627
525.387
823.329
823.329
823.329
735.841
642.65
583.881
566.747
574.595
662.212
576.077
898.935
552.716
543.364
1162.93
1110.36
1069.92
1540.18
1344.33
2452.62
2349.03
854.333
1039
1280.85
1392.28
1276.08
676.099
930.015
828.978
653.941
874.866
874.866
874.866
947.659
857.372
845.411
855.776
691.29
966.293
708.789
847.956
563.106
553.518
811.77
569.349
679.753
655.511
685.301
766.362
766.362
766.362
628.247
662.038
685.593
670.751
829.304
829.304
829.304
579.167
538.725
524.614
824.318
824.318
824.318
737.906
644.699
583.905
565.404
572.81
661.964
636.911
575.77
898.821
552.062
542.737
1161.92
1107.58
1068.61
1541.4
1346.66
2479.65
2393.76
858.469
1289.14
1285.93
658.589
9.09155e+223
829.934
650.429
731.71
873.194
873.194
873.194
870.656
870.656
870.656
945.68
856.319
684.532
841.164
863.119
680.531
955.222
699.658
846.708
562.446
552.999
813.488
569.849
539.992
680.669
653.789
683.186
768.356
768.356
768.356
626.132
659.543
686.965
642.143
672.084
830.452
830.452
830.452
742.147
580.002
538.865
523.843
825.226
825.226
825.226
739.887
646.748
583.952
564.096
570.996
661.731
637.722
575.481
898.698
551.454
542.071
1172.75
1106.16
1065.47
1015.83
1544.06
1347.49
2466.03
2411.32
862.536
1009.45
1286.04
1286.06
640.652
918.652
830.442
646.541
731.532
871.281
871.281
871.281
875.749
875.749
875.749
942.746
854.806
684.563
836.411
869.851
669.795
944.704
1165.63
690.214
845.185
561.802
552.448
815.12
570.354
540.198
681.607
652.098
681.07
770.311
770.311
770.311
624.057
657.038
688.318
645.09
673.422
831.508
831.508
831.508
744.413
580.804
539.02
523.081
826.062
826.062
826.062
741.779
648.799
584.033
562.826
569.15
661.515
638.532
575.202
898.568
550.812
541.375
1176.28
1104.82
1064.34
1011.85
1548.1
1348.05
2386.82
866.627
878.668
1289.9
1285.62
622.269
9.09155e+223
830.284
642.293
730.849
869.132
869.132
869.132
880.171
880.171
880.171
939.11
852.834
683.963
831.193
875.957
656.967
934.64
1166.42
680.616
843.487
561.153
551.861
816.654
760.388
570.864
540.41
682.567
650.428
678.94
772.23
772.23
772.23
622.025
654.522
689.643
648.003
674.751
832.485
832.485
832.485
746.579
581.573
539.188
522.332
826.832
826.832
826.832
743.59
650.85
584.15
561.594
567.281
661.288
639.309
574.934
898.414
550.138
540.657
1187.25
1103.66
1063.49
1009.33
1554.69
1348.9
1225.19
2323.12
867.914
874.952
1285.45
1284.98
603.936
9.09155e+223
829.627
637.723
729.257
866.517
866.517
866.517
883.971
883.971
883.971
934.515
850.383
682.835
825.62
881.409
643.386
924.937
1167.02
670.823
841.633
560.495
551.218
818.088
763.383
571.401
540.646
683.56
679.251
648.775
676.79
774.103
774.103
774.103
620.045
651.986
690.951
650.882
676.069
833.392
833.392
833.392
748.652
582.307
539.382
521.599
827.539
827.539
827.539
745.319
652.896
584.309
560.404
565.402
661.043
640.039
574.677
898.235
549.432
539.907
1194.28
1102.61
1062.59
1008.79
1561.49
1351.41
1221.38
1807.17
1795.58
2124.31
2412.96
2281.62
870.079
878.803
1284.58
1283.41
9.09155e+223
901.044
828.404
632.698
727.325
863.336
863.336
863.336
887.109
887.109
887.109
928.68
847.394
681.213
819.38
886.16
631.063
915.352
1167.39
661.328
839.566
559.832
550.538
819.413
766.405
571.967
540.906
684.583
679.913
647.139
674.619
775.925
775.925
775.925
618.117
649.439
692.243
653.73
677.382
834.236
834.236
834.236
750.634
650.972
583.05
539.614
520.867
828.191
828.191
828.191
746.971
654.934
584.51
559.253
563.517
660.782
640.721
574.429
898.045
548.696
539.137
1200.75
1101.4
1062.25
1008.97
1567.65
1355.84
1219.12
1790.41
1791.31
2018.44
2525.18
1739.52
2262.75
1752.04
873.937
881.031
1286.43
1285.98
1271.96
567.846
894.116
826.541
627.269
725.076
859.646
859.646
859.646
889.741
889.741
889.741
924.039
2293.72
843.817
679.037
812.568
890.175
905.754
1167.44
651.33
837.193
839.644
559.189
549.858
820.618
769.44
572.561
541.19
685.643
680.625
645.536
672.431
777.699
777.699
777.699
702.417
616.228
646.857
693.522
656.549
678.691
632.69
835.04
835.04
835.04
752.567
653.356
583.82
539.894
520.16
828.788
828.788
828.788
748.546
656.958
584.804
558.175
561.639
660.507
641.356
745.5
574.223
897.857
617.891
547.958
538.345
1209.04
1099.79
1061.27
1009.32
1571.76
1360.31
1217.28
1775.19
1777.32
1894.34
2586.97
1846.86
2273.74
1824.5
878.782
884.223
1285.68
1287.46
1217.92
550.224
886.972
823.904
621.539
722.387
855.497
855.497
855.497
892.028
892.028
892.028
915.413
912.837
839.707
676.217
805.127
893.438
882.271
895.887
1167.12
641.037
834.474
847.219
558.563
549.174
821.754
772.484
573.19
541.5
686.737
681.398
642.989
643.963
670.214
779.465
779.465
779.465
704.617
614.384
644.261
694.794
659.345
679.994
634.168
835.851
835.851
835.851
754.492
655.841
584.63
540.209
519.492
829.386
829.386
829.386
750.084
659.021
585.227
557.171
559.775
660.224
641.947
745.455
574.059
897.687
617.653
547.24
537.548
1211.57
1096.98
1060.24
1008.55
1573.94
1364.93
1215.89
1774.9
1815.39
2488.74
1920.98
2320.47
1982.34
888.65
888.709
1282.33
1300.17
1186.98
533.256
9.09155e+223
820.693
615.589
700.862
719.247
850.856
850.856
6.22655e+228
893.615
893.615
893.615
906.691
902.624
834.577
885.129
796.865
896.184
886.151
885.696
1166.34
632.121
831.401
853.941
557.96
548.475
822.871
775.511
573.862
541.838
687.865
682.231
643.144
642.42
667.966
781.239
781.239
781.239
706.877
612.589
641.652
696.053
662.116
681.295
635.673
836.677
836.677
836.677
756.415
658.417
585.48
540.571
518.876
829.997
829.997
829.997
751.616
661.13
585.799
556.25
557.915
659.935
642.494
745.402
573.939
897.548
617.42
546.543
536.743
1209.93
1088.51
1059.6
1007.1
1573.11
1370.42
1214.88
1773.7
1779.35
2368.75
2004.21
2142.09
899.286
891.407
1267.16
1448.88
1191.31
9.09155e+223
871.031
816.3
609.381
701.212
715.53
845.64
845.64
845.64
894.534
894.534
894.534
898.033
891.04
828.641
886.578
787.914
898.561
889.79
875.186
1165.06
622.167
827.958
859.817
557.345
547.777
823.942
778.552
574.594
542.213
689.023
683.124
643.404
640.911
665.651
709.207
613.866
610.842
639.028
697.307
664.86
637.207
837.525
837.525
837.525
758.341
661.078
586.388
541.005
518.319
830.625
830.625
830.625
753.142
663.288
586.531
555.416
556.101
659.645
642.993
745.347
573.864
897.432
617.21
545.862
535.948
1828.52
1067.05
1058.19
1006.35
1571.63
1375.27
1214.26
1773.07
1744.02
2319.28
2066.22
897.635
1234.93
1567.7
1193.01
500.098
862.642
9.09155e+223
602.82
701.344
710.619
839.616
839.616
839.616
894.883
894.883
894.883
887.283
878.098
821.753
887.939
778.093
900.563
893.166
864.03
1163.16
613.374
824.123
865.081
556.69
547.07
824.973
781.607
575.408
542.631
690.194
684.068
643.81
639.414
663.31
711.597
614.114
609.139
636.385
698.558
667.58
638.771
838.404
838.404
838.404
760.278
663.818
587.357
541.491
517.823
831.272
831.272
831.272
754.664
665.495
587.44
554.682
554.322
659.359
643.443
745.292
573.831
897.351
617.04
545.218
535.175
1856.23
1045.5
1057.11
1005.66
1569.94
1381.3
1213.72
1762.79
1709.05
1634.99
2352.94
2150.41
902.569
1209.94
1551.32
1193.93
2.06697e+161
854.024
9.09155e+223
595.966
701.263
704.615
832.787
832.787
832.787
894.944
894.944
894.944
874.935
863.659
813.936
889.192
767.462
902.169
896.262
852.232
1160.64
604.067
819.944
869.758
555.991
546.302
825.963
784.663
576.288
543.09
691.393
685.051
644.361
637.965
661.067
714.017
655.969
614.463
607.494
633.707
699.806
670.281
640.358
839.312
839.312
839.312
762.223
666.636
588.334
541.965
517.378
831.936
831.936
831.936
756.184
667.751
588.532
554.035
552.583
659.075
643.854
745.244
573.842
897.271
616.916
585.893
544.608
534.435
1883.1
1046.11
1055.96
1004.98
1567.42
1385.98
1213.1
1761.52
1688.4
1702.21
2151.48
910.654
1194.56
1342.24
1194.51
468.184
845.402
797.028
588.957
700.972
698.207
825.32
825.32
825.32
894.933
894.933
894.933
861.887
847.92
805.206
890.302
756.074
903.341
899.031
839.904
1157.37
594.73
815.416
873.868
555.265
545.488
826.944
787.703
577.223
543.578
520.967
692.625
686.058
686.856
645.064
636.603
658.909
716.426
658.005
614.912
605.907
631.021
701.052
672.968
641.966
840.231
840.231
840.231
764.133
669.451
589.331
542.428
516.943
832.616
832.616
832.616
757.702
670.056
589.813
553.449
550.846
658.797
644.23
745.209
573.903
765.791
616.843
585.629
543.974
533.67
1915.41
1056.22
1054.8
1004.29
1562.18
1386.81
1212.67
1759.22
1668.44
1716.48
2218.86
2422.72
1207.55
920.771
1183.54
1259.91
1194.16
452.632
836.595
9.09155e+223
700.47
691.463
817.215
817.215
817.215
895.725
894.944
894.944
849.152
831.24
795.547
891.257
745.135
904.071
901.447
827.639
1153.28
810.522
877.504
554.508
544.584
827.918
790.719
578.211
544.09
521.086
693.846
687.094
689.679
645.925
635.328
656.824
718.841
660.153
615.486
604.389
628.392
702.297
675.606
634.141
643.59
841.147
841.147
841.147
765.995
672.256
590.388
542.885
516.501
833.284
833.284
833.284
759.212
672.403
591.273
552.889
549.102
658.526
644.573
613.679
745.193
602.341
574.026
767.391
616.832
585.425
543.299
532.846
1943.08
1059.06
1053.51
1003.67
1557.13
1386.55
1212.58
1741.61
1649.66
1750.46
2301.81
2400.95
1201.01
932.854
1174.99
1237.86
1193.12
437.758
827.685
777.962
699.742
684.628
808.411
808.411
808.411
895.033
895.033
895.033
835.655
813.693
785.012
892.089
734.297
904.329
903.659
815.039
1148.33
805.244
880.755
553.712
543.569
828.843
793.701
579.236
544.619
521.237
695.086
688.178
692.648
646.945
634.181
654.799
721.285
662.422
616.19
602.975
625.856
703.576
678.186
638.427
645.237
842.055
842.055
842.055
767.809
675.044
591.51
543.392
516.076
833.927
833.927
833.927
760.677
674.734
592.865
552.353
547.344
658.263
644.883
615.061
745.197
603.441
574.213
768.981
616.902
585.189
561.031
542.591
531.963
1806.89
1996.23
1058.51
1051.33
1002.55
1551.05
1387.5
1212.81
1724.39
1633.15
1780.37
2335.03
2343.43
1195.19
942.687
1168.29
1209.67
1188.25
2.06697e+161
818.603
3.94662e+180
767.348
698.772
798.992
798.992
798.992
895.211
895.211
895.211
795.156
773.538
892.839
723.348
904.161
905.501
802.724
1142.49
799.558
883.768
568.677
552.903
542.473
796.636
580.292
545.166
521.422
508.332
696.349
689.308
695.77
648.127
633.158
652.821
723.762
664.816
617.025
601.663
623.397
704.859
680.725
642.729
646.917
769.573
677.813
592.712
543.938
515.7
834.544
834.544
834.544
762.102
677.048
594.578
551.895
545.589
657.998
645.13
616.39
745.224
708.532
604.597
574.46
770.587
584.932
560.504
541.837
531.041
1761.53
1994.88
1062.5
1049.98
1000.45
1543.39
1388.93
1213.42
1707.7
1628.65
1800.17
2304.88
1189.3
954.228
1162.92
1208.26
1189.21
410.325
808.955
1006.4
755.119
842.237
697.562
788.438
788.438
788.438
895.171
895.171
895.171
775.986
761.17
893.507
712.247
903.556
829.679
906.925
791.236
1135.78
793.514
886.369
568.125
552.11
541.391
799.506
755.492
581.386
545.728
521.641
508.273
690.478
699.057
649.473
632.241
650.893
726.27
667.334
617.988
600.484
621.007
683.229
647.104
648.627
771.284
680.559
594.001
544.523
515.367
835.14
835.14
835.14
763.487
679.343
596.392
551.52
543.939
657.717
645.315
617.665
745.274
709.108
605.796
574.765
772.185
584.688
559.999
541.092
530.134
1749.14
1934.53
1065.36
1048.5
998.585
1390.65
1214.22
1691.7
1625.38
1787.05
1457.11
2296.26
1627.15
1184.39
1158.15
1208.35
1186.14
399.411
9.09155e+223
999.458
741.683
844.608
696.119
894.722
894.722
894.722
756.676
747.973
894.086
700.822
902.467
840.28
907.991
779.946
1128.06
787.09
888.347
567.606
551.358
540.435
802.295
759.189
546.306
521.893
508.216
691.691
691.961
702.488
650.998
631.41
649.019
728.806
669.978
619.074
599.43
618.678
685.715
651.557
650.361
772.945
683.265
595.383
545.147
515.154
764.835
681.618
598.294
551.231
542.421
657.419
645.44
618.895
745.342
709.603
607.031
575.128
773.758
584.484
559.521
540.355
529.238
1757.09
1069.65
1046.49
996.698
1392.59
1215.13
1683.13
1622.25
1739.82
2606.02
1484.32
2286.19
1656.98
1180.18
1209.01
1185.89
2.06697e+161
992.366
9.09155e+223
847.038
694.44
893.951
893.951
893.951
737.121
734.004
894.553
689.089
900.936
851.42
908.671
769.943
1119.16
780.253
889.671
567.122
550.644
539.543
804.991
762.998
546.913
522.168
508.16
692.94
692.929
706.086
652.738
630.694
647.194
731.361
672.741
620.3
598.498
616.41
688.233
656.082
652.11
774.554
685.927
596.868
545.844
515.068
766.149
683.87
600.276
551.036
541.024
657.108
645.506
620.096
745.432
710.023
608.288
575.542
775.295
584.324
559.064
539.643