/*--------------------------------*- C++ -*----------------------------------*\
| =========                 |                                                 |
| \\      /  F ield         | OpenFOAM: The Open Source CFD Toolbox           |
|  \\    /   O peration     | Version:  2.1.1                                 |
|   \\  /    A nd           | Web:      www.OpenFOAM.org                      |
|    \\/     M anipulation  |                                                 |
\*---------------------------------------------------------------------------*/
FoamFile
{
    version     2.0;
    format      ascii;
    class       vectorField;
    location    "0.00135";
    object      U;
}
// * * * * * * * * * * * * * * * * * * * * * * * * * * * * * * * * * * * * * //


44454
(
(-0.595666 -0.0240919 0.0215029)
(22.4111 -1.43874 -1.2127)
(22.3434 -1.41612 -1.19288)
(22.259 -1.38865 -1.17026)
(22.1736 -1.35472 -1.14084)
(22.0863 -1.3127 -1.10295)
(22.0587 -1.25758 -1.04823)
(22.0039 -1.1998 -0.990959)
(21.9261 -1.13843 -0.931646)
(21.8488 -1.06901 -0.863197)
(21.7905 -0.990972 -0.782905)
(21.7741 -0.913034 -0.697953)
(21.6976 -0.847725 -0.628658)
(21.6096 -0.785289 -0.5647)
(21.576 -0.717157 -0.493492)
(21.4948 -0.666319 -0.447015)
(21.3573 -0.624675 -0.418587)
(22.8815 -1.50721 -1.38047)
(22.8269 -1.51572 -1.37414)
(22.7711 -1.52393 -1.36719)
(22.7147 -1.52511 -1.35484)
(22.6597 -1.52117 -1.33814)
(22.6001 -1.51451 -1.31799)
(22.5371 -1.50449 -1.29455)
(22.4681 -1.49075 -1.2686)
(22.4325 -1.47042 -1.23674)
(22.3615 -1.44643 -1.20517)
(22.2798 -1.41478 -1.1708)
(22.1878 -1.37614 -1.13414)
(22.0961 -1.32852 -1.09231)
(22.0832 -1.26502 -1.03068)
(22.0021 -1.20201 -0.972142)
(21.9083 -1.13186 -0.906777)
(21.814 -1.05089 -0.828669)
(21.8129 -0.957885 -0.730541)
(23.3322 -1.37688 -1.35755)
(21.7311 -0.885365 -0.65503)
(23.2847 -1.39972 -1.37189)
(8.89803 -0.37396 0.412729)
(21.6234 -0.819191 -0.588831)
(23.2385 -1.42372 -1.38611)
(8.6889 -0.380149 0.414366)
(21.5546 -0.748426 -0.517515)
(23.1864 -1.44145 -1.39624)
(8.46907 -0.385538 0.416494)
(21.492 -0.685717 -0.458013)
(23.1385 -1.45453 -1.40485)
(8.22658 -0.391772 0.419643)
(21.3194 -0.642734 -0.432014)
(23.0902 -1.46578 -1.41121)
(7.95375 -0.398741 0.423977)
(21.1398 -0.59403 -0.405455)
(23.0367 -1.47775 -1.41587)
(7.64512 -0.407291 0.429857)
(22.9794 -1.49106 -1.41854)
(7.30087 -0.41802 0.437308)
(22.9163 -1.50574 -1.4206)
(6.91494 -0.431482 0.446471)
(22.8482 -1.52157 -1.42029)
(6.4931 -0.448884 0.457422)
(22.7793 -1.53561 -1.4143)
(6.04446 -0.470836 0.469848)
(22.7165 -1.54031 -1.40098)
(5.57862 -0.496579 0.483964)
(22.6537 -1.53822 -1.38104)
(22.587 -1.53425 -1.35873)
(22.5121 -1.52568 -1.32998)
(22.447 -1.50947 -1.29294)
(10.422 -0.335957 0.432514)
(22.368 -1.48555 -1.25031)
(10.2944 -0.341393 0.42781)
(22.2829 -1.45124 -1.20385)
(10.1595 -0.347191 0.42383)
(22.1848 -1.40601 -1.15002)
(10.0115 -0.353876 0.42088)
(22.0949 -1.34674 -1.08765)
(23.5777 -1.18437 -1.27219)
(9.85658 -0.360991 0.418452)
(22.0671 -1.27306 -1.01752)
(23.5666 -1.21474 -1.28198)
(9.69024 -0.368689 0.416714)
(21.9466 -1.1999 -0.95321)
(23.5465 -1.2386 -1.28975)
(9.51477 -0.376627 0.415609)
(21.8174 -1.11342 -0.874615)
(23.5219 -1.25992 -1.29584)
(9.32943 -0.384855 0.415177)
(21.7926 -1.00637 -0.766604)
(23.4934 -1.28148 -1.30584)
(9.13588 -0.393178 0.415207)
(21.7068 -0.919785 -0.678473)
(23.4607 -1.30284 -1.32155)
(8.93085 -0.401452 0.415745)
(21.556 -0.845397 -0.607042)
(23.4189 -1.32491 -1.33953)
(8.71587 -0.40879 0.416593)
(21.4948 -0.758122 -0.519451)
(23.3697 -1.34864 -1.35834)
(8.49173 -0.415792 0.417764)
(21.3503 -0.696201 -0.46968)
(23.3144 -1.37594 -1.37977)
(8.24217 -0.423488 0.420073)
(21.0762 -0.649915 -0.45338)
(23.2577 -1.40443 -1.40727)
(7.95761 -0.43164 0.423759)
(20.8751 -0.58014 -0.411041)
(23.1967 -1.42748 -1.42911)
(7.63843 -0.44185 0.429023)
(23.1371 -1.44502 -1.44405)
(7.27892 -0.452794 0.435832)
(23.0748 -1.46228 -1.45412)
(6.87999 -0.467098 0.44439)
(23.0063 -1.48334 -1.4647)
(6.55893 -0.455622 -0.343003)
(6.44184 -0.483525 0.454812)
(22.9322 -1.50836 -1.47548)
(6.51473 -0.447146 -0.346432)
(5.97218 -0.505695 0.467417)
(11.1478 -0.321094 0.481611)
(22.8472 -1.5349 -1.48092)
(6.46723 -0.438947 -0.350028)
(5.49238 -0.531886 0.481104)
(11.0445 -0.324897 0.473886)
(22.7619 -1.55547 -1.47695)
(6.41712 -0.430977 -0.353714)
(5.02446 -0.561432 0.495607)
(10.9356 -0.32911 0.466425)
(22.6838 -1.5645 -1.46421)
(6.36473 -0.423215 -0.357478)
(10.8199 -0.333908 0.459243)
(22.6029 -1.56757 -1.44203)
(6.30992 -0.415661 -0.361333)
(10.6964 -0.339312 0.452423)
(22.5155 -1.5643 -1.40862)
(6.25307 -0.408273 -0.36526)
(10.5648 -0.345356 0.44605)
(22.4232 -1.55252 -1.3645)
(23.624 -0.852693 -1.14911)
(6.19377 -0.401141 -0.369261)
(10.4262 -0.351985 0.44018)
(22.3253 -1.52942 -1.31376)
(23.621 -0.89772 -1.15907)
(6.13186 -0.394299 -0.373331)
(10.2775 -0.359348 0.435194)
(22.2266 -1.48817 -1.25143)
(23.618 -0.94265 -1.16703)
(6.06683 -0.38765 -0.377503)
(10.1197 -0.367663 0.431034)
(22.111 -1.43068 -1.1775)
(23.6148 -0.988231 -1.17519)
(5.99814 -0.381152 -0.381804)
(9.95392 -0.376689 0.427432)
(22.0497 -1.35019 -1.08714)
(23.6148 -1.03669 -1.19025)
(5.92631 -0.374739 -0.386239)
(9.7767 -0.386539 0.424538)
(21.9309 -1.264 -1.00173)
(23.6145 -1.08775 -1.20979)
(5.85072 -0.36841 -0.390821)
(9.59238 -0.396581 0.422284)
(21.7695 -1.16579 -0.913816)
(23.6176 -1.14375 -1.23539)
(9.39951 -0.407266 0.420644)
(21.7319 -1.03953 -0.78952)
(23.6059 -1.18593 -1.25714)
(9.19971 -0.417886 0.41941)
(21.602 -0.941356 -0.693062)
(23.5812 -1.21631 -1.27154)
(8.98937 -0.428049 0.418642)
(21.3901 -0.857922 -0.617282)
(23.5539 -1.24261 -1.28652)
(7.20755 -0.381914 -0.881951)
(8.76997 -0.437811 0.418118)
(21.3376 -0.752031 -0.513722)
(23.5189 -1.26738 -1.30747)
(7.13741 -0.376627 -0.880827)
(8.54157 -0.44653 0.417566)
(21.0002 -0.701461 -0.497385)
(23.4732 -1.29217 -1.33073)
(7.06263 -0.37164 -0.880043)
(8.28569 -0.454944 0.417888)
(20.7349 -0.619043 -0.450013)
(23.4192 -1.31983 -1.35589)
(6.98515 -0.505323 -0.362764)
(6.98404 -0.366849 -0.879533)
(7.99906 -0.46393 0.419232)
(11.9585 -0.300546 0.551949)
(23.3587 -1.35175 -1.38946)
(6.94484 -0.495986 -0.365698)
(6.90081 -0.362177 -0.87949)
(7.6732 -0.474381 0.421939)
(11.8612 -0.303361 0.542826)
(23.2864 -1.38843 -1.42851)
(6.90119 -0.487074 -0.368638)
(6.81389 -0.357552 -0.879756)
(7.30279 -0.485968 0.426521)
(11.7617 -0.306273 0.533761)
(23.2116 -1.4207 -1.45828)
(6.85421 -0.478521 -0.371603)
(6.72373 -0.352923 -0.880285)
(6.8848 -0.500673 0.433228)
(11.6591 -0.309402 0.524768)
(23.1393 -1.44603 -1.47681)
(6.80446 -0.470229 -0.374603)
(6.63005 -0.348387 -0.881)
(6.41895 -0.51979 0.442546)
(11.5521 -0.312902 0.515881)
(23.0636 -1.47215 -1.49428)
(6.75184 -0.462218 -0.377653)
(6.53218 -0.34394 -0.881907)
(5.92116 -0.542143 0.454261)
(11.4406 -0.31671 0.507088)
(22.9791 -1.5041 -1.51316)
(6.69657 -0.454467 -0.380765)
(6.43103 -0.339462 -0.882972)
(5.41337 -0.571689 0.467632)
(11.3235 -0.321027 0.49835)
(22.7186 0.0409676 0.0429513)
(22.8825 -1.54017 -1.52843)
(23.758 -0.283238 -0.76574)
(6.64075 -0.446879 -0.383545)
(6.32877 -0.334889 -0.88381)
(4.93639 -0.602464 0.481825)
(11.2002 -0.325842 0.48999)
(11.0072 -0.225742 -0.779958)
(22.7161 0.040932 0.0428127)
(22.7289 0.0410039 0.00910368)
(22.7758 -1.57296 -1.53196)
(23.7369 -0.368313 -0.832569)
(6.58296 -0.439374 -0.386444)
(6.22308 -0.330119 -0.884868)
(4.55621 -0.630703 0.492387)
(11.0712 -0.331266 0.481634)
(10.698 -0.199009 -0.787889)
(22.7135 0.0408597 0.0426704)
(22.7265 0.0410674 0.009111)
(22.676 -1.59407 -1.52807)
(23.723 -0.456353 -0.902671)
(6.52273 -0.432036 -0.389457)
(6.11481 -0.325077 -0.886137)
(10.9337 -0.337519 0.473456)
(10.351 -0.168526 -0.796178)
(22.764 -0.0672044 0.0504725)
(22.7109 0.0407554 0.0425276)
(22.7241 0.0411017 0.00913016)
(22.5778 -1.6049 -1.51079)
(23.707 -0.540721 -0.964392)
(6.46067 -0.424795 -0.392596)
(6.00437 -0.319761 -0.887557)
(8.29321 -0.434862 -0.932862)
(10.7908 -0.344484 0.465478)
(9.96962 -0.130781 -0.803953)
(22.7618 -0.0674411 0.050642)
(22.7084 0.0406186 0.0423818)
(22.7606 0.036515 0.0443288)
(22.7218 0.0411042 0.00915775)
(22.4706 -1.60662 -1.47511)
(23.6898 -0.618184 -1.01566)
(6.39681 -0.417647 -0.395836)
(5.89092 -0.314276 -0.889095)
(8.27532 -0.42403 -0.926663)
(10.6413 -0.352082 0.457864)
(9.55684 -0.0860061 -0.811263)
(22.7596 -0.0676542 0.0508134)
(22.706 0.0404485 0.0422286)
(22.758 0.0369717 0.0442951)
(22.7195 0.0410717 0.00919027)
(22.7659 0.0359996 0.0118862)
(22.354 -1.59705 -1.42513)
(23.6769 -0.688431 -1.059)
(6.33062 -0.410665 -0.399225)
(5.77498 -0.308557 -0.890735)
(8.24344 -0.414917 -0.921771)
(10.4818 -0.360768 0.451005)
(9.26153 -0.0667924 -0.817423)
(22.7575 -0.0678417 0.0509858)
(22.7982 -0.0598187 0.0478625)
(22.7037 0.0402443 0.0420622)
(22.7554 0.0374274 0.0442497)
(22.7173 0.0410004 0.00922458)
(22.7637 0.0365202 0.0115681)
(22.2415 -1.56614 -1.36169)
(23.6652 -0.750297 -1.08991)
(6.26158 -0.403771 -0.402764)
(5.65521 -0.302544 -0.892517)
(8.2076 -0.406461 -0.917238)
(10.3154 -0.370393 0.444866)
(9.05191 -0.0572366 -0.821615)
(22.7554 -0.068002 0.0511588)
(22.7965 -0.0603348 0.04797)
(22.7015 0.0400048 0.0418799)
(22.7529 0.0378826 0.0441927)
(22.7152 0.0408854 0.00925644)
(22.7615 0.0370236 0.0112345)
(22.1202 -1.5126 -1.28051)
(23.6557 -0.807249 -1.10984)
(6.18942 -0.396937 -0.406475)
(5.53256 -0.296163 -0.894407)
(8.16802 -0.398624 -0.912995)
(10.138 -0.381399 0.439546)
(8.86369 -0.0496598 -0.825317)
(22.7532 -0.0681328 0.0513318)
(22.7947 -0.0608457 0.0480903)
(22.6994 0.0397277 0.0416798)
(22.7505 0.0383382 0.0441234)
(22.7131 0.04072 0.00927643)
(22.7594 0.0374997 0.0108814)
(22.006 -1.4332 -1.17967)
(23.6488 -0.862236 -1.12501)
(6.1146 -0.3901 -0.410367)
(8.12462 -0.391372 -0.909041)
(9.95638 -0.392791 0.434819)
(8.69135 -0.0417864 -0.828226)
(22.7512 -0.0682324 0.0515046)
(22.793 -0.0613515 0.0482237)
(22.6975 0.0394148 0.0414547)
(22.7482 0.0387957 0.0440401)
(22.7112 0.0405052 0.00929777)
(22.7574 0.0379492 0.0105202)
(21.8818 -1.33544 -1.07095)
(23.6427 -0.916451 -1.13813)
(6.03657 -0.383289 -0.414453)
(8.07686 -0.384706 -0.905436)
(9.76523 -0.405174 0.430825)
(8.55174 -0.0336786 -0.829164)
(22.7491 -0.0682984 0.051678)
(22.7913 -0.0618498 0.048373)
(22.6957 0.0390623 0.0412185)
(22.746 0.0392599 0.0439393)
(22.7092 0.0402591 0.00937233)
(22.7552 0.0383859 0.0101952)
(21.7002 -1.22051 -0.959696)
(23.6383 -0.971783 -1.15252)
(5.95548 -0.37647 -0.418739)
(8.02451 -0.378572 -0.902218)
(9.56675 -0.418202 0.427446)
(8.42944 -0.0255705 -0.82914)
(22.7471 -0.0683282 0.0518453)
(22.7895 -0.0623431 0.0485198)
(22.7017 0.0450465 0.0912296)
(22.6938 0.038668 0.0410072)
(22.7438 0.0396878 0.0438459)
(22.7948 0.0294888 0.0438323)
(22.7071 0.0399793 0.00949623)
(22.753 0.0388047 0.00990468)
(22.7478 -0.0650195 0.0291088)
(21.644 -1.07433 -0.817296)
(23.6358 -1.02848 -1.17417)
(5.87116 -0.369641 -0.423219)
(7.96714 -0.37298 -0.899428)
(9.35898 -0.431824 0.424762)
(12.9571 -0.261552 0.629841)
(8.30529 -0.0175485 -0.829423)
(22.745 -0.068319 0.0520001)
(22.7877 -0.0628283 0.0486635)
(22.6997 0.0445649 0.0911892)
(22.6918 0.0382319 0.0408168)
(22.7414 0.0400697 0.0437627)
(22.7927 0.0301331 0.043918)
(22.705 0.0396637 0.00966655)
(22.7508 0.0392016 0.00964571)
(22.5621 0.00826223 -0.0151348)
(22.7456 -0.0648768 0.0293568)
(22.7943 -0.0627766 0.0242115)
(21.4573 -0.966166 -0.714708)
(23.6337 -1.08876 -1.20033)
(5.78375 -0.362736 -0.427835)
(7.48501 -0.534061 -0.385687)
(7.90428 -0.367849 -0.897096)
(9.14212 -0.444624 0.422636)
(12.8551 -0.266368 0.620314)
(8.17933 -0.00971148 -0.829995)
(22.7429 -0.0682701 0.0521428)
(22.7858 -0.0633043 0.0488057)
(22.8176 -0.0524467 0.0470364)
(22.6977 0.0440522 0.0911231)
(22.6898 0.0377547 0.0406427)
(22.739 0.0404056 0.0436854)
(22.7905 0.0307566 0.0439937)
(22.7028 0.0393111 0.00987973)
(22.7485 0.0395724 0.00941683)
(22.7925 0.0289784 0.0158495)
(22.5599 0.00813951 -0.0143454)
(22.6063 0.00992492 -0.0250467)
(22.7433 -0.0646944 0.0296282)
(22.7922 -0.0631293 0.0243075)
(21.2349 -0.864688 -0.622734)
(23.6334 -1.1532 -1.2379)
(5.69258 -0.355823 -0.43256)
(7.45035 -0.523463 -0.387777)
(7.83605 -0.363141 -0.895217)
(8.92331 -0.45558 0.420189)
(12.7498 -0.270976 0.610981)
(8.05414 -0.00236619 -0.830832)
(22.7408 -0.0681808 0.0522738)
(22.7839 -0.063769 0.0489476)
(22.8163 -0.0529539 0.0470543)
(22.6957 0.0435084 0.0910328)
(22.7341 0.0503771 0.0872675)
(22.6877 0.0372368 0.0404802)
(22.7365 0.0406964 0.0436093)
(22.7882 0.0313596 0.0440602)
(22.7006 0.0389208 0.0101321)
(22.7461 0.0399138 0.00921685)
(22.7905 0.0295803 0.0154621)
(22.5578 0.00801035 -0.013545)
(22.6037 0.00992333 -0.0249207)
(22.741 -0.0644741 0.0299195)
(22.79 -0.0634563 0.0244244)
(21.0486 -0.765923 -0.541168)
(23.6104 -1.19673 -1.26282)
(5.59737 -0.348858 -0.437463)
(7.41452 -0.513277 -0.389866)
(7.7626 -0.358749 -0.893785)
(8.69353 -0.465189 0.417618)
(12.642 -0.275478 0.601817)
(7.92863 0.0046967 -0.831941)
(22.7386 -0.068051 0.0523934)
(22.7819 -0.0642203 0.0490903)
(22.8151 -0.0534662 0.0470757)
(22.6937 0.0429356 0.0909194)
(22.732 0.0502522 0.0875955)
(22.6856 0.0366805 0.0403271)
(22.7339 0.0409418 0.0435328)
(22.7858 0.0319436 0.0441169)
(22.6984 0.0384924 0.0104194)
(22.7437 0.0402229 0.00904453)
(22.7884 0.0301834 0.0150886)
(22.5556 0.00787434 -0.0127372)
(22.6012 0.0099133 -0.0247632)
(22.7386 -0.064218 0.0302276)
(22.7878 -0.0637589 0.0245606)
(20.6356 -0.697187 -0.519627)
(23.5801 -1.23145 -1.28505)
(7.37567 -0.503548 -0.391927)
(7.68326 -0.354727 -0.892767)
(8.43588 -0.474259 0.415712)
(12.5283 -0.280012 0.59293)
(7.80235 0.0115336 -0.833339)
(12.3677 -0.263147 -0.778335)
(22.7365 -0.0678811 0.0525018)
(22.7799 -0.0646552 0.0492347)
(22.8137 -0.0539813 0.0471028)
(22.6918 0.0423391 0.0907843)
(22.7298 0.0501108 0.0879085)
(22.6834 0.0360859 0.0401761)
(22.7313 0.0411426 0.0434516)
(22.7834 0.0325101 0.0441633)
(22.6962 0.0380265 0.0107376)
(22.7413 0.0404975 0.00889882)
(22.7863 0.0307821 0.0147281)
(22.5534 0.00773095 -0.0119252)
(22.5986 0.00989441 -0.0245737)
(22.7362 -0.063928 0.030549)
(22.7855 -0.0640385 0.0247147)
(20.062 -0.635848 -0.522572)
(23.5417 -1.26001 -1.31173)
(7.33313 -0.494289 -0.393968)
(7.59802 -0.35114 -0.892096)
(8.14352 -0.484708 0.41484)
(12.413 -0.284303 0.584227)
(7.67337 0.0184641 -0.835069)
(12.2188 -0.262009 -0.785363)
(22.7343 -0.0676717 0.0525991)
(22.7779 -0.0650714 0.0493819)
(22.8123 -0.0544997 0.0471348)
(22.6899 0.0417197 0.0906277)
(22.7276 0.0499556 0.0882063)
(22.6813 0.035453 0.0400201)
(22.7287 0.0412994 0.0433616)
(22.7809 0.0330585 0.0441999)
(22.694 0.0375238 0.0110826)
(22.7389 0.0407357 0.00877944)
(22.7841 0.0313721 0.0143803)
(22.5513 0.00757953 -0.0111121)
(22.5961 0.00986624 -0.0243516)
(22.7338 -0.0636061 0.0308805)
(22.7832 -0.0642962 0.0248852)
(23.4893 -1.28935 -1.3414)
(7.28678 -0.485479 -0.396017)
(7.50734 -0.347898 -0.891752)
(7.80823 -0.495828 0.415339)
(12.2961 -0.288411 0.575657)
(7.54449 0.025486 -0.837037)
(12.0394 -0.256816 -0.793262)
(22.7322 -0.0674229 0.0526857)
(22.7758 -0.0654677 0.0495324)
(22.8109 -0.0550179 0.0471742)
(22.688 0.0410782 0.0904496)
(22.7255 0.0497886 0.0884891)
(22.6792 0.0347829 0.0398531)
(22.726 0.0414133 0.0432593)
(22.7783 0.033589 0.0442271)
(22.6919 0.0369851 0.0114518)
(22.7365 0.0409365 0.0086858)
(22.7819 0.03195 0.0140457)
(22.5491 0.00741941 -0.010301)
(22.5936 0.00982824 -0.024097)
(22.7313 -0.0632542 0.031219)
(22.7808 -0.0645325 0.0250704)
(23.4276 -1.32242 -1.37516)
(7.23682 -0.47706 -0.398088)
(7.41114 -0.344876 -0.891755)
(7.42063 -0.509796 0.417967)
(12.1743 -0.292589 0.567223)
(7.41524 0.0325644 -0.839355)
(11.8312 -0.246753 -0.802295)
(22.7301 -0.0671347 0.0527616)
(22.7737 -0.0658424 0.0496864)
(22.8094 -0.0555364 0.04722)
(22.7121 0.0269278 0.102138)
(22.6861 0.0404224 0.0902506)
(22.7233 0.0496093 0.0887576)
(22.6771 0.0340816 0.0396777)
(22.7234 0.0414887 0.0431466)
(22.7758 0.034103 0.044245)
(22.6897 0.0364151 0.0118383)
(22.734 0.041106 0.0086135)
(22.7796 0.0325189 0.0137229)
(22.547 0.00724976 -0.00949519)
(22.591 0.00977991 -0.02381)
(22.7289 -0.062874 0.0315616)
(22.7784 -0.0647475 0.0252692)
(23.3562 -1.35979 -1.4191)
(7.18367 -0.468971 -0.400194)
(7.31006 -0.341964 -0.892058)
(6.97883 -0.525968 0.422876)
(12.05 -0.296825 0.558809)
(7.2838 0.0398831 -0.84209)
(11.5879 -0.234158 -0.811556)
(22.728 -0.0668121 0.0528278)
(22.7716 -0.066198 0.0498447)
(22.8079 -0.0560553 0.0472732)
(22.676 0.0234813 0.0998496)
(22.7101 0.02693 0.102287)
(22.6843 0.0397541 0.0900322)
(22.7212 0.0494169 0.0890112)
(22.6751 0.0333534 0.0394973)
(22.7207 0.0415278 0.0430263)
(22.7732 0.0346057 0.0442553)
(22.6876 0.0358165 0.0122379)
(22.7316 0.0412435 0.00856402)
(22.7773 0.0330822 0.0134089)
(22.5448 0.00706954 -0.00869758)
(22.5885 0.00972062 -0.023491)
(22.7265 -0.0624671 0.0319062)
(22.776 -0.0649403 0.0254802)
(22.8186 -0.0569538 0.0230422)
(23.2695 -1.40434 -1.46529)
(24.2132 0.285246 -0.290554)
(7.12709 -0.461218 -0.402367)
(7.20456 -0.339061 -0.892623)
(8.892 -0.483512 -0.990372)
(6.48327 -0.548527 0.43076)
(11.9248 -0.301064 0.550391)
(7.14956 0.0472531 -0.845369)
(11.3124 -0.216378 -0.820534)
(22.7258 -0.0664552 0.052884)
(22.7695 -0.0665333 0.0500074)
(22.8064 -0.0565764 0.0473319)
(22.6743 0.0231844 0.0994621)
(22.7081 0.0269069 0.102425)
(22.6825 0.0390738 0.0897958)
(22.719 0.0492106 0.0892501)
(22.7551 0.0508662 0.0805126)
(22.673 0.0326001 0.0393127)
(22.7181 0.0415297 0.0428992)
(22.7705 0.0350988 0.0442595)
(22.6855 0.0351939 0.0126448)
(22.7291 0.0413539 0.00853446)
(22.775 0.0336448 0.0131008)
(22.5427 0.00687763 -0.00791078)
(22.586 0.00964913 -0.023141)
(22.7241 -0.0620343 0.0322519)
(22.7736 -0.0651096 0.025703)
(22.8168 -0.0574553 0.0230497)
(23.1835 -1.44228 -1.49797)
(24.1215 0.219815 -0.363181)
(7.06734 -0.453743 -0.404609)
(7.09575 -0.335967 -0.893441)
(8.93084 -0.464666 -0.979622)
(5.94632 -0.574836 0.442081)
(11.7943 -0.305637 0.542038)
(7.01036 0.0547335 -0.849384)
(11.0073 -0.191817 -0.829103)
(22.7238 -0.0660643 0.0529304)
(22.7673 -0.0668462 0.0501742)
(22.8048 -0.0571008 0.0473971)
(22.6727 0.0228673 0.0990607)
(22.7061 0.0268554 0.102554)
(22.6808 0.0383816 0.0895428)
(22.7169 0.0489894 0.0894746)
(22.7533 0.0509425 0.0810381)
(22.6711 0.0318225 0.0391255)
(22.7155 0.0414928 0.042766)
(22.7679 0.0355808 0.0442579)
(22.6834 0.034551 0.0130518)
(22.7267 0.0414387 0.00852208)
(22.7727 0.0342065 0.0127965)
(22.5406 0.00667125 -0.00713875)
(22.5836 0.00956727 -0.0227565)
(22.7217 -0.0615763 0.0325981)
(22.7711 -0.0652542 0.0259374)
(22.8149 -0.0579485 0.0230666)
(23.1001 -1.47257 -1.52048)
(23.9799 0.135609 -0.424355)
(7.00475 -0.4465 -0.406925)
(6.98332 -0.332716 -0.894461)
(8.96137 -0.447062 -0.969511)
(5.40007 -0.606505 0.455492)
(11.6603 -0.310506 0.533644)
(6.86634 0.0619291 -0.854274)
(10.6622 -0.162243 -0.837809)
(22.7217 -0.0656396 0.0529665)
(22.7652 -0.0671344 0.0503446)
(22.8032 -0.057629 0.0474689)
(22.6712 0.0225275 0.0986477)
(22.7043 0.026772 0.102676)
(22.6791 0.0376779 0.0892746)
(22.7148 0.0487523 0.0896853)
(22.7515 0.0510143 0.0815584)
(22.6691 0.0310251 0.0389407)
(22.7129 0.0414206 0.0426298)
(22.7652 0.036054 0.0442513)
(22.6813 0.0338875 0.0134562)
(22.7243 0.0414947 0.00852464)
(22.7704 0.0347656 0.0124939)
(22.5385 0.00645649 -0.00637898)
(22.5811 0.00948247 -0.0223281)
(22.7194 -0.0610934 0.0329442)
(22.7686 -0.0653725 0.0261833)
(22.813 -0.0584338 0.0230912)
(23.0061 -1.50963 -1.54598)
(23.8994 0.0572944 -0.47775)
(6.93975 -0.439429 -0.409317)
(6.86805 -0.329435 -0.895549)
(8.98364 -0.430673 -0.960022)
(4.91234 -0.640776 0.468838)
(11.5209 -0.315816 0.525213)
(6.71628 0.0683718 -0.860158)
(10.2756 -0.124878 -0.845747)
(22.7197 -0.065186 0.0529919)
(22.763 -0.0674018 0.0505178)
(22.8015 -0.0581593 0.0475482)
(22.4693 -0.0401925 0.0620103)
(22.6697 0.0221619 0.0982249)
(22.7025 0.0266492 0.102796)
(22.6774 0.0369628 0.0889929)
(22.7128 0.0484981 0.0898831)
(22.7497 0.0510827 0.0820739)
(22.6672 0.0302075 0.0387555)
(22.7104 0.0413155 0.0424921)
(22.7625 0.036523 0.0442389)
(22.6793 0.033203 0.0138544)
(22.7219 0.0415197 0.00853976)
(22.768 0.0353196 0.0121902)
(22.5364 0.00623745 -0.00563282)
(22.5787 0.00939456 -0.0218568)
(22.717 -0.060586 0.0332886)
(22.7661 -0.0654626 0.026439)
(22.8111 -0.0589107 0.0231232)
(22.9006 -1.55286 -1.57001)
(23.8616 -0.0182458 -0.537403)
(6.87235 -0.432516 -0.411813)
(6.74972 -0.326042 -0.896759)
(8.98785 -0.416654 -0.951885)
(4.53046 -0.667866 0.478522)
(11.3745 -0.321796 0.516734)
(6.5597 0.0735377 -0.867178)
(9.94356 -0.100822 -0.85282)
(22.7177 -0.064705 0.0530054)
(22.7608 -0.067647 0.0506931)
(22.7999 -0.0586908 0.0476355)
(22.4687 -0.0393965 0.0618748)
(22.6682 0.0217674 0.0977949)
(22.7006 0.0265241 0.102878)
(22.6758 0.0362363 0.0886996)
(22.7108 0.048226 0.0900698)
(22.7478 0.0511384 0.0825754)
(22.6653 0.0293657 0.0385635)
(22.7079 0.0411776 0.04235)
(22.7599 0.0369885 0.0442191)
(22.6773 0.0324962 0.0142407)
(22.7196 0.0415112 0.00856415)
(22.7657 0.0358648 0.0118818)
(22.5342 0.00601398 -0.0049014)
(22.5763 0.00930332 -0.0213437)
(22.7147 -0.0600549 0.0336284)
(22.7636 -0.0655244 0.0267026)
(22.8092 -0.059379 0.0231608)
(22.7788 -1.5951 -1.58017)
(23.8281 -0.100495 -0.602254)
(6.8028 -0.425733 -0.414426)
(6.62742 -0.322508 -0.898183)
(8.97927 -0.404368 -0.944896)
(11.2265 -0.328192 0.508171)
(6.39424 0.077316 -0.875565)
(9.6851 -0.087921 -0.858226)
(22.7157 -0.0641994 0.053007)
(22.7586 -0.0678675 0.05087)
(22.7982 -0.0592229 0.0477315)
(22.4682 -0.0386147 0.0617678)
(22.6669 0.021338 0.0973631)
(22.6988 0.0263984 0.102921)
(22.7343 0.0256106 0.0984786)
(22.6742 0.035498 0.0883972)
(22.7088 0.0479333 0.0902431)
(22.746 0.0511795 0.0830601)
(22.6635 0.0284989 0.0383614)
(22.7055 0.0410056 0.042199)
(22.7573 0.0374517 0.0441896)
(22.6754 0.0317668 0.0146089)
(22.7173 0.041466 0.00859422)
(22.7635 0.0363977 0.0115653)
(22.5321 0.00578619 -0.00418523)
(22.574 0.00920846 -0.0207903)
(22.7125 -0.059501 0.0339597)
(22.7612 -0.0655584 0.0269713)
(22.8072 -0.0598394 0.0232029)
(22.6596 -1.62648 -1.58449)
(23.8052 -0.184212 -0.672364)
(6.73092 -0.419095 -0.417182)
(6.50213 -0.318725 -0.899763)
(8.96421 -0.393011 -0.938318)
(11.0719 -0.33536 0.499649)
(9.47982 -0.0785522 -0.861373)
(22.7137 -0.0636715 0.0529964)
(22.7564 -0.0680618 0.0510478)
(22.7965 -0.0597529 0.0478371)
(22.4678 -0.0378441 0.0616888)
(22.6655 0.0209088 0.0969004)
(22.6969 0.0262696 0.102926)
(22.7324 0.0257832 0.098854)
(22.6727 0.0347487 0.088093)
(22.7068 0.0476137 0.0903821)
(22.744 0.0512054 0.0835277)
(22.6618 0.0276072 0.0381475)
(22.7032 0.0407968 0.0420332)
(22.7547 0.037913 0.0441497)
(22.6736 0.0310121 0.0149564)
(22.7151 0.0413806 0.00862587)
(22.7612 0.0369145 0.0112382)
(22.5299 0.00555376 -0.00348511)
(22.5717 0.00910997 -0.0201979)
(22.7103 -0.0589252 0.0342782)
(22.7587 -0.0655657 0.0272422)
(22.8053 -0.0602926 0.0232481)
(22.5413 -1.64564 -1.57609)
(23.7773 -0.275178 -0.744665)
(6.65738 -0.412535 -0.420063)
(6.37418 -0.314477 -0.901539)
(8.94223 -0.382561 -0.932182)
(10.9086 -0.343517 0.491409)
(9.31134 -0.0710342 -0.86311)
(22.7118 -0.063122 0.0529734)
(22.7543 -0.0682279 0.0512259)
(22.7947 -0.0602804 0.0479532)
(22.4673 -0.0370803 0.0616367)
(22.6641 0.0204809 0.096406)
(22.695 0.0261355 0.102893)
(22.7304 0.0259505 0.0992091)
(22.6713 0.0339854 0.0877724)
(22.7048 0.0472661 0.0904875)
(22.7421 0.0512148 0.0839788)
(22.6602 0.0266888 0.0379187)
(22.7009 0.0405499 0.0418543)
(22.7522 0.0383738 0.0440987)
(22.6718 0.0302282 0.0152786)
(22.713 0.0412507 0.00865472)
(22.7591 0.0374109 0.0108967)
(22.5277 0.00531685 -0.00280103)
(22.5694 0.00900778 -0.0195685)
(22.7081 -0.0583285 0.0345787)
(22.7563 -0.0655478 0.0275118)
(22.8033 -0.060739 0.0232949)
(22.4085 -1.65534 -1.54736)
(23.758 -0.372292 -0.824336)
(7.30448 0.262554 0.12974)
(6.58242 -0.406024 -0.423057)
(6.24387 -0.309772 -0.903478)
(8.91339 -0.372971 -0.926529)
(10.7416 -0.352379 0.483514)
(9.14135 -0.063611 -0.865316)
(22.71 -0.0625515 0.0529374)
(22.7521 -0.0683639 0.0514038)
(22.793 -0.0608046 0.0480809)
(22.4669 -0.036318 0.0616106)
(22.6627 0.0200531 0.0958808)
(22.6931 0.0259942 0.102825)
(22.7284 0.0261104 0.0995452)
(22.6698 0.0332105 0.0874174)
(22.7028 0.0468891 0.0905609)
(22.7401 0.0512074 0.0844137)
(22.6587 0.0257411 0.0376709)
(22.6988 0.0402673 0.041659)
(22.7498 0.0388348 0.0440353)
(22.6702 0.0294112 0.0155692)
(22.711 0.0410678 0.00866788)
(22.757 0.0378787 0.0105312)
(22.5256 0.00507579 -0.00213239)
(22.5672 0.00890172 -0.0189043)
(22.7061 -0.0577112 0.0348561)
(22.7539 -0.0655065 0.0277758)
(22.8013 -0.0611799 0.0233418)
(22.2667 -1.64634 -1.49234)
(23.738 -0.474708 -0.903068)
(7.08845 0.280648 0.126639)
(6.50418 -0.399654 -0.426275)
(6.11025 -0.304791 -0.905492)
(8.88015 -0.364016 -0.921272)
(10.5658 -0.362666 0.476091)
(8.99453 -0.0556752 -0.866189)
(22.7083 -0.0619618 0.052888)
(22.75 -0.068468 0.0515812)
(22.7913 -0.0613222 0.0482211)
(22.4665 -0.0355682 0.0616109)
(22.6613 0.019624 0.0953261)
(22.6912 0.025844 0.102722)
(22.7264 0.0262615 0.0998633)
(22.6683 0.0324246 0.0870291)
(22.7008 0.0464822 0.0906039)
(22.7381 0.0511831 0.0848324)
(22.6573 0.0247588 0.0373943)
(22.6969 0.039951 0.0414383)
(22.7474 0.0392964 0.0439585)
(22.6687 0.028554 0.0158172)
(22.709 0.0408439 0.00870458)
(22.7549 0.0383279 0.010177)
(22.5234 0.00483083 -0.00147849)
(22.5649 0.00879163 -0.0182075)
(22.7516 -0.0654442 0.0280297)
(22.7994 -0.0616167 0.0233873)
(22.1351 -1.60703 -1.41519)
(23.7171 -0.572185 -0.971513)
(6.86382 0.299361 0.123694)
(6.42344 -0.393279 -0.429697)
(5.97305 -0.299426 -0.907612)
(8.84236 -0.355751 -0.916468)
(10.3849 -0.373924 0.469045)
(14.0617 -0.180075 0.695116)
(8.86999 -0.0475777 -0.865778)
(22.7066 -0.0613574 0.0528256)
(22.7479 -0.0685377 0.0517588)
(22.7895 -0.0618311 0.0483771)
(22.466 -0.0348588 0.0616314)
(22.6893 0.0256837 0.102587)
(22.7244 0.0264028 0.100164)
(22.6669 0.0316276 0.0866087)
(22.6988 0.0460451 0.090618)
(22.736 0.051141 0.0852356)
(22.656 0.0237532 0.0371098)
(22.6951 0.0395936 0.0412118)
(22.7452 0.0397628 0.0438646)
(22.6672 0.027687 0.0160749)
(22.707 0.0405882 0.00879211)
(22.7527 0.0387622 0.00985717)
(22.5211 0.00458228 -0.000838706)
(22.5628 0.00867728 -0.017481)
(22.7494 -0.0653663 0.0282644)
(22.7975 -0.062053 0.0234263)
(21.9872 -1.53949 -1.31433)
(23.6999 -0.658694 -1.02844)
(6.63056 0.31857 0.120695)
(6.33998 -0.386887 -0.433333)
(5.83309 -0.293609 -0.909806)
(8.80001 -0.348158 -0.912105)
(10.1965 -0.386142 0.46264)
(13.9593 -0.186206 0.687255)
(8.75112 -0.0394208 -0.865175)
(22.705 -0.0607331 0.0527466)
(22.7459 -0.0685701 0.0519298)
(22.7877 -0.0623358 0.0485303)
(22.4656 -0.0341849 0.061669)
(22.6874 0.0255123 0.102422)
(22.7224 0.0265334 0.100448)
(22.6654 0.0308198 0.0861582)
(22.6968 0.0455778 0.0906047)
(22.7339 0.0510802 0.0856237)
(22.6546 0.0227487 0.036844)
(22.6931 0.039193 0.0410088)
(22.7429 0.0401888 0.0437795)
(22.6656 0.0268181 0.0163497)
(22.7049 0.0402988 0.00892704)
(22.7505 0.0391773 0.00956979)
(22.5189 0.00432961 -0.000212758)
(22.5606 0.00855806 -0.0167296)
(22.7472 -0.0652642 0.0284941)
(22.7955 -0.0624718 0.0234789)
(21.8538 -1.43999 -1.18947)
(23.6831 -0.735486 -1.06943)
(6.38853 0.33832 0.117979)
(6.25406 -0.380442 -0.437186)
(5.69059 -0.28724 -0.912079)
(8.75289 -0.341245 -0.908171)
(10.0008 -0.399527 0.456775)
(13.8501 -0.193186 0.678976)
(8.62982 -0.0312445 -0.86493)
(22.7033 -0.0600878 0.0526485)
(22.7438 -0.0685627 0.0520883)
(22.7859 -0.0628338 0.0486807)
(22.4652 -0.0335424 0.0617208)
(22.6855 0.0253293 0.102227)
(22.7203 0.026652 0.100715)
(22.6639 0.0300019 0.0856795)
(22.6949 0.04508 0.0905653)
(22.7318 0.0510001 0.0859974)
(22.6531 0.0217463 0.0365981)
(22.6912 0.0387491 0.0408251)
(22.7406 0.0405691 0.0437033)
(22.664 0.0259477 0.0166408)
(22.7028 0.039974 0.00910641)
(22.7482 0.039569 0.00931325)
(22.5166 0.0040723 0.000399844)
(22.5584 0.00843359 -0.0159575)
(22.745 -0.0651202 0.0287502)
(22.7935 -0.0628631 0.0235552)
(21.6695 -1.31796 -1.05959)
(23.6695 -0.803338 -1.09461)
(6.13881 0.358265 0.116439)
(6.16558 -0.373929 -0.44126)
(7.9798 -0.521673 -0.411466)
(5.54644 -0.280154 -0.914386)
(8.69927 -0.335182 -0.904725)
(9.79691 -0.413871 0.451463)
(13.7378 -0.20059 0.670315)
(8.50534 -0.0232047 -0.865094)
(12.6861 -0.225034 -0.825191)
(22.7016 -0.0594253 0.052531)
(22.7416 -0.0685146 0.0522346)
(22.784 -0.0633212 0.0488299)
(22.4648 -0.0329275 0.0617839)
(22.6837 0.0251337 0.102002)
(22.7183 0.0267586 0.100966)
(22.6625 0.0291736 0.0851746)
(22.6929 0.044552 0.090501)
(22.7297 0.0509008 0.0863566)
(22.6515 0.0207467 0.0363727)
(22.6891 0.0382625 0.0406558)
(22.7381 0.0409041 0.0436322)
(22.6623 0.0250738 0.0169474)
(22.7006 0.0396129 0.00932707)
(22.7458 0.0399338 0.00908611)
(22.5143 0.00381092 0.00100004)
(22.5563 0.00830364 -0.0151686)
(22.7427 -0.0649361 0.0290299)
(22.7914 -0.0632278 0.0236539)
(21.5238 -1.15874 -0.898474)
(23.6597 -0.86659 -1.11318)
(5.89701 0.374453 0.118354)
(6.07439 -0.367328 -0.445548)
(7.94078 -0.510617 -0.413272)
(5.42335 -0.272006 -0.915779)
(8.63889 -0.329939 -0.901768)
(9.58998 -0.428562 0.446512)
(13.6185 -0.208883 0.661297)
(8.37964 -0.0153519 -0.865563)
(12.6528 -0.22912 -0.822064)
(22.7 -0.0587488 0.0523946)
(22.7395 -0.0684256 0.0523691)
(22.7821 -0.0637958 0.0489794)
(22.4643 -0.0323376 0.0618549)
(22.6819 0.0249247 0.101752)
(22.7162 0.0268528 0.101201)
(22.6611 0.0283366 0.0846454)
(22.691 0.0439937 0.090413)
(22.7276 0.0507853 0.0867013)
(22.6498 0.0197479 0.0361678)
(22.687 0.0377341 0.0404966)
(22.7356 0.0411941 0.043564)
(22.6605 0.0241963 0.0172695)
(22.6985 0.0392146 0.00958617)
(22.7434 0.040268 0.0088874)
(22.5121 0.00354598 0.00158978)
(22.5541 0.00816742 -0.0143688)
(22.7404 -0.0647138 0.0293297)
(22.7892 -0.0635669 0.0237738)
(21.3517 -1.02204 -0.766188)
(23.6524 -0.930448 -1.13103)
(5.6825 0.382805 0.125166)
(5.98044 -0.360647 -0.450016)
(7.90189 -0.499896 -0.415097)
(5.30462 -0.263295 -0.917258)
(8.57162 -0.325458 -0.899322)
(9.37041 -0.443624 0.442182)
(13.4942 -0.217503 0.652132)
(8.25303 -0.00767966 -0.866324)
(12.582 -0.232302 -0.822632)