/*--------------------------------*- C++ -*----------------------------------*\
| =========                 |                                                 |
| \\      /  F ield         | OpenFOAM: The Open Source CFD Toolbox           |
|  \\    /   O peration     | Version:  2.1.1                                 |
|   \\  /    A nd           | Web:      www.OpenFOAM.org                      |
|    \\/     M anipulation  |                                                 |
\*---------------------------------------------------------------------------*/
FoamFile
{
    version     2.0;
    format      ascii;
    class       volScalarField;
    location    "0.001";
    object      alpha1;
}
// * * * * * * * * * * * * * * * * * * * * * * * * * * * * * * * * * * * * * //

dimensions      [0 0 0 0 0 0 0];

internalField   nonuniform List<scalar> 
36520
(
-1.22348e-12
-1.58609e-13
-2.31996e-13
-3.12804e-13
-4.2596e-13
-5.57519e-13
-7.14056e-13
-8.71468e-13
-1.02757e-12
-1.1593e-12
-1.27534e-12
-1.37537e-12
-1.48431e-12
-1.61867e-12
-1.79336e-12
-2.01696e-12
-2.30233e-12
-2.67656e-12
-3.18396e-12
-3.88295e-12
-4.83151e-12
-6.08163e-12
-7.66711e-12
-9.60111e-12
-1.18731e-11
-1.4437e-11
-1.71736e-11
-1.98698e-11
-2.2242e-11
-2.40274e-11
-2.50761e-11
-2.54834e-11
-2.57529e-11
-2.70121e-11
-3.10552e-11
-3.95804e-11
-5.32482e-11
-7.14884e-11
-9.28686e-11
-1.14611e-10
-1.31379e-10
-1.36548e-10
-1.25659e-10
-9.92283e-11
-5.38187e-11
-4.63829e-12
-2.82511e-14
-6.78718e-16
-4.42969e-18
-2.10954e-20
-8.98717e-23
-3.48805e-25
-1.26878e-27
-3.36637e-30
-6.50426e-33
-8.68386e-36
-8.15559e-39
-4.88899e-42
-1.86757e-45
-3.08266e-49
-4.42486e-12
-3.28235e-12
-4.26297e-12
-5.30182e-12
-6.70186e-12
-8.02542e-12
-9.31145e-12
-1.02976e-11
-1.10701e-11
-1.15804e-11
-1.20228e-11
-1.24828e-11
-1.31144e-11
-1.39717e-11
-1.50295e-11
-1.63975e-11
-1.81885e-11
-2.07179e-11
-2.42641e-11
-2.91646e-11
-3.55541e-11
-4.3484e-11
-5.27625e-11
-6.29896e-11
-7.34848e-11
-8.34602e-11
-9.19272e-11
-9.76982e-11
-9.95114e-11
-9.63327e-11
-8.73178e-11
-7.25854e-11
-5.4369e-11
-3.79702e-11
-2.94097e-11
-3.01937e-11
-3.62589e-11
-4.09153e-11
-3.91254e-11
-3.16078e-11
-2.05364e-11
-8.83638e-12
-2.0175e-13
-2.11079e-12
-1.71406e-10
-6.37699e-11
-4.76867e-13
-2.0827e-14
-2.19753e-16
-1.49142e-18
-8.2045e-21
-3.85192e-23
-1.57431e-25
-4.47173e-28
-9.18859e-31
-1.28968e-33
-1.2909e-36
-8.02839e-40
-3.33311e-43
-5.31088e-47
-1.17367e-11
-1.17097e-11
-1.4123e-11
-1.63831e-11
-1.91241e-11
-2.09337e-11
-2.21223e-11
-2.20609e-11
-2.13339e-11
-1.99975e-11
-1.8509e-11
-1.70561e-11
-1.57292e-11
-1.45486e-11
-1.34389e-11
-1.26065e-11
-1.22081e-11
-1.2481e-11
-1.34433e-11
-1.51123e-11
-1.73833e-11
-2.00748e-11
-2.28726e-11
-2.54871e-11
-2.76798e-11
-2.92431e-11
-3.00235e-11
-3.03953e-11
-2.72184e-11
-2.14679e-11
-1.34091e-11
-4.85109e-12
5.20492e-19
1.71268e-18
4.06717e-18
9.11272e-18
2.40019e-17
3.27735e-16
2.11016e-14
-3.1143e-14
2.15634e-08
6.02429e-08
7.76064e-08
4.12622e-08
5.42637e-10
-2.46457e-10
-3.26671e-12
-2.69625e-13
-4.85682e-15
-4.75495e-17
-3.41845e-19
-2.02218e-21
-8.6817e-24
-2.58998e-26
-5.49519e-29
-7.94752e-32
-8.10854e-35
-5.14736e-38
-2.15606e-41
-3.46379e-45
-2.24528e-11
-1.88262e-11
-1.97102e-11
-1.98965e-11
-2.02216e-11
-1.93109e-11
-1.7913e-11
-1.57772e-11
-1.3356e-11
-1.06996e-11
-7.89177e-12
-4.83743e-12
-1.84023e-12
-5.41985e-20
-4.38529e-20
-3.5368e-20
5.12319e-20
2.40861e-19
6.09383e-19
8.3271e-19
6.50135e-19
8.97095e-20
-4.6379e-19
-1.18023e-18
-5.60189e-17
4.3639e-17
1.25475e-10
3.67947e-09
7.54477e-09
1.18691e-08
1.66715e-08
2.15913e-08
2.73317e-08
3.5784e-08
5.07726e-08
8.17064e-08
1.58324e-07
3.81714e-07
1.0985e-06
3.33139e-06
8.38666e-06
1.36458e-05
1.43319e-05
9.82874e-06
3.17824e-06
6.56316e-08
-9.73325e-12
-1.9763e-12
-6.73209e-14
-9.90406e-16
-9.97862e-18
-6.92348e-20
-3.27308e-22
-1.06074e-24
-2.39346e-27
-3.66761e-30
-3.89833e-33
-2.59292e-36
-1.11354e-39
-1.86445e-43
-2.42619e-11
-1.7665e-11
-1.41635e-11
-9.56635e-12
-4.52665e-12
-2.85262e-19
-4.99239e-19
-3.93275e-19
-2.64438e-19
-1.72428e-18
-8.99816e-19
7.42817e-12
9.19109e-11
3.56198e-10
7.87866e-10
1.45097e-09
2.66477e-09
4.98957e-09
9.66765e-09
1.91887e-08
3.79232e-08
7.21258e-08
1.31338e-07
2.24047e-07
3.48257e-07
4.99353e-07
6.77265e-07
8.57853e-07
9.88096e-07
1.07188e-06
1.14239e-06
1.21554e-06
1.28926e-06
1.41702e-06
1.71527e-06
2.38979e-06
4.09031e-06
8.87095e-06
2.32427e-05
6.55512e-05
0.000157887
0.00024654
0.000261908
0.000210018
9.8859e-05
1.02092e-05
6.72612e-10
-8.88663e-12
-6.71411e-13
-1.55038e-14
-2.01754e-16
-1.65235e-18
-8.89754e-21
-3.22828e-23
-7.98106e-26
-1.33255e-28
-1.51671e-31
-1.08809e-34
-4.92217e-38
-8.76296e-42
-1.78594e-11
-5.47462e-12
-8.29924e-19
2.78637e-11
8.45895e-11
1.98481e-10
4.37402e-10
8.72082e-10
1.53102e-09
2.53182e-09
4.01984e-09
6.15082e-09
9.44527e-09
1.46054e-08
2.29226e-08
3.84492e-08
7.12532e-08
1.37341e-07
2.70171e-07
5.5584e-07
1.14431e-06
2.20404e-06
3.96775e-06
6.39312e-06
9.10083e-06
1.18411e-05
1.4562e-05
1.66796e-05
1.7812e-05
1.85583e-05
1.79277e-05
1.73515e-05
1.7937e-05
1.89598e-05
2.04986e-05
2.56518e-05
3.99274e-05
7.63191e-05
0.000179738
0.000495261
0.00120517
0.00187619
0.00222368
0.00216043
0.00135002
0.000192052
1.85953e-07
-2.7822e-11
-5.12852e-12
-1.69538e-13
-2.78992e-15
-2.74997e-17
-1.72467e-19
-7.1489e-22
-1.97563e-24
-3.66042e-27
-4.53914e-30
-3.56463e-33
-1.72415e-36
-3.37887e-40
7.1889e-13
1.53701e-10
6.39328e-10
1.97775e-09
6.23182e-09
1.76547e-08
2.34471e-08
4.49872e-08
7.58163e-08
1.23129e-07
1.94768e-07
2.93171e-07
4.32963e-07
6.25443e-07
8.80694e-07
1.28604e-06
2.01429e-06
3.20867e-06
5.18785e-06
8.61604e-06
1.37633e-05
1.90475e-05
2.32972e-05
2.6179e-05
3.05335e-05
3.71887e-05
4.53259e-05
5.39636e-05
5.78644e-05
6.78652e-05
7.53161e-05
7.01843e-05
7.08315e-05
8.11274e-05
0.000103173
0.00014801
0.000265828
0.000602566
0.00149177
0.00318854
0.0067206
0.0112814
0.0151443
0.0156785
0.00986889
0.00114096
2.4222e-06
-1.07758e-10
-3.11854e-11
-1.33287e-12
-2.70202e-14
-3.19147e-16
-2.34794e-18
-1.12424e-20
-3.52977e-23
-7.37123e-26
-1.01469e-28
-8.88115e-32
-4.68745e-35
-1.05159e-38
8.54163e-11
9.4587e-10
1.08789e-08
1.26697e-07
5.28531e-07
7.75995e-07
6.70795e-07
9.77325e-07
1.6868e-06
2.68779e-06
4.11823e-06
5.72559e-06
7.26226e-06
8.98001e-06
1.10892e-05
1.40388e-05
1.79484e-05
2.28425e-05
2.8669e-05
3.54472e-05
4.17238e-05
4.6445e-05
5.18042e-05
6.04507e-05
7.4086e-05
9.12459e-05
0.000108044
0.000123388
0.00014032
0.000158662
0.000162813
0.000154934
0.000130604
0.000114459
0.000112883
0.000112885
0.000118165
0.000266163
0.000983373
0.00634692
0.0363298
0.0781752
0.0948279
0.0846643
0.0355831
0.00236567
6.53284e-06
-1.43133e-09
-1.6746e-10
-7.8591e-12
-1.85162e-13
-2.55553e-15
-2.18972e-17
-1.21357e-19
-4.36735e-22
-1.03918e-24
-1.61148e-27
-1.59424e-30
-9.34903e-34
-2.41827e-37
3.79496e-16
-1.12749e-16
6.56437e-16
3.90896e-15
4.66514e-15
-5.73181e-15
1.55923e-05
2.64918e-05
1.69397e-05
1.89215e-05
2.68659e-05
3.20342e-05
3.74269e-05
4.18922e-05
4.2392e-05
4.42088e-05
5.3021e-05
6.83663e-05
8.85847e-05
0.000114912
0.000153051
0.000206417
0.000270063
0.00033123
0.000376275
0.000415878
0.000483774
0.0005882
0.000670866
0.000705844
0.00071308
0.000722348
0.000740527
0.000736677
0.000658642
0.000476495
0.000364438
0.00041882
0.00062535
0.00221725
0.0230672
0.169262
0.336314
0.255884
0.066605
0.00273834
5.05259e-06
-4.49769e-09
-6.75576e-10
-3.61115e-11
-9.62707e-13
-1.5088e-14
-1.4599e-16
-9.01291e-19
-3.54744e-21
-9.11176e-24
-1.50257e-26
-1.57114e-29
-9.61308e-33
-2.60195e-36
2.67478e-15
-5.48191e-15
-5.53767e-15
7.46772e-16
1.8351e-14
-1.64226e-14
3.92491e-06
2.453e-05
4.57451e-05
4.28001e-05
3.45685e-05
4.42351e-05
5.36132e-05
6.31432e-05
6.51761e-05
7.27383e-05
9.36626e-05
0.000128777
0.000174106
0.000237302
0.000327573
0.000438415
0.00056007
0.000663414
0.000696796
0.000704653
0.000736977
0.000780562
0.000837994
0.000893238
0.000905129
0.000926371
0.000967019
0.000998544
0.00101935
0.00103386
0.00108086
0.00114933
0.00121796
0.00239724
0.020094
0.161932
0.353257
0.267778
0.0652539
0.00250424
4.02096e-06
-4.76629e-09
-8.00036e-10
-4.37964e-11
-1.19162e-12
-1.88577e-14
-1.81539e-16
-1.10064e-18
-4.22293e-21
-1.04141e-23
-1.63445e-26
-1.60408e-29
-9.18526e-33
-2.26687e-36
9.18902e-14
1.11573e-06
1.01948e-06
1.28474e-11
-5.09642e-11
1.67734e-08
1.31082e-08
4.03963e-06
1.11895e-05
1.86527e-05
2.47551e-05
3.044e-05
3.68014e-05
4.69599e-05
6.21905e-05
7.2934e-05
8.53043e-05
0.000112581
0.000140096
0.000148519
0.000156322
0.000167985
0.00018854
0.000219445
0.000237314
0.000235294
0.0002349
0.000248065
0.000276675
0.000307297
0.000313234
0.000314436
0.000319238
0.000317789
0.000303774
0.000289927
0.000292869
0.000342131
0.000442323
0.00135353
0.0141512
0.14388
0.417744
0.352312
0.0975753
0.00456798
1.34353e-05
-1.09871e-08
-1.19828e-09
-6.40371e-11
-1.73306e-12
-2.68102e-14
-2.50182e-16
-1.4587e-18
-5.35311e-21
-1.25342e-23
-1.86242e-26
-1.71127e-29
-9.14239e-33
-2.05002e-36
8.46612e-07
2.89323e-06
8.69844e-07
1.37089e-06
3.86165e-06
7.13604e-06
1.10634e-05
1.39455e-05
1.6683e-05
1.90756e-05
2.10024e-05
2.34166e-05
2.67663e-05
3.07723e-05
3.53089e-05
4.19079e-05
5.79925e-05
8.78512e-05
0.000158718
0.000203147
0.000182634
0.000181709
0.000263262
0.000364256
0.000291383
0.00016107
0.000145108
0.000282399
0.000715712
0.000715469
0.000684772
0.000332925
0.000225641
0.000274714
0.000273376
0.000219419
0.000183711
0.000180973
0.000230383
0.000921278
0.0100776
0.0807771
0.310989
0.342935
0.161167
0.0144199
0.000115951
-3.03977e-08
-1.86014e-09
-7.20624e-11
-1.65904e-12
-2.27203e-14
-1.88722e-16
-9.74452e-19
-3.16378e-21
-6.50321e-24
-8.48736e-27
-6.7479e-30
-3.11507e-33
-5.7194e-37
3.71529e-07
5.49224e-07
1.32007e-06
2.65991e-06
6.10694e-06
9.70867e-06
1.23621e-05
1.50619e-05
1.69691e-05
1.65205e-05
1.6199e-05
1.78924e-05
2.00175e-05
1.89079e-05
2.01787e-05
4.19918e-05
7.41991e-05
7.48275e-05
8.28018e-05
0.000117616
0.000154477
0.000137855
0.000113235
0.000202246
0.000690895
0.000616398
0.000243642
0.000201608
0.000201594
0.000199607
0.000577036
0.000656994
0.000656408
0.000384426
0.000254721
0.000263431
0.000259395
0.000225307
0.000294063
0.000993157
0.00971517
0.075055
0.287321
0.317812
0.152866
0.0141144
0.000117689
-2.90259e-08
-1.80389e-09
-7.03982e-11
-1.62611e-12
-2.23303e-14
-1.85967e-16
-9.62522e-19
-3.13096e-21
-6.45005e-24
-8.44434e-27
-6.73929e-30
-3.12416e-33
-5.79223e-37
1.09778e-07
1.09757e-07
4.26198e-06
4.44836e-06
3.1346e-06
1.91816e-06
6.04218e-07
6.03906e-07
2.91135e-06
1.92897e-05
3.6792e-05
4.53608e-05
5.16667e-05
5.10873e-05
4.87932e-05
4.45559e-05
4.23862e-05
9.5569e-05
0.000104122
0.000104121
0.000110013
0.000125449
0.000138605
0.000156607
0.000190596
0.000222457
0.000245088
0.000263996
0.000286318
0.000318545
0.000353284
0.000419573
0.000437397
0.000413169
0.000369988
0.000345123
0.00035269
0.000416405
0.000582707
0.00181564
0.0173138
0.15194
0.385244
0.310645
0.0751374
0.00290485
5.69519e-06
-6.79528e-09
-9.16188e-10
-4.8167e-11
-1.28411e-12
-1.97282e-14
-1.83075e-16
-1.0594e-18
-3.84657e-21
-8.89982e-24
-1.30616e-26
-1.18415e-29
-6.23548e-33
-1.37421e-36
1.37262e-07
5.42427e-07
7.01613e-07
1.92956e-06
8.76346e-06
1.66832e-05
2.20727e-05
1.93117e-05
2.10476e-05
2.9861e-05
7.41855e-05
0.000132982
0.000157942
0.00015453
7.50249e-05
1.99665e-05
2.65254e-05
9.92778e-05
9.86961e-05
3.63202e-05
3.05089e-05
6.69998e-05
0.000281926
0.000961352
0.000903989
0.000460885
0.000119201
7.78421e-05
7.79674e-05
7.96139e-05
0.000320812
0.00106127
0.00119985
0.000818004
0.000498455
0.000428083
0.000429656
0.000449001
0.00049422
0.00134767
0.0144318
0.133655
0.328679
0.24855
0.0497304
0.00131371
7.0824e-07
-2.65939e-09
-5.31786e-10
-2.49308e-11
-6.25581e-13
-9.38412e-15
-8.63539e-17
-4.99878e-19
-1.82429e-21
-4.28395e-24
-6.41769e-27
-5.99087e-30
-3.25128e-33
-7.51402e-37
7.9594e-16
4.66081e-15
3.01944e-13
-4.21025e-12
2.21836e-06
9.50232e-06
1.45825e-05
2.0263e-05
2.9339e-05
4.21954e-05
5.59258e-05
7.09725e-05
7.96582e-05
6.65308e-05
7.1771e-05
0.000113703
0.000114406
0.000114502
8.81157e-05
9.04892e-05
0.000138024
0.000376418
0.000661512
0.000583227
0.000334684
0.000166627
0.000115795
0.000405723
0.0010767
0.00107863
0.00107873
0.000847404
0.000425294
0.000257491
0.00020664
0.000170068
0.000133308
0.000126664
0.000255822
0.00168995
0.0216459
0.161856
0.315968
0.236946
0.0522934
0.0015361
1.14653e-06
-2.98089e-09
-4.5109e-10
-2.02867e-11
-4.90567e-13
-7.19815e-15
-6.58208e-17
-3.85404e-19
-1.44861e-21
-3.54366e-24
-5.56319e-27
-5.50942e-30
-3.18399e-33
-8.02392e-37
8.59559e-10
2.42231e-08
1.57243e-07
4.79806e-07
6.38488e-07
1.2835e-06
2.14211e-06
3.44188e-06
4.95899e-06
6.60599e-06
8.4153e-06
1.04258e-05
1.22821e-05
1.40333e-05
1.9142e-05
2.32854e-05
2.41059e-05
2.34241e-05
2.79438e-05
4.67227e-05
8.06381e-05
0.000106528
8.8067e-05
4.36867e-05
3.38928e-05
8.77841e-05
0.000352269
0.00046993
0.000443991
0.000370685
0.000227161
9.08297e-05
3.65152e-05
3.3866e-05
3.49891e-05
3.41475e-05
4.36645e-05
9.39565e-05
0.00040425
0.00329548
0.0266871
0.0809176
0.100766
0.0820713
0.0295114
0.00163277
3.59884e-06
-1.06361e-09
-1.1831e-10
-5.21052e-12
-1.17231e-13
-1.56058e-15
-1.29657e-17
-6.9885e-20
-2.45083e-22
-5.67543e-25
-8.54997e-28
-8.1929e-31
-4.65296e-34
-1.149e-37
-4.5972e-11
-3.95156e-19
1.60208e-17
-2.84816e-17
8.42596e-16
4.37748e-10
6.40446e-09
1.48953e-08
2.47611e-08
3.49637e-08
4.21016e-08
4.65945e-08
5.44703e-08
6.98821e-08
1.0639e-07
1.48141e-07
2.28775e-07
3.36293e-07
4.83406e-07
7.03073e-07
1.02311e-06
1.33372e-06
1.72679e-06
2.38477e-06
4.20613e-06
7.25817e-06
1.01211e-05
9.29953e-06
7.10138e-06
4.63233e-06
3.01233e-06
2.81779e-06
3.20795e-06
4.57155e-06
7.56244e-06
1.43834e-05
3.05402e-05
8.03165e-05
0.000276981
0.00122472
0.00470843
0.0102427
0.0133788
0.0130437
0.00762179
0.000749972
9.85291e-07
-5.32708e-11
-2.10744e-11
-8.41181e-13
-1.60045e-14
-1.78909e-16
-1.25088e-18
-5.69755e-21
-1.70086e-23
-3.36029e-26
-4.36599e-29
-3.57161e-32
-1.76707e-35
-3.57102e-39
-1.41769e-10
-1.27576e-10
-1.17001e-10
-9.53424e-11
-6.50886e-11
-2.48215e-11
5.29906e-20
-3.68478e-19
-8.13364e-19
-1.63821e-18
-2.42671e-18
-1.44998e-19
-9.42527e-19
2.55576e-18
1.84898e-18
5.50183e-19
4.03203e-18
3.63466e-18
1.39262e-18
-3.28249e-18
-5.71167e-18
-3.76547e-18
-2.4209e-18
-1.04291e-18
1.16809e-18
1.36937e-18
-1.01927e-17
-3.26359e-17
-4.77675e-17
-2.29747e-17
1.93645e-16
1.01986e-15
3.52093e-15
1.19262e-14
4.04931e-14
1.33047e-13
4.0512e-13
2.22365e-12
9.52733e-12
1.15347e-05
0.000165752
0.000503956
0.00076785
0.00095879
0.000768027
0.000114357
4.42176e-08
-2.78371e-11
-3.99439e-12
-1.16e-13
-1.74354e-15
-1.59364e-17
-9.29352e-20
-3.56848e-22
-9.09457e-25
-1.53522e-27
-1.72801e-30
-1.20485e-33
-5.21585e-37
-8.63361e-41
-1.79671e-10
-2.14476e-10
-2.73619e-10
-3.25683e-10
-3.95011e-10
-4.65957e-10
-5.48098e-10
-6.29366e-10
-7.2002e-10
-8.16492e-10
-9.20524e-10
-1.03254e-09
-1.15032e-09
-1.28801e-09
-1.45691e-09
-1.66566e-09
-1.90498e-09
-2.18456e-09
-2.5054e-09
-2.87958e-09
-3.29683e-09
-3.75025e-09
-4.22276e-09
-4.69323e-09
-5.12044e-09
-5.43929e-09
-5.5656e-09
-5.45047e-09
-5.10294e-09
-4.59269e-09
-4.06753e-09
-3.67508e-09
-3.47698e-09
-3.42237e-09
-3.35634e-09
-2.94979e-09
-2.10283e-09
-5.86451e-10
2.6658e-15
-1.23009e-15
-4.80875e-15
1.21528e-12
-6.08561e-11
4.48635e-06
9.21813e-06
2.01149e-06
-5.36113e-11
-1.27476e-11
-6.50886e-13
-1.29361e-14
-1.53194e-16
-1.14964e-18
-5.64896e-21
-1.84406e-23
-4.0623e-26
-5.89768e-29
-5.81494e-32
-3.46219e-35
-1.32611e-38
-1.88227e-42
-1.16919e-10
-1.63239e-10
-2.26449e-10
-2.94858e-10
-3.75989e-10
-4.62517e-10
-5.59129e-10
-6.60639e-10
-7.71672e-10
-8.8786e-10
-1.01212e-09
-1.14438e-09
-1.28256e-09
-1.43325e-09
-1.59544e-09
-1.78221e-09
-1.99396e-09
-2.2474e-09
-2.54437e-09
-2.89987e-09
-3.30225e-09
-3.74127e-09
-4.19674e-09
-4.64822e-09
-5.06402e-09
-5.40456e-09
-5.6195e-09
-5.68844e-09
-5.62821e-09
-5.50118e-09
-5.40548e-09
-5.44527e-09
-5.68649e-09
-6.15126e-09
-6.85546e-09
-7.8149e-09
-8.99986e-09
-1.03217e-08
-1.14555e-08
-1.19583e-08
-1.11013e-08
-7.8389e-09
-3.18964e-09
-1.43986e-10
-1.99677e-09
-1.85282e-09
-4.60235e-11
-4.44867e-12
-1.05528e-13
-1.44404e-15
-1.40492e-17
-9.68486e-20
-4.52064e-22
-1.42876e-24
-3.10326e-27
-4.48083e-30
-4.45733e-33
-2.67756e-36
-1.0671e-39
-1.58492e-43
-4.03334e-11
-5.18447e-11
-7.25139e-11
-9.64782e-11
-1.24682e-10
-1.55491e-10
-1.90564e-10
-2.2675e-10
-2.67166e-10
-3.08986e-10
-3.53582e-10
-4.00577e-10
-4.49782e-10
-5.03154e-10
-5.60215e-10
-6.25507e-10
-6.99152e-10
-7.86125e-10
-8.86607e-10
-1.00423e-09
-1.13562e-09
-1.27869e-09
-1.42827e-09
-1.57931e-09
-1.72602e-09
-1.86314e-09
-1.98396e-09
-2.09005e-09
-2.18979e-09
-2.30206e-09
-2.45112e-09
-2.66178e-09
-2.94619e-09
-3.29549e-09
-3.68295e-09
-4.06878e-09
-4.40933e-09
-4.69957e-09
-4.98169e-09
-5.17582e-09
-5.13781e-09
-4.73957e-09
-4.11022e-09
-3.54272e-09
-2.57903e-09
-2.98902e-10
-1.02526e-11
-4.43809e-13
-5.79728e-15
-5.11367e-17
-3.52531e-19
-1.99894e-21
-8.44233e-24
-2.48344e-26
-5.19481e-29
-7.35436e-32
-7.36171e-35
-4.50474e-38
-1.89422e-41
-3.03258e-45
-7.06955e-12
-6.98139e-12
-9.26516e-12
-1.2035e-11
-1.56365e-11
-1.96687e-11
-2.44174e-11
-2.95918e-11
-3.54362e-11
-4.18219e-11
-4.88122e-11
-5.65033e-11
-6.47672e-11
-7.39047e-11
-8.39639e-11
-9.56306e-11
-1.08947e-10
-1.24738e-10
-1.432e-10
-1.65052e-10
-1.90161e-10
-2.18584e-10
-2.49791e-10
-2.83364e-10
-3.18904e-10
-3.56373e-10
-3.95704e-10
-4.3801e-10
-4.85274e-10
-5.41034e-10
-6.08807e-10
-6.92011e-10
-7.90372e-10
-8.97467e-10
-9.99835e-10
-1.07585e-09
-1.10733e-09
-1.10742e-09
-1.11347e-09
-1.1255e-09
-1.13321e-09
-1.10253e-09
-1.02737e-09
-8.85938e-10
-3.93772e-10
-2.48802e-11
-8.93527e-13
-1.91073e-14
-1.49479e-16
-9.19557e-19
-5.02634e-21
-2.43656e-23
-1.03952e-25
-3.1887e-28
-7.05928e-31
-1.07109e-33
-1.14914e-36
-7.62755e-40
-3.4355e-43
-5.97073e-47
-9.20083e-13
-2.18448e-13
-3.05058e-13
-3.84613e-13
-5.17073e-13
-6.73881e-13
-8.76313e-13
-1.11367e-12
-1.39951e-12
-1.72728e-12
-2.11055e-12
-2.54866e-12
-3.05129e-12
-3.62843e-12
-4.30524e-12
-5.10796e-12
-6.06864e-12
-7.23216e-12
-8.64788e-12
-1.03761e-11
-1.24695e-11
-1.49795e-11
-1.79347e-11
-2.1354e-11
-2.52721e-11
-2.97536e-11
-3.48894e-11
-4.08589e-11
-4.79303e-11
-5.65211e-11
-6.7096e-11
-8.0166e-11
-9.59667e-11
-1.13986e-10
-1.32863e-10
-1.50392e-10
-1.64924e-10
-1.71419e-10
-1.71483e-10
-1.66478e-10
-1.55194e-10
-1.36507e-10
-1.12843e-10
-7.92242e-11
-2.29052e-11
-1.04656e-12
-3.05448e-14
-3.48377e-16
-1.805e-18
-9.01431e-21
-4.63249e-23
-2.26606e-25
-9.50328e-28
-2.98305e-30
-6.66691e-33
-1.03487e-35
-1.1061e-38
-7.61276e-42
-3.34542e-45
-6.53183e-49
-1.95182e-13
-1.15007e-13
-1.83657e-13
-2.57594e-13
-3.65216e-13
-4.92381e-13
-6.54996e-13
-8.44615e-13
-1.07416e-12
-1.33923e-12
-1.65294e-12
-2.01519e-12
-2.44369e-12
-2.94786e-12
-3.5486e-12
-4.27374e-12
-5.15493e-12
-6.23435e-12
-7.55532e-12
-9.16847e-12
-1.11082e-11
-1.33988e-11
-1.60369e-11
-1.90024e-11
-2.22613e-11
-2.58267e-11
-2.97687e-11
-3.41738e-11
-3.90359e-11
-4.42012e-11
-4.91459e-11
-5.25848e-11
-5.19312e-11
-4.81724e-11
-4.57196e-11
-4.47554e-11
-4.51212e-11
-4.61766e-11
-4.53283e-11
-4.09622e-11
-3.49868e-11
-3.58501e-11
-4.14264e-11
-3.23748e-11
-1.49479e-11
-8.66445e-13
-3.08717e-14
-5.21707e-16
-3.31503e-18
-1.83868e-20
-9.5896e-23
-4.5289e-25
-1.80836e-27
-5.40259e-30
-1.14924e-32
-1.69308e-35
-1.72214e-38
-1.12347e-41
-4.69534e-45
-8.60976e-49
-5.38317e-13
-1.72776e-12
-2.92453e-12
-4.35361e-12
-6.16133e-12
-8.23406e-12
-1.07015e-11
-1.34324e-11
-1.65679e-11
-2.00781e-11
-2.399e-11
-2.84036e-11
-3.33591e-11
-3.9e-11
-4.53414e-11
-5.27711e-11
-6.13998e-11
-7.1688e-11
-8.36719e-11
-9.75743e-11
-1.12933e-10
-1.29193e-10
-1.45257e-10
-1.60128e-10
-1.72712e-10
-1.82371e-10
-1.88638e-10
-1.90269e-10
-1.83615e-10
-1.62748e-10
-1.21038e-10
-5.69151e-11
1.65825e-11
3.06784e-10
1.06497e-09
2.05477e-09
3.12929e-09
3.96246e-09
4.36181e-09
4.45089e-09
3.68163e-09
2.15361e-09
9.39955e-10
-7.15159e-11
-9.28331e-11
-1.24241e-11
-5.23893e-13
-1.88302e-14
-1.8435e-16
-1.36104e-18
-8.60264e-21
-4.57165e-23
-2.04955e-25
-6.51032e-28
-1.46939e-30
-2.27375e-33
-2.45808e-36
-1.6579e-39
-7.41416e-43
-1.29065e-46
8.75276e-12
-2.62077e-12
-5.91808e-12
-1.00078e-11
-1.47529e-11
-2.05466e-11
-2.74319e-11
-3.55391e-11
-4.4999e-11
-5.56619e-11
-6.73001e-11
-7.98174e-11
-9.28138e-11
-1.06274e-10
-1.19793e-10
-1.33418e-10
-1.46349e-10
-1.57477e-10
-1.64459e-10
-1.64931e-10
-1.56411e-10
-1.38285e-10
-1.10884e-10
-7.51508e-11
-3.53435e-11
2.65751e-12
1.42446e-10
4.19166e-10
7.90567e-10
1.538e-09
3.16494e-09
7.05519e-09
1.69828e-08
4.09816e-08
9.09203e-08
1.75585e-07
2.87308e-07
3.87371e-07
4.39987e-07
3.89115e-07
2.49599e-07
1.09171e-07
3.44383e-08
6.92162e-11
-3.16628e-11
-4.8845e-11
-2.93963e-12
-3.01952e-13
-4.85468e-15
-4.89948e-17
-3.75877e-19
-2.37887e-21
-1.1032e-23
-3.59691e-26
-8.24588e-29
-1.29469e-31
-1.41084e-34
-9.60278e-38
-4.31515e-41
-7.59101e-45
-4.44881e-12
-1.55501e-11
-2.57358e-11
-4.29413e-11
-6.20118e-11
-8.3946e-11
-1.06549e-10
-1.30482e-10
-1.53777e-10
-1.74875e-10
-1.92429e-10
-2.06246e-10
-2.15687e-10
-2.21558e-10
-2.2526e-10
-2.28919e-10
-2.3626e-10
-2.50054e-10
-2.71541e-10
-2.92928e-10
-2.98296e-10
-2.72308e-10
-2.59193e-10
-2.18552e-10
-1.51226e-10
-6.89256e-11
5.34984e-12
1.27173e-10
3.56778e-10
7.0687e-10
1.55767e-09
3.62419e-09
8.62529e-09
2.00208e-08
4.17557e-08
7.2016e-08
9.70706e-08
1.06445e-07
8.85952e-08
5.75056e-08
2.41221e-08
1.33366e-08
5.07117e-08
1.35729e-07
2.39845e-07
6.54462e-08
-1.6637e-11
-2.64019e-12
-8.12219e-14
-1.20155e-15
-1.2245e-17
-8.87222e-20
-4.36951e-22
-1.48324e-24
-3.47725e-27
-5.54969e-30
-6.08705e-33
-4.19033e-36
-1.8693e-39
-3.31169e-43
-6.07954e-11
-1.00452e-10
-1.49838e-10
-2.11463e-10
-2.77276e-10
-3.5633e-10
-4.41686e-10
-5.31337e-10
-6.21836e-10
-7.05957e-10
-7.83663e-10
-8.51301e-10
-9.00716e-10
-9.30188e-10
-9.38267e-10
-9.43175e-10
-9.72093e-10
-1.05311e-09
-1.19822e-09
-1.38941e-09
-1.54241e-09
-1.54613e-09
-1.31259e-09
-8.71176e-10
-5.64034e-10
-2.95477e-10
-1.09409e-10
2.33763e-12
1.09817e-10
4.31461e-10
9.6033e-10
2.01265e-09
4.01216e-09
7.42929e-09
1.27996e-08
2.04327e-08
3.23424e-08
6.93265e-08
1.82048e-07
4.7164e-07
1.23051e-06
3.22496e-06
8.00431e-06
1.44813e-05
2.02112e-05
9.19547e-06
3.30334e-08
-1.10039e-11
-8.50309e-13
-1.97102e-14
-2.62414e-16
-2.21545e-18
-1.22647e-20
-4.58038e-23
-1.15344e-25
-1.94947e-28
-2.21394e-31
-1.57046e-34
-7.06767e-38
-1.25155e-41
-9.49473e-11
-1.15369e-10
-1.2839e-10
-1.37123e-10
-1.52993e-10
-1.73054e-10
-1.97599e-10
-2.20128e-10
-2.41856e-10
-2.59212e-10
-2.7435e-10
-2.94783e-10
-3.12821e-10
-3.27794e-10
-3.36112e-10
-3.40135e-10
-3.43479e-10
-3.46181e-10
-3.29798e-10
-2.82696e-10
-2.08152e-10
-8.43028e-11
-2.64991e-17
-4.78132e-17
-5.21365e-17
-2.71657e-16
3.80544e-16
7.19888e-10
4.07223e-09
1.01885e-08
1.87106e-08
3.0469e-08
4.7359e-08
7.3108e-08
1.13796e-07
1.96077e-07
4.47172e-07
1.10643e-06
3.25623e-06
1.00916e-05
3.51018e-05
0.000112407
0.000269009
0.000442048
0.000557763
0.000260656
2.1724e-06
-1.91967e-11
-4.29944e-12
-1.41003e-13
-2.20016e-15
-2.01154e-17
-1.14851e-19
-4.2739e-22
-1.05077e-24
-1.70664e-27
-1.84376e-30
-1.23e-33
-5.09874e-37
-8.01725e-41
-6.70964e-11
-3.07961e-11
-9.2466e-18
-1.85798e-18
-1.42195e-18
-3.6731e-18
-1.10288e-17
1.11646e-17
6.59871e-18
-7.73239e-18
3.82354e-18
1.25496e-17
5.12965e-18
-4.91958e-18
-3.91301e-17
5.65757e-17
3.03568e-16
4.71665e-16
6.35526e-16
4.57544e-16
1.25829e-15
-4.66023e-16
4.95286e-09
3.05657e-08
6.19639e-08
1.09043e-07
1.77603e-07
2.74657e-07
3.92041e-07
5.19879e-07
6.5165e-07
7.84676e-07
9.41466e-07
1.18499e-06
1.65064e-06
2.56394e-06
4.6549e-06
8.98241e-06
1.63648e-05
4.38002e-05
0.000253234
0.00121285
0.00329862
0.00578425
0.00629117
0.00217798
2.42875e-05
6.22209e-10
-1.87897e-11
-7.82285e-13
-1.38926e-14
-1.42425e-16
-8.98947e-19
-3.63979e-21
-9.5913e-24
-1.65108e-26
-1.86775e-29
-1.3038e-32
-5.52013e-36
-8.78207e-40
4.26814e-10
3.41075e-09
8.55753e-09
2.31236e-08
6.2738e-08
1.73154e-07
2.90483e-07
3.86455e-07
4.56616e-07
5.19015e-07
5.69622e-07
6.01018e-07
6.01962e-07
5.95981e-07
5.85036e-07
6.32376e-07
7.79476e-07
9.85521e-07
1.2519e-06
1.79008e-06
2.69799e-06
3.71978e-06
4.67844e-06
5.32279e-06
5.77593e-06
6.07788e-06
6.27395e-06
6.3903e-06
6.69596e-06
7.15607e-06
7.92854e-06
9.45683e-06
1.24913e-05
1.71591e-05
2.21796e-05
2.5264e-05
2.6365e-05
3.58724e-05
0.000126198
0.000652725
0.00333312
0.012176
0.0280911
0.0379937
0.0301074
0.00533107
5.32381e-05
-2.02762e-09
-1.32237e-10
-4.67815e-12
-9.22332e-14
-1.09244e-15
-8.04047e-18
-3.79994e-20
-1.16321e-22
-2.3284e-25
-3.03756e-28
-2.47808e-31
-1.20462e-34
-2.40664e-38
5.32698e-10
2.13074e-08
1.84846e-07
8.61795e-07
1.9136e-06
2.51403e-06
3.0293e-06
4.01729e-06
5.07953e-06
6.16521e-06
7.46595e-06
8.37428e-06
9.47214e-06
1.10062e-05
1.19671e-05
1.3022e-05
1.71921e-05
2.45788e-05
3.36376e-05
4.38883e-05
5.42833e-05
6.13821e-05
6.34988e-05
6.43516e-05
6.62574e-05
6.87832e-05
7.02808e-05
7.10928e-05
7.31842e-05
7.67173e-05
7.92556e-05
8.0316e-05
8.29912e-05
9.34585e-05
0.000118884
0.000154913
0.000161355
0.000135693
0.000226551
0.00166318
0.0148043
0.0692368
0.157537
0.15959
0.0760622
0.00590707
2.81451e-05
-7.75047e-09
-4.86913e-10
-1.9394e-11
-4.472e-13
-6.20329e-15
-5.34488e-17
-2.95715e-19
-1.05735e-21
-2.47632e-24
-3.75757e-27
-3.59857e-30
-2.02871e-33
-4.97627e-37
1.22454e-14
5.51403e-14
1.02602e-14
9.17509e-13
1.45762e-06
1.96311e-05
4.30234e-05
6.39706e-05
6.39737e-05
3.75758e-05
4.00953e-05
5.19004e-05
5.77315e-05
6.30352e-05
6.21773e-05
5.92299e-05
7.28091e-05
0.000108807
0.000166415
0.000253344
0.000390443
0.000588695
0.000792436
0.000871423
0.000873007
0.000884799
0.000950678
0.00106256
0.00115489
0.00119029
0.00120147
0.00113418
0.00103695
0.000977243
0.000887536
0.000797344
0.000817078
0.000892148
0.000967516
0.00211558
0.0214742
0.204866
0.508745
0.411092
0.0962061
0.00320886
3.94275e-06
-8.89705e-09
-1.10443e-09
-5.31063e-11
-1.34954e-12
-2.06613e-14
-1.97382e-16
-1.2056e-18
-4.70756e-21
-1.19395e-23
-1.94e-26
-1.98431e-29
-1.18265e-32
-3.0954e-36
-1.12157e-14
1.31845e-13
2.72966e-07
1.62194e-06
7.52791e-06
1.97073e-05
3.39538e-05
4.16233e-05
3.69466e-05
3.85516e-05
4.99831e-05
6.64022e-05
8.23782e-05
9.6983e-05
0.000110652
0.000127581
0.000154963
0.000191559
0.00024049
0.000308917
0.000405926
0.000531488
0.000634514
0.000693576
0.000729538
0.000750154
0.000796407
0.000907803
0.00106597
0.00123732
0.00138918
0.0014912
0.00151871
0.00147602
0.00131148
0.00109802
0.00104108
0.00108411
0.00114562
0.0021013
0.0226369
0.267893
0.577666
0.365598
0.0552913
0.00116061
-9.40947e-09
-1.29007e-08
-9.53558e-10
-4.06573e-11
-1.05305e-12
-1.66121e-14
-1.60539e-16
-9.73867e-19
-3.72649e-21
-9.14911e-24
-1.42866e-26
-1.38998e-29
-7.84455e-33
-1.91161e-36
1.41013e-13
2.49969e-06
1.79073e-06
8.00982e-06
1.65276e-05
2.47286e-05
3.10799e-05
3.36452e-05
3.30468e-05
3.29273e-05
3.56708e-05
4.56137e-05
7.61658e-05
9.44223e-05
0.000111514
0.000159079
0.000239225
0.000251987
0.000252229
0.000263699
0.000303976
0.000354654
0.000400929
0.000447248
0.000498574
0.000556908
0.00062278
0.00070332
0.000820328
0.00102071
0.00132027
0.00153935
0.00153369
0.0013199
0.00093472
0.000688899
0.000591265
0.000519054
0.000510391
0.00147919
0.0208243
0.238822
0.484351
0.276671
0.0340721
0.000499615
-7.18226e-08
-7.8627e-09
-5.87763e-10
-2.67867e-11
-7.18666e-13
-1.14848e-14
-1.11241e-16
-6.71941e-19
-2.54947e-21
-6.17376e-24
-9.47784e-27
-9.00657e-30
-4.94255e-33
-1.15592e-36
-2.92061e-12
1.18539e-06
1.41561e-05
1.81233e-05
2.30299e-05
3.08859e-05
3.98721e-05
4.58491e-05
4.89667e-05
5.31275e-05
7.77796e-05
0.000103934
0.000100317
6.07317e-05
6.03313e-05
9.76773e-05
0.000179197
0.000247384
0.000217657
0.000215208
0.000231405
0.000249835
0.000255145
0.000255576
0.000255622
0.000253516
0.000253215
0.000257744
0.000270726
0.000292047
0.000327451
0.00040932
0.00056354
0.000648571
0.000629785
0.000553431
0.000478082
0.000454135
0.000460026
0.00130701
0.0177061
0.20277
0.458605
0.293843
0.043806
0.000837177
-5.29018e-08
-9.45053e-09
-6.94967e-10
-3.06774e-11
-8.10607e-13
-1.2872e-14
-1.24224e-16
-7.47304e-19
-2.81972e-21
-6.7805e-24
-1.03316e-26
-9.75496e-30
-5.33227e-33
-1.23973e-36
1.22549e-08
-3.95747e-12
-8.05181e-14
-5.16073e-14
-2.00115e-14
1.90993e-15
3.90988e-06
1.30521e-05
2.44853e-05
3.36741e-05
3.93096e-05
4.68204e-05
5.76927e-05
6.89121e-05
7.90332e-05
9.54488e-05
0.000113908
0.000127963
0.000142945
0.000165789
0.000190635
0.000218253
0.000236553
0.000234017
0.00020392
0.000170109
0.000168727
0.000189578
0.000253762
0.00033264
0.00037951
0.000438918
0.000625942
0.000872458
0.000876079
0.000766225
0.00063499
0.00064933
0.000830481
0.00216053
0.022029
0.228892
0.512098
0.366866
0.0737822
0.00234266
2.51701e-06
-6.00434e-09
-1.03429e-09
-5.2965e-11
-1.39506e-12
-2.17866e-14
-2.08286e-16
-1.25088e-18
-4.73306e-21
-1.14777e-23
-1.76647e-26
-1.68832e-29
-9.34241e-33
-2.21739e-36
6.28299e-08
2.32707e-07
4.19764e-07
1.99016e-06
4.20582e-06
6.18659e-06
7.70879e-06
9.84534e-06
9.66803e-06
1.43904e-05
1.35551e-05
1.26295e-05
1.26081e-05
1.25165e-05
1.30878e-05
3.7232e-05
5.01514e-05
5.59441e-05
6.39336e-05
6.81666e-05
6.48711e-05
5.55756e-05
5.47804e-05
5.47758e-05
8.9302e-05
0.000127121
0.000160595
0.000216275
0.000303082
0.000364738
0.000377052
0.000376504
0.000346342
0.000299187
0.000286413
0.000286914
0.00027808
0.000288274
0.000577646
0.00251255
0.0183321
0.143464
0.391084
0.349077
0.114393
0.00657083
2.70645e-05
-1.41768e-08
-1.22944e-09
-6.16034e-11
-1.63003e-12
-2.48598e-14
-2.30341e-16
-1.35004e-18
-5.03544e-21
-1.21575e-23
-1.87978e-26
-1.82403e-29
-1.03531e-32
-2.53445e-36
2.59242e-07
2.18007e-06
5.18831e-06
4.91633e-06
6.76527e-06
8.75829e-06
1.58636e-05
2.13942e-05
3.25626e-05
4.17744e-05
4.65128e-05
4.28418e-05
3.29679e-05
2.33314e-05
2.22497e-05
2.62992e-05
3.18675e-05
4.10796e-05
5.93252e-05
8.31453e-05
0.000109512
0.000149238
0.000242294
0.000307852
0.000258576
0.000204977
0.000249829
0.000364674
0.000383634
0.00032167
0.000220974
0.000167774
0.000147625
0.000142264
0.000137791
0.000111388
0.000110675
0.000163432
0.000352907