/*--------------------------------*- C++ -*----------------------------------*\
| =========                 |                                                 |
| \\      /  F ield         | OpenFOAM: The Open Source CFD Toolbox           |
|  \\    /   O peration     | Version:  2.1.1                                 |
|   \\  /    A nd           | Web:      www.OpenFOAM.org                      |
|    \\/     M anipulation  |                                                 |
\*---------------------------------------------------------------------------*/
FoamFile
{
    version     2.0;
    format      ascii;
    class       volScalarField;
    location    "0.001";
    object      criterion2;
}
// * * * * * * * * * * * * * * * * * * * * * * * * * * * * * * * * * * * * * //

dimensions      [1 2 -2 0 0 0 0];

internalField   nonuniform List<scalar> 
36520
(
-3.21604e-09
-4.56641e-11
3.78747e-09
4.52372e-09
5.56349e-09
5.93441e-09
6.29099e-09
6.5011e-09
6.57179e-09
6.6095e-09
6.50822e-09
6.42519e-09
6.24454e-09
6.11839e-09
5.94836e-09
5.88409e-09
5.87465e-09
6.01845e-09
6.29134e-09
6.76054e-09
7.37301e-09
8.15737e-09
9.04946e-09
1.00716e-08
1.12377e-08
1.26862e-08
1.44864e-08
1.67015e-08
1.93719e-08
2.26382e-08
2.66108e-08
3.16169e-08
3.81764e-08
4.72352e-08
6.03344e-08
8.01857e-08
1.11288e-07
1.61162e-07
2.43018e-07
3.75165e-07
5.72232e-07
8.38219e-07
1.12566e-06
1.38465e-06
1.55494e-06
1.33616e-06
6.97265e-07
3.07968e-07
6.94614e-08
-4.71454e-08
-1.17372e-07
-1.5402e-07
-1.74418e-07
-1.87221e-07
-1.9187e-07
-1.97185e-07
-1.9683e-07
-1.9963e-07
-1.97143e-07
-1.89764e-07
-1.80748e-09
-5.79821e-09
-2.75392e-09
-2.39655e-09
-1.49121e-09
-1.1431e-09
-5.83319e-10
-1.33588e-10
2.55672e-10
6.25814e-10
8.47126e-10
1.06447e-09
1.13388e-09
1.34678e-09
1.42681e-09
1.81356e-09
2.32812e-09
3.25224e-09
4.47429e-09
6.21648e-09
8.27614e-09
1.06668e-08
1.30085e-08
1.50861e-08
1.64601e-08
1.71142e-08
1.69274e-08
1.59871e-08
1.45327e-08
1.29354e-08
1.13624e-08
9.92537e-09
8.65184e-09
7.54461e-09
6.61248e-09
5.9392e-09
5.55105e-09
5.48532e-09
5.77185e-09
6.35299e-09
6.92615e-09
7.17509e-09
6.80385e-09
5.86352e-09
4.457e-09
3.20091e-09
2.4642e-08
2.34602e-08
-1.20268e-08
-2.88976e-08
-3.86458e-08
-4.35318e-08
-4.65896e-08
-4.79969e-08
-4.90936e-08
-4.92121e-08
-4.9861e-08
-4.93057e-08
-5.23403e-08
-4.82919e-07
-6.9944e-09
-8.32053e-09
-4.23936e-09
-3.27587e-09
-1.79165e-09
-8.20821e-10
3.42821e-10
1.3342e-09
2.11167e-09
2.72757e-09
2.92354e-09
2.9667e-09
2.73115e-09
2.70551e-09
2.44656e-09
2.62716e-09
2.85287e-09
3.39658e-09
3.87751e-09
4.33888e-09
4.39466e-09
4.21888e-09
3.8055e-09
3.37893e-09
2.97691e-09
2.68557e-09
2.45348e-09
2.2604e-09
2.07648e-09
1.91104e-09
1.74649e-09
1.6016e-09
1.5068e-09
1.4965e-09
1.60175e-09
1.87702e-09
2.36734e-09
3.12225e-09
4.20323e-09
5.59586e-09
6.87672e-09
7.62044e-09
7.6644e-09
7.04188e-09
6.001e-09
3.88454e-09
5.40289e-10
8.64085e-10
-1.0594e-08
-1.95649e-08
-2.41879e-08
-2.6404e-08
-2.77774e-08
-2.83039e-08
-2.88412e-08
-2.87437e-08
-2.91387e-08
-2.87516e-08
-3.95175e-08
-5.25531e-07
-1.96384e-09
-9.60237e-09
-4.1966e-09
-2.69078e-09
-8.55823e-10
-5.68081e-11
6.32783e-10
7.82406e-10
7.19574e-10
5.66015e-10
2.99987e-10
5.29251e-11
-2.09306e-10
-3.53375e-10
-5.58496e-10
-5.42164e-10
-4.89296e-10
-2.63835e-10
-7.66914e-12
3.49559e-10
6.4396e-10
9.15885e-10
1.07258e-09
1.14764e-09
1.13288e-09
1.1103e-09
1.0878e-09
1.04441e-09
9.79949e-10
9.26083e-10
8.58884e-10
7.74515e-10
7.06414e-10
6.92645e-10
7.65292e-10
9.78501e-10
1.35912e-09
1.91347e-09
2.64814e-09
3.48517e-09
3.96412e-09
4.25692e-09
4.90411e-09
6.30367e-09
7.81228e-09
6.75994e-09
1.68856e-09
-1.9377e-09
-7.34292e-09
-1.52698e-08
-1.81121e-08
-1.92388e-08
-1.98115e-08
-2.00227e-08
-2.025e-08
-2.01453e-08
-2.03526e-08
-2.22962e-08
-4.83319e-08
-5.33252e-07
1.02027e-08
-9.08614e-09
-4.0462e-09
-3.08947e-09
-2.39887e-09
-2.13738e-09
-1.79475e-09
-1.59825e-09
-1.44925e-09
-1.35358e-09
-1.34488e-09
-1.35835e-09
-1.43265e-09
-1.45694e-09
-1.52868e-09
-1.46806e-09
-1.37909e-09
-1.19525e-09
-9.9991e-10
-7.52069e-10
-5.68096e-10
-4.32696e-10
-3.83746e-10
-3.89892e-10
-4.40442e-10
-4.72878e-10
-4.87807e-10
-4.97973e-10
-5.02236e-10
-5.0453e-10
-5.19602e-10
-5.38864e-10
-5.54322e-10
-5.65052e-10
-5.48795e-10
-4.66725e-10
-3.16607e-10
-1.5174e-10
-5.05437e-11
-1.00692e-10
-4.56275e-10
-6.71041e-10
-5.58072e-10
5.09518e-10
5.01177e-09
1.0583e-08
4.06147e-09
-1.19204e-09
-3.79121e-09
-8.6444e-09
-1.42963e-08
-1.42438e-08
-1.36545e-08
-1.33461e-08
-1.31436e-08
-1.29489e-08
-1.34801e-08
-2.44274e-08
-5.17212e-08
-5.34077e-07
7.17592e-08
-3.20174e-09
-1.91956e-09
-1.5938e-09
-1.46701e-09
-1.44938e-09
-1.42406e-09
-1.43037e-09
-1.44238e-09
-1.45531e-09
-1.48658e-09
-1.5219e-09
-1.56654e-09
-1.59179e-09
-1.61544e-09
-1.57343e-09
-1.49241e-09
-1.37927e-09
-1.25165e-09
-1.09204e-09
-9.4993e-10
-8.15992e-10
-6.83488e-10
-5.06041e-10
-2.86915e-10
-2.64299e-11
2.66844e-10
5.70165e-10
7.24673e-10
6.77548e-10
4.56733e-10
1.21702e-10
-2.45013e-10
-5.3784e-10
-6.57267e-10
-6.84276e-10
-6.13288e-10
-4.17585e-10
-1.33891e-10
8.52181e-11
9.28318e-11
-1.05026e-11
-1.94765e-10
-4.10226e-10
1.54037e-10
9.25805e-09
7.47629e-09
-1.48782e-10
-3.3054e-09
-4.87879e-09
-6.969e-09
-8.39721e-09
-8.49073e-09
-8.51792e-09
-8.5762e-09
-8.54092e-09
-1.04806e-08
-2.53697e-08
-5.20392e-08
-5.34134e-07
1.01174e-07
-1.44951e-09
-1.17119e-09
-1.05665e-09
-9.97327e-10
-9.83985e-10
-9.71636e-10
-9.77118e-10
-1.00458e-09
-1.03523e-09
-1.07719e-09
-1.12313e-09
-1.16146e-09
-1.18261e-09
-1.18388e-09
-1.1182e-09
-9.78512e-10
-7.78015e-10
-5.05434e-10
-1.19231e-10
4.02448e-10
1.01672e-09
1.78437e-09
2.79409e-09
3.66342e-09
4.18912e-09
4.58378e-09
4.96984e-09
5.26218e-09
5.2622e-09
4.9472e-09
4.37523e-09
3.53579e-09
2.62563e-09
1.88316e-09
1.49936e-09
1.36398e-09
1.20321e-09
8.08207e-10
4.83262e-10
2.26879e-10
1.02686e-10
4.8427e-11
2.85283e-11
7.28625e-11
2.57829e-09
1.07156e-08
1.23035e-09
-2.89932e-09
-4.84688e-09
-5.93529e-09
-7.63286e-09
-8.04343e-09
-8.16107e-09
-8.27057e-09
-8.25874e-09
-1.03466e-08
-2.54193e-08
-5.20305e-08
-5.34185e-07
1.68638e-08
-1.33381e-09
-1.09081e-09
-9.09942e-10
-7.755e-10
-6.67339e-10
-5.72465e-10
-4.71908e-10
-3.95516e-10
-2.90697e-10
-1.62667e-10
-1.90144e-11
2.42727e-10
5.22684e-10
7.38896e-10
1.17503e-09
2.06238e-09
3.07761e-09
4.15663e-09
5.43179e-09
6.91266e-09
8.25226e-09
9.2416e-09
9.90525e-09
1.0285e-08
1.0431e-08
1.04185e-08
1.02885e-08
9.99696e-09
9.56231e-09
9.15598e-09
8.70029e-09
8.1835e-09
7.41549e-09
6.45382e-09
5.62066e-09
5.21048e-09
4.5898e-09
2.73035e-09
4.83072e-10
4.74077e-11
1.81051e-11
1.46601e-11
1.59904e-11
5.79582e-11
2.05601e-09
1.24569e-08
3.23702e-09
-2.41645e-09
-5.01254e-09
-6.24064e-09
-7.43202e-09
-8.01112e-09
-8.14167e-09
-8.25957e-09
-8.2502e-09
-1.03382e-08
-2.54159e-08
-5.20082e-08
-5.34357e-07
3.76639e-07
-5.76238e-10
-4.52482e-10
1.31462e-10
7.04327e-10
1.43318e-09
2.09663e-09
3.11524e-09
3.93415e-09
4.71591e-09
5.55598e-09
6.25313e-09
6.69329e-09
7.0169e-09
7.15478e-09
7.16731e-09
7.4439e-09
8.0402e-09
8.74283e-09
9.45898e-09
1.01336e-08
1.05184e-08
1.06083e-08
1.05302e-08
1.03928e-08
1.01401e-08
9.55291e-09
8.63279e-09
7.85841e-09
7.34292e-09
6.92053e-09
6.49732e-09
6.10492e-09
5.88052e-09
6.01484e-09
6.71144e-09
7.13026e-09
6.83046e-09
6.62505e-09
3.24056e-09
2.02985e-10
2.63576e-11
1.82932e-11
2.31255e-11
7.82894e-11
3.86713e-09
1.97297e-08
7.27069e-09
-1.48321e-09
-5.31314e-09
-7.0364e-09
-7.89808e-09
-7.99253e-09
-8.12467e-09
-8.25374e-09
-8.23827e-09
-1.0336e-08
-2.53817e-08
-5.2013e-08
-5.34376e-07
4.25151e-07
-5.49025e-10
-3.9827e-10
2.12909e-10
1.07296e-09
1.9562e-09
2.84503e-09
3.84008e-09
4.84639e-09
5.95276e-09
7.10732e-09
8.1372e-09
8.96393e-09
9.52502e-09
9.64213e-09
9.57493e-09
9.63909e-09
9.8504e-09
1.00561e-08
1.01988e-08
1.02251e-08
1.01014e-08
9.88463e-09
9.67778e-09
9.73398e-09
9.74853e-09
9.42396e-09
8.91247e-09
8.27936e-09
7.63456e-09
7.1595e-09
6.52896e-09
5.75619e-09
5.11941e-09
4.7196e-09
4.70767e-09
5.25754e-09
6.50962e-09
7.85268e-09
4.95536e-09
4.26294e-10
5.28506e-11
4.07913e-11
5.05898e-11
1.34929e-10
5.6055e-09
2.27251e-08
8.61169e-09
-1.1036e-09
-5.32859e-09
-7.20268e-09
-8.08668e-09
-7.98989e-09
-8.10953e-09
-8.25062e-09
-8.23057e-09
-1.03379e-08
-2.53716e-08
-5.20195e-08
-5.34034e-07
2.34657e-07
-1.14562e-09
6.38902e-10
3.32027e-09
5.32813e-09
7.31757e-09
9.47275e-09
1.17724e-08
1.3818e-08
1.588e-08
1.81742e-08
2.04045e-08
2.24374e-08
2.37729e-08
2.41432e-08
2.40366e-08
2.40547e-08
2.39922e-08
2.44369e-08
2.59757e-08
2.80441e-08
3.01771e-08
3.16925e-08
3.20787e-08
3.18983e-08
3.15469e-08
3.05527e-08
2.87006e-08
2.61251e-08
2.33549e-08
2.08796e-08
1.80767e-08
1.44989e-08
1.06365e-08
7.87089e-09
6.43117e-09
6.28316e-09
8.51464e-09
1.09977e-08
6.63625e-09
5.29091e-10
4.24175e-11
2.45528e-11
2.8e-11
6.53518e-11
2.50184e-09
1.72502e-08
6.55607e-09
-1.13269e-09
-4.72644e-09
-6.3983e-09
-7.4165e-09
-7.95168e-09
-8.10505e-09
-8.24831e-09
-8.23079e-09
-1.03413e-08
-2.54063e-08
-5.20913e-08
-5.34214e-07
4.01262e-08
-1.23571e-09
8.6927e-10
1.91972e-09
3.07891e-09
6.15082e-09
1.03842e-08
1.55322e-08
2.11198e-08
2.7076e-08
3.27237e-08
3.65377e-08
3.86666e-08
3.93963e-08
3.85463e-08
3.60712e-08
3.26155e-08
3.07035e-08
2.9686e-08
3.11843e-08
3.59216e-08
4.04722e-08
4.08574e-08
3.90791e-08
4.22971e-08
4.72706e-08
4.6363e-08
3.8473e-08
2.51695e-08
2.34733e-08
2.15532e-08
2.47112e-08
2.21967e-08
1.62354e-08
1.1461e-08
8.28138e-09
6.58737e-09
6.89804e-09
9.5273e-09
6.70116e-09
5.75682e-10
4.44525e-11
1.30299e-11
8.01041e-12
9.764e-12
2.57995e-10
7.23271e-09
2.3638e-09
-1.59362e-09
-3.57582e-09
-4.60787e-09
-5.71412e-09
-7.87249e-09
-8.12567e-09
-8.24716e-09
-8.2452e-09
-1.03468e-08
-2.54853e-08
-5.22228e-08
-5.34757e-07
2.916e-08
-6.45169e-10
1.08749e-09
1.86573e-09
3.58913e-09
7.82513e-09
1.27717e-08
1.83859e-08
2.44209e-08
3.07087e-08
3.63077e-08
3.97471e-08
4.16608e-08
4.23248e-08
4.10285e-08
3.71609e-08
3.28835e-08
3.18582e-08
3.25341e-08
3.38004e-08
3.61771e-08
4.09631e-08
4.50797e-08
4.20173e-08
2.71978e-08
2.8123e-08
3.80868e-08
3.85383e-08
3.66644e-08
3.38566e-08
2.11643e-08
1.67184e-08
1.34697e-08
1.30067e-08
1.05879e-08
7.32643e-09
5.78259e-09
6.6032e-09
8.91382e-09
6.54304e-09
6.48172e-10
5.36586e-11
1.54306e-11
8.61364e-12
9.45038e-12
2.53988e-10
7.03014e-09
2.1974e-09
-1.61588e-09
-3.53704e-09
-4.54164e-09
-5.64628e-09
-7.87482e-09
-8.13079e-09
-8.24986e-09
-8.24517e-09
-1.03478e-08
-2.54737e-08
-5.21995e-08
-5.35032e-07
1.70849e-07
-7.17401e-10
1.75015e-09
4.52025e-09
7.32002e-09
1.08908e-08
1.44181e-08
1.74277e-08
1.98394e-08
2.14886e-08
2.29404e-08
2.43454e-08
2.5284e-08
2.57331e-08
2.54856e-08
2.46208e-08
2.36515e-08
2.15577e-08
2.11819e-08
2.20089e-08
2.36781e-08
2.55448e-08
2.70886e-08
2.76893e-08
2.70178e-08
2.57734e-08
2.45767e-08
2.32557e-08
2.15466e-08
1.92511e-08
1.63111e-08
1.25987e-08
9.62786e-09
7.33571e-09
5.70752e-09
4.67101e-09
4.35394e-09
5.17178e-09
6.98634e-09
4.30224e-09
3.26818e-10
3.20766e-11
2.14395e-11
2.50421e-11
6.98458e-11
3.52641e-09
1.53775e-08
5.2973e-09
-1.35453e-09
-4.64168e-09
-6.21024e-09
-7.24061e-09
-7.94709e-09
-8.12729e-09
-8.24865e-09
-8.24677e-09
-1.03423e-08
-2.54464e-08
-5.20906e-08
-5.34769e-07
3.404e-07
9.14924e-11
6.25083e-10
2.23155e-09
4.79671e-09
7.96811e-09
9.55415e-09
1.10251e-08
1.21764e-08
1.30808e-08
1.32706e-08
1.30042e-08
1.3075e-08
1.33335e-08
1.45144e-08
1.50964e-08
1.44353e-08
1.28509e-08
1.26927e-08
1.36866e-08
1.39854e-08
1.35804e-08
1.09923e-08
6.44519e-09
6.74655e-09
9.39411e-09
1.27448e-08
1.27704e-08
1.19783e-08
1.09503e-08
7.52475e-09
3.51692e-09
2.66777e-09
2.92297e-09
3.33643e-09
3.47943e-09
4.29724e-09
6.44823e-09
9.81418e-09
7.09428e-09
5.4688e-10
5.06075e-11
3.0418e-11
3.50122e-11
1.29631e-10
7.98035e-09
1.80297e-08
5.63662e-09
-1.5347e-09
-5.02567e-09
-6.63635e-09
-7.58127e-09
-7.96821e-09
-8.13876e-09
-8.24869e-09
-8.25587e-09
-1.03372e-08
-2.54457e-08
-5.20372e-08
-5.34434e-07
2.77259e-07
-6.11815e-10
-2.05128e-10
5.23457e-10
1.42818e-09
3.15984e-09
4.68673e-09
6.47018e-09
7.86999e-09
9.09813e-09
1.00348e-08
1.05999e-08
1.10625e-08
1.16366e-08
1.17331e-08
1.12093e-08
1.11429e-08
1.10664e-08
1.12727e-08
1.10817e-08
1.04106e-08
8.03318e-09
6.10167e-09
6.32104e-09
7.67775e-09
8.76545e-09
8.79367e-09
6.15496e-09
3.43069e-09
3.24669e-09
3.04531e-09
3.34176e-09
4.4693e-09
5.02963e-09
5.19228e-09
5.47837e-09
6.05634e-09
7.0977e-09
8.20594e-09
3.77304e-09
1.95574e-10
2.0402e-11
1.64994e-11
2.51438e-11
1.05566e-10
6.4321e-09
1.59771e-08
4.60673e-09
-1.83298e-09
-4.97465e-09
-6.45853e-09
-7.45395e-09
-7.9798e-09
-8.13719e-09
-8.25236e-09
-8.25026e-09
-1.03346e-08
-2.54139e-08
-5.19951e-08
-5.34551e-07
2.9816e-08
-1.44912e-09
-1.27801e-09
-1.13631e-09
-1.02168e-09
-9.02094e-10
-7.89423e-10
-6.46725e-10
-5.14565e-10
-3.27019e-10
-1.85089e-11
4.01768e-10
8.79778e-10
1.33447e-09
1.83484e-09
2.31794e-09
2.61443e-09
2.97812e-09
3.41905e-09
4.05134e-09
4.75695e-09
5.19719e-09
5.65657e-09
6.35544e-09
6.88331e-09
6.75051e-09
5.14853e-09
4.56965e-09
4.5852e-09
4.69976e-09
5.01764e-09
5.15334e-09
4.67684e-09
4.12318e-09
3.91859e-09
4.09924e-09
4.58708e-09
5.08399e-09
4.35663e-09
1.1105e-09
7.05535e-11
1.12899e-11
7.41901e-12
1.10544e-11
7.22695e-11
2.84144e-09
1.0597e-08
2.14225e-09
-2.54326e-09
-4.79165e-09
-5.93558e-09
-7.37315e-09
-7.99887e-09
-8.10624e-09
-8.24962e-09
-8.22349e-09
-1.03365e-08
-2.53785e-08
-5.20288e-08
-5.34735e-07
1.31512e-07
-1.54012e-09
-1.27763e-09
-1.17167e-09
-1.12038e-09
-1.09413e-09
-1.0828e-09
-1.07485e-09
-1.09414e-09
-1.1152e-09
-1.14341e-09
-1.16617e-09
-1.18091e-09
-1.17156e-09
-1.15569e-09
-1.11303e-09
-1.04164e-09
-9.3086e-10
-7.86016e-10
-6.00754e-10
-4.02091e-10
-2.25799e-10
-7.40447e-11
8.13353e-11
2.40202e-10
4.16194e-10
5.56043e-10
6.30997e-10
6.04538e-10
4.47067e-10
2.06761e-10
5.66298e-12
-5.78221e-11
-3.25655e-11
8.0965e-11
2.95715e-10
6.48448e-10
1.21745e-09
1.91064e-09
1.36699e-09
4.0062e-10
1.23487e-10
5.44796e-11
2.54651e-11
6.90279e-11
3.27533e-09
8.91644e-09
6.09065e-10
-3.02475e-09
-4.87009e-09
-6.29455e-09
-8.52058e-09
-8.56414e-09
-8.48098e-09
-8.43352e-09
-8.35086e-09
-1.03742e-08
-2.54083e-08
-5.20723e-08
-5.343e-07
1.21911e-07
-3.28083e-09
-2.04718e-09
-1.80333e-09
-1.6773e-09
-1.62938e-09
-1.56746e-09
-1.52533e-09
-1.49891e-09
-1.48355e-09
-1.49228e-09
-1.50258e-09
-1.53995e-09
-1.55661e-09
-1.57975e-09
-1.54744e-09
-1.49038e-09
-1.3697e-09
-1.21998e-09
-1.02408e-09
-8.51697e-10
-7.0273e-10
-5.93815e-10
-5.02437e-10
-4.41478e-10
-3.94348e-10
-3.5278e-10
-3.10965e-10
-2.91067e-10
-3.1244e-10
-3.68057e-10
-4.0993e-10
-4.12524e-10
-3.58712e-10
-2.53988e-10
-8.86153e-11
1.13366e-10
2.94448e-10
4.42357e-10
5.88727e-10
5.31122e-10
2.63172e-10
-6.76131e-11
-4.07642e-10
4.96753e-10
9.40899e-09
6.09293e-09
-4.44788e-10
-3.45286e-09
-5.28745e-09
-1.01216e-08
-1.14519e-08
-1.06655e-08
-1.00569e-08
-9.45151e-09
-9.1156e-09
-1.0643e-08
-2.53507e-08
-5.21297e-08
-5.34393e-07
2.56715e-08
-6.75744e-09
-3.3075e-09
-2.76915e-09
-2.251e-09
-1.99037e-09
-1.62939e-09
-1.40226e-09
-1.22601e-09
-1.12094e-09
-1.09741e-09
-1.10079e-09
-1.16579e-09
-1.19673e-09
-1.27648e-09
-1.21422e-09
-1.13067e-09
-8.99213e-10
-6.3338e-10
-2.71089e-10
3.19063e-11
2.92917e-10
4.53534e-10
5.65393e-10
6.09236e-10
6.22822e-10
6.11754e-10
5.91563e-10
5.33305e-10
4.21633e-10
2.82993e-10
1.81464e-10
1.45961e-10
1.91663e-10
3.06825e-10
5.01745e-10
7.50664e-10
9.84373e-10
1.17287e-09
1.10163e-09
7.34743e-10
4.16986e-10
5.30602e-10
1.70642e-09
5.6468e-09
9.06586e-09
3.34893e-09
-1.32632e-09
-3.98336e-09
-9.4196e-09
-1.46947e-08
-1.53813e-08
-1.50699e-08
-1.46927e-08
-1.42005e-08
-1.38368e-08
-1.39942e-08
-2.42154e-08
-5.18062e-08
-5.34818e-07
1.55901e-08
-7.33231e-09
-3.0362e-09
-1.93869e-09
-8.55998e-10
-7.62167e-10
-4.80977e-10
-4.16589e-10
-3.51378e-10
-3.32225e-10
-3.86796e-10
-4.53685e-10
-5.89051e-10
-6.39195e-10
-7.57396e-10
-6.80464e-10
-5.80174e-10
-2.98333e-10
1.79392e-11
4.47013e-10
8.11468e-10
1.14816e-09
1.35957e-09
1.50787e-09
1.56483e-09
1.57948e-09
1.54903e-09
1.49899e-09
1.41663e-09
1.30106e-09
1.16882e-09
1.09414e-09
1.11656e-09
1.24887e-09
1.49616e-09
1.87031e-09
2.34095e-09
2.83161e-09
3.28671e-09
3.63376e-09
3.82182e-09
4.10458e-09
4.77841e-09
5.64576e-09
6.55414e-09
5.86907e-09
1.56445e-09
-2.07089e-09
-6.77685e-09
-1.49008e-08
-1.83267e-08
-1.98373e-08
-2.05707e-08
-2.0855e-08
-2.10428e-08
-2.09569e-08
-2.1093e-08
-2.27708e-08
-4.83521e-08
-5.34532e-07
-1.21009e-09
-6.78681e-09
-3.44624e-09
-2.53519e-09
-1.09374e-09
1.02065e-10
1.44399e-09
2.54253e-09
3.25711e-09
3.62326e-09
3.51299e-09
3.28302e-09
2.81452e-09
2.55701e-09
2.11539e-09
2.08399e-09
2.07662e-09
2.36578e-09
2.63895e-09
3.01287e-09
3.21962e-09
3.38971e-09
3.3802e-09
3.30839e-09
3.13502e-09
2.94262e-09
2.72762e-09
2.52726e-09
2.31839e-09
2.1105e-09
1.91317e-09
1.79342e-09
1.78644e-09
1.91369e-09
2.16618e-09
2.54946e-09
3.04229e-09
3.63794e-09
4.34404e-09
5.11567e-09
5.87132e-09
6.42567e-09
6.32259e-09
5.77166e-09
4.89625e-09
3.33637e-09
1.52476e-10
-1.3049e-09
-1.17138e-08
-2.04906e-08
-2.52731e-08
-2.76142e-08
-2.89413e-08
-2.95173e-08
-2.99233e-08
-2.99001e-08
-3.01424e-08
-2.98164e-08
-4.0639e-08
-5.28026e-07
8.90874e-10
-5.12642e-09
-2.42597e-09
-2.27897e-09
-1.45519e-09
-1.02106e-09
-3.77102e-10
2.41856e-10
7.82543e-10
1.31506e-09
1.6397e-09
1.94456e-09
2.01617e-09
2.29126e-09
2.3339e-09
2.83269e-09
3.4513e-09
4.63455e-09
6.14268e-09
8.26149e-09
1.0594e-08
1.31087e-08
1.52544e-08
1.69117e-08
1.77235e-08
1.7708e-08
1.68736e-08
1.55333e-08
1.39011e-08
1.22184e-08
1.06114e-08
9.23196e-09
8.09039e-09
7.20049e-09
6.53331e-09
6.1003e-09
5.95257e-09
6.04861e-09
6.32597e-09
6.62597e-09
6.74246e-09
6.43954e-09
5.85398e-09
5.03101e-09
3.96795e-09
3.32317e-09
3.25046e-08
1.88853e-08
-1.51509e-08
-3.15254e-08
-4.10064e-08
-4.56643e-08
-4.84903e-08
-4.97799e-08
-5.06637e-08
-5.07915e-08
-5.12354e-08
-5.08177e-08
-5.36138e-08
-4.91263e-07
-7.73373e-10
7.30579e-10
4.35032e-09
5.02324e-09
5.88867e-09
6.23607e-09
6.52476e-09
6.71153e-09
6.75352e-09
6.7788e-09
6.66058e-09
6.56649e-09
6.35526e-09
6.20469e-09
6.0034e-09
5.93816e-09
5.94395e-09
6.15004e-09
6.52365e-09
7.15623e-09
7.98445e-09
9.06362e-09
1.03167e-08
1.17971e-08
1.35044e-08
1.55232e-08
1.78877e-08
2.07132e-08
2.40465e-08
2.80409e-08
3.29343e-08
3.9454e-08
4.8669e-08
6.2368e-08
8.31775e-08
1.15082e-07
1.64359e-07
2.41311e-07
3.60165e-07
5.37586e-07
7.9042e-07
1.12573e-06
1.48405e-06
1.7614e-06
1.77396e-06
1.30429e-06
6.56662e-07
2.83453e-07
5.49758e-08
-5.81549e-08
-1.27423e-07
-1.63925e-07
-1.84831e-07
-1.98064e-07
-2.03098e-07
-2.08714e-07
-2.08451e-07
-2.11494e-07
-2.09016e-07
-2.03526e-07
-2.27981e-09
-2.87393e-10
3.65394e-09
4.50637e-09
5.58047e-09
6.02382e-09
6.38385e-09
6.63444e-09
6.6997e-09
6.76947e-09
6.68076e-09
6.63857e-09
6.45839e-09
6.33006e-09
6.12204e-09
6.02367e-09
6.00048e-09
6.20404e-09
6.62286e-09
7.34158e-09
8.28868e-09
9.49262e-09
1.08888e-08
1.25341e-08
1.43628e-08
1.64784e-08
1.89628e-08
2.19477e-08
2.54715e-08
2.97041e-08
3.48785e-08
4.15811e-08
5.07973e-08
6.43138e-08
8.4989e-08
1.17138e-07
1.66946e-07
2.42662e-07
3.56423e-07
5.20682e-07
7.47979e-07
1.04832e-06
1.38815e-06
1.69664e-06
1.79445e-06
1.39467e-06
7.12688e-07
3.03929e-07
5.90852e-08
-5.90782e-08
-1.30189e-07
-1.66697e-07
-1.87358e-07
-2.00223e-07
-2.04942e-07
-2.10333e-07
-2.09915e-07
-2.12827e-07
-2.09785e-07
-1.9822e-07
-1.6392e-09
-6.12095e-09
-2.76933e-09
-2.42754e-09
-1.43165e-09
-9.75375e-10
-3.8161e-10
1.72672e-10
6.13692e-10
1.14292e-09
1.49934e-09
1.95867e-09
2.2197e-09
2.59072e-09
2.66798e-09
3.05307e-09
3.55743e-09
4.69402e-09
6.26445e-09
8.48075e-09
1.08934e-08
1.33518e-08
1.52628e-08
1.64642e-08
1.65648e-08
1.57888e-08
1.43464e-08
1.25887e-08
1.07261e-08
8.98632e-09
7.45849e-09
6.20233e-09
5.2276e-09
4.53895e-09
4.10643e-09
3.92563e-09
3.96005e-09
4.14677e-09
4.40746e-09
4.64567e-09
4.7403e-09
4.56244e-09
4.1647e-09
3.67032e-09
3.12303e-09
2.94453e-09
2.94213e-08
1.88031e-08
-1.49773e-08
-3.1195e-08
-4.06172e-08
-4.51956e-08
-4.8125e-08
-4.93321e-08
-5.03941e-08
-5.04115e-08
-5.10396e-08
-5.04596e-08
-5.35578e-08
-4.86059e-07
-3.23037e-09
-8.14259e-09
-3.78964e-09
-2.79185e-09
-1.2141e-09
-1.09599e-10
1.10567e-09
2.11417e-09
2.82393e-09
3.3767e-09
3.47382e-09
3.48221e-09
3.17115e-09
2.89173e-09
2.40507e-09
2.18485e-09
2.02083e-09
2.18853e-09
2.39364e-09
2.67298e-09
2.77816e-09
2.82599e-09
2.73397e-09
2.61192e-09
2.40078e-09
2.18336e-09
1.95541e-09
1.74493e-09
1.53317e-09
1.3371e-09
1.16114e-09
1.03696e-09
9.8664e-10
1.03813e-09
1.21461e-09
1.52495e-09
1.93364e-09
2.39275e-09
2.88225e-09
3.39201e-09
3.89147e-09
4.31267e-09
4.36357e-09
4.16501e-09
3.78055e-09
2.9664e-09
2.85636e-10
-1.3299e-09
-1.17192e-08
-2.01916e-08
-2.48704e-08
-2.7174e-08
-2.85939e-08
-2.91579e-08
-2.96814e-08
-2.96345e-08
-2.99739e-08
-2.96312e-08
-4.10196e-08
-5.27702e-07
3.94894e-09
-8.51982e-09
-3.22371e-09
-1.95797e-09
-6.95623e-10
-5.82142e-10
-4.09693e-10
-4.12062e-10
-4.37652e-10
-4.40958e-10
-4.72032e-10
-4.908e-10
-5.54183e-10
-6.04441e-10
-7.26168e-10
-7.55167e-10
-7.37921e-10
-5.22414e-10
-2.32107e-10
1.53343e-10
4.63889e-10
7.19751e-10
8.57297e-10
9.37815e-10
9.31583e-10
8.8839e-10
8.16711e-10
7.41325e-10
6.49232e-10
5.51472e-10
4.53001e-10
3.78898e-10
3.50028e-10
3.95093e-10
5.36599e-10
7.76717e-10
1.0774e-09
1.37021e-09
1.58369e-09
1.82235e-09
2.19163e-09
2.78038e-09
3.62424e-09
4.39082e-09
5.10262e-09
5.00772e-09
1.68368e-09
-2.14345e-09
-6.42329e-09
-1.43113e-08
-1.76785e-08
-1.92564e-08
-2.01865e-08
-2.05437e-08
-2.0889e-08
-2.08335e-08
-2.10691e-08
-2.30553e-08
-4.89252e-08
-5.35128e-07
2.20844e-08
-7.73552e-09
-3.23201e-09
-2.78255e-09
-2.18795e-09
-1.93821e-09
-1.65066e-09
-1.49659e-09
-1.38335e-09
-1.31966e-09
-1.27409e-09
-1.23173e-09
-1.23588e-09
-1.23944e-09
-1.30587e-09
-1.31232e-09
-1.27893e-09
-1.10773e-09
-8.74663e-10
-5.74307e-10
-3.3191e-10
-1.40371e-10
-3.41643e-11
3.50831e-11
5.67732e-11
5.23382e-11
3.49303e-11
1.5545e-11
-1.7851e-11
-5.91197e-11
-1.03342e-10
-1.37292e-10
-1.44056e-10
-9.9393e-11
2.35868e-11
2.29578e-10
4.80808e-10
7.16049e-10
8.83865e-10
9.53257e-10
9.00831e-10
8.32348e-10
9.38724e-10
1.6091e-09
4.04762e-09
7.68253e-09
4.25561e-09
-1.18473e-09
-3.91387e-09
-6.36744e-09
-1.11533e-08
-1.23652e-08
-1.29392e-08
-1.3183e-08
-1.33795e-08
-1.3364e-08
-1.39626e-08
-2.45713e-08
-5.18701e-08
-5.36167e-07
5.92448e-08
-4.48801e-09
-2.56301e-09
-2.17935e-09
-1.96031e-09
-1.82318e-09
-1.67477e-09
-1.58029e-09
-1.5113e-09
-1.46467e-09
-1.42444e-09
-1.38068e-09
-1.36348e-09
-1.33791e-09
-1.36149e-09
-1.37385e-09
-1.3415e-09
-1.22638e-09
-1.06111e-09
-8.5438e-10
-6.71227e-10
-5.16137e-10
-4.10123e-10
-3.25105e-10
-2.66655e-10
-2.26954e-10
-2.06368e-10
-2.01054e-10
-2.16098e-10
-2.45212e-10
-2.86859e-10
-3.21398e-10
-3.18619e-10
-2.42908e-10
-6.83936e-11
2.1023e-10
5.62184e-10
9.7362e-10
1.43471e-09
1.84004e-09
1.64668e-09
1.06746e-09
4.18545e-10
-1.29049e-10
5.26627e-11
4.54131e-09
7.07289e-09
-1.83844e-10
-3.23892e-09
-4.85128e-09
-6.7208e-09
-8.19173e-09
-8.50172e-09
-8.62821e-09
-8.71838e-09
-8.71629e-09
-1.05875e-08
-2.54809e-08
-5.22438e-08
-5.36528e-07
1.2915e-07
-1.76301e-09
-1.3796e-09
-1.26262e-09
-1.21753e-09
-1.17079e-09
-1.12732e-09
-1.09208e-09
-1.06597e-09
-1.04091e-09
-1.01525e-09
-9.86963e-10
-9.69594e-10
-9.57797e-10
-9.6478e-10
-9.66864e-10
-9.17077e-10
-8.11816e-10
-6.63307e-10
-4.72271e-10
-2.59183e-10
-4.45438e-11
1.52395e-10
3.18117e-10
4.31502e-10
4.88398e-10
5.08574e-10
5.11053e-10
4.95967e-10
4.46582e-10
3.54297e-10
2.56664e-10
2.07317e-10
2.61383e-10
4.62201e-10
8.64247e-10
1.57607e-09
2.63612e-09
4.04373e-09
5.16639e-09
4.23594e-09
1.86755e-09
6.26178e-10
2.19461e-10
1.22155e-10
6.56046e-10
7.40791e-09
7.24588e-10
-2.73773e-09
-4.42331e-09
-5.58757e-09
-7.68266e-09
-8.07028e-09
-8.19312e-09
-8.28597e-09
-8.2826e-09
-1.03635e-08
-2.55201e-08
-5.22031e-08
-5.36303e-07
1.11558e-07
-1.30463e-09
-1.05747e-09
-9.47272e-10
-9.31297e-10
-9.04671e-10
-8.78331e-10
-8.36593e-10
-7.88195e-10
-7.10057e-10
-5.9781e-10
-4.4746e-10
-2.80265e-10
-8.81264e-11
7.34735e-11
2.93056e-10
7.01757e-10
1.33988e-09
2.14908e-09
3.22315e-09
4.59899e-09
6.13416e-09
7.67995e-09
8.99345e-09
9.93525e-09
1.03623e-08
1.04491e-08
1.0363e-08
1.00594e-08
9.29408e-09
7.91995e-09
6.26345e-09
4.73636e-09
3.67934e-09
3.28139e-09
3.65309e-09
4.71016e-09
6.37299e-09
7.48502e-09
5.22637e-09
1.41893e-09
2.68306e-10
6.95035e-11
2.98786e-11
2.87467e-11
4.83525e-10
7.27647e-09
1.86021e-09
-2.37812e-09
-4.36691e-09
-5.45296e-09
-7.31162e-09
-8.02665e-09
-8.1542e-09
-8.26835e-09
-8.25447e-09
-1.03525e-08
-2.54574e-08
-5.21272e-08
-5.35846e-07
4.19453e-08
-1.19415e-09
-9.25667e-10
-6.48497e-10
-4.8454e-10
-2.26279e-10
6.91224e-11
5.03038e-10
1.03651e-09
1.6843e-09
2.56567e-09
3.78759e-09
5.02776e-09
6.29858e-09
6.97454e-09
7.29964e-09
8.38527e-09
1.05129e-08
1.27585e-08
1.50931e-08
1.77674e-08
2.04173e-08
2.26747e-08
2.42257e-08
2.50396e-08
2.53234e-08
2.51906e-08
2.45882e-08
2.34072e-08
2.16452e-08
1.95625e-08
1.733e-08
1.5004e-08
1.2641e-08
1.04849e-08
9.00225e-09
8.77391e-09
9.59308e-09
9.48074e-09
3.5361e-09
2.75744e-10
3.53931e-11
1.11147e-11
8.2076e-12
2.20383e-11
9.61388e-10
1.05876e-08
3.48906e-09
-2.05972e-09
-4.61753e-09
-5.87664e-09
-7.0959e-09
-7.99857e-09
-8.1292e-09
-8.26339e-09
-8.24163e-09
-1.03442e-08
-2.54163e-08
-5.20836e-08
-5.35809e-07
2.47185e-07
-1.48774e-10
2.82378e-10
1.74663e-09
2.9008e-09
4.03398e-09
5.03329e-09
6.12454e-09
7.38022e-09
8.65058e-09
9.60929e-09
1.03952e-08
1.10332e-08
1.15386e-08
1.20307e-08
1.22988e-08
1.24255e-08
1.26976e-08
1.30103e-08
1.3028e-08
1.241e-08
1.1139e-08
9.91151e-09
9.56701e-09
9.63034e-09
9.49907e-09
8.9384e-09
8.08469e-09
7.32412e-09
6.8123e-09
6.35147e-09
6.1295e-09
6.00431e-09
5.80642e-09
5.84495e-09
6.11894e-09
6.36128e-09
6.68408e-09
7.1043e-09
3.97217e-09
2.46848e-10
2.22678e-11
1.30505e-11
1.74845e-11
6.20072e-11
4.02601e-09
1.82343e-08
6.38668e-09
-1.35457e-09
-5.03854e-09
-6.72801e-09
-7.68867e-09
-7.98579e-09
-8.12397e-09
-8.25654e-09
-8.24005e-09
-1.03388e-08
-2.54148e-08
-5.20852e-08
-5.3576e-07
3.45283e-07
-7.11734e-10
4.69441e-10
3.00822e-09
4.04931e-09
5.09284e-09
6.0606e-09
6.83585e-09
7.50843e-09
8.04439e-09
8.46321e-09
8.76136e-09
8.84256e-09
8.78028e-09
8.59314e-09
8.36384e-09
8.07061e-09
7.89075e-09
7.92214e-09
8.1352e-09
8.29529e-09
8.23249e-09
8.22204e-09
8.34485e-09
8.47803e-09
8.54485e-09
8.34841e-09
7.66577e-09
6.67811e-09
5.66384e-09
4.73704e-09
3.98511e-09
3.49795e-09
3.26097e-09
3.39231e-09
3.96472e-09
4.81901e-09
5.96214e-09
7.33138e-09
5.09314e-09
3.31672e-10
3.86277e-11
3.6168e-11
4.90818e-11
1.8043e-10
1.20473e-08
2.15341e-08
7.04722e-09
-1.24738e-09
-5.26636e-09
-7.07018e-09
-7.97359e-09
-7.99257e-09
-8.13358e-09
-8.25509e-09
-8.24898e-09
-1.03424e-08
-2.54513e-08
-5.21115e-08
-5.35831e-07
2.90477e-07
-1.24567e-09
7.86121e-10
4.96791e-09
7.18814e-09
9.07349e-09
1.02931e-08
1.12511e-08
1.20413e-08
1.25737e-08
1.28966e-08
1.30037e-08
1.26397e-08
1.23289e-08
1.19015e-08
1.10413e-08
1.00131e-08
9.92394e-09
1.02917e-08
1.08654e-08
1.12907e-08
1.16124e-08
1.18108e-08
1.17873e-08
1.15761e-08
1.11877e-08
1.06072e-08
9.7273e-09
8.40472e-09
6.58589e-09
4.69673e-09
3.46011e-09
2.84365e-09
2.64509e-09
2.92489e-09
3.39583e-09
4.3871e-09
7.13796e-09
1.13655e-08
7.36635e-09
4.02774e-10
4.30887e-11
3.81776e-11
5.09884e-11
2.76636e-10
1.74834e-08
2.08518e-08
6.87872e-09
-1.1611e-09
-5.19792e-09
-7.00941e-09
-7.91087e-09
-7.984e-09
-8.13048e-09
-8.25414e-09
-8.24847e-09
-1.0344e-08
-2.54597e-08
-5.21274e-08
-5.35964e-07
2.88418e-07
-1.88775e-09
1.51269e-09
5.83783e-09
8.01457e-09
9.60367e-09
1.03044e-08
1.08699e-08
1.14596e-08
1.1946e-08
1.21382e-08
1.24287e-08
1.3117e-08
1.42222e-08
1.44934e-08
1.39177e-08
1.26538e-08
1.18476e-08
1.25959e-08
1.33813e-08
1.41427e-08
1.49005e-08
1.58966e-08
1.68276e-08
1.74543e-08
1.78705e-08
1.81247e-08
1.80482e-08
1.7284e-08
1.57421e-08
1.3508e-08
1.04512e-08
7.20846e-09
5.18953e-09
4.18123e-09
3.88974e-09
4.46662e-09
6.71776e-09
1.08556e-08
7.46686e-09
4.51367e-10
4.16555e-11
3.42508e-11
4.59123e-11
2.00252e-10
1.31118e-08
2.01718e-08
6.74636e-09
-1.16673e-09
-5.09271e-09
-6.85555e-09
-7.78435e-09
-7.97769e-09
-8.12952e-09
-8.25442e-09
-8.24619e-09
-1.03459e-08
-2.54594e-08
-5.21492e-08
-5.36226e-07
3.35917e-07
-1.91243e-10
2.53031e-10
2.15771e-09
2.8122e-09
3.52267e-09
4.13677e-09
4.93789e-09
5.80113e-09
6.72742e-09
7.7795e-09
8.92777e-09
9.98332e-09
1.08148e-08
1.12612e-08
1.12886e-08
1.13496e-08
1.17827e-08
1.25776e-08
1.36371e-08
1.49914e-08
1.63664e-08
1.776e-08
1.91916e-08
2.09364e-08
2.26408e-08
2.32217e-08
2.30546e-08
2.19743e-08
2.06674e-08
1.94003e-08
1.69872e-08
1.23018e-08
7.96671e-09
5.96597e-09
4.98334e-09
4.69426e-09
4.59108e-09
4.86446e-09
3.66907e-09
2.72089e-10
3.15057e-11
2.74032e-11
3.39301e-11
1.00081e-10
5.47544e-09
1.81159e-08
6.31581e-09
-1.32121e-09
-4.9577e-09
-6.62267e-09
-7.5875e-09
-7.97646e-09
-8.12898e-09
-8.25487e-09
-8.24615e-09
-1.03446e-08
-2.54482e-08
-5.21369e-08
-5.3594e-07
8.49482e-08
-3.84161e-10
1.01284e-09
1.85722e-09
2.58424e-09
3.83754e-09
5.03676e-09
6.37672e-09
7.97717e-09
9.59546e-09
1.13574e-08
1.3186e-08
1.51225e-08
1.64308e-08
1.65919e-08
1.58986e-08
1.58264e-08
1.63915e-08
1.74855e-08
1.92798e-08
2.20132e-08
2.54563e-08
2.85277e-08
3.07868e-08
3.10176e-08
3.04553e-08
2.89254e-08
2.50909e-08
1.9399e-08
1.43263e-08
1.09368e-08
8.58104e-09
6.81277e-09
5.31396e-09
4.04105e-09
3.32514e-09
3.31052e-09
3.8616e-09
3.75891e-09
1.85654e-09
2.73084e-10
3.27072e-11
1.93386e-11
2.04038e-11
3.92402e-11
1.25431e-09
1.24264e-08
4.24972e-09
-1.64087e-09
-4.44775e-09
-5.81116e-09
-6.84009e-09
-7.95053e-09
-8.14021e-09
-8.25731e-09
-8.25412e-09
-1.03445e-08
-2.54525e-08
-5.20787e-08
-5.35615e-07
4.7654e-08
-3.4617e-10
-2.21128e-10
1.00463e-10
1.10325e-09
2.46657e-09
4.73161e-09
7.01784e-09
1.0144e-08
1.30449e-08
1.49893e-08
1.62089e-08
1.68616e-08
1.64238e-08
1.49684e-08
1.40508e-08
1.44622e-08
1.56861e-08
1.7396e-08
1.93046e-08
2.12213e-08
2.26851e-08
2.20512e-08
2.09431e-08
2.12452e-08
2.04524e-08
1.64665e-08
1.13134e-08
7.84304e-09
5.61514e-09
4.30352e-09
3.32413e-09
2.60159e-09
2.21845e-09