/*--------------------------------*- C++ -*----------------------------------*\
| =========                 |                                                 |
| \\      /  F ield         | OpenFOAM: The Open Source CFD Toolbox           |
|  \\    /   O peration     | Version:  2.1.1                                 |
|   \\  /    A nd           | Web:      www.OpenFOAM.org                      |
|    \\/     M anipulation  |                                                 |
\*---------------------------------------------------------------------------*/
FoamFile
{
    version     2.0;
    format      ascii;
    class       volScalarField;
    location    "0.001";
    object      epsilon;
}
// * * * * * * * * * * * * * * * * * * * * * * * * * * * * * * * * * * * * * //

dimensions      [0 2 -3 0 0 0 0];

internalField   nonuniform List<scalar> 
36520
(
32.4539
71.5879
140.516
158.603
183.484
189.929
195.686
195.179
190.577
183.889
173.898
164.098
152.465
141.787
130.197
119.242
107.688
96.283
84.6165
73.2445
62.1885
51.9811
42.6989
34.5845
27.6183
21.8072
17.0222
13.1715
10.1319
7.77722
5.96744
4.59132
3.54834
2.75799
2.15372
1.68304
1.30678
0.996949
0.735935
0.517149
0.339339
0.205732
0.120658
0.0657955
0.0288757
0.0133889
0.0101272
0.00886038
0.00820374
0.00775867
0.00766889
0.00748849
0.00758356
0.00746722
0.00762282
0.00750265
0.00769027
0.00754542
0.00783295
0.00882595
5.40156
14.5633
19.6754
17.5782
16.5042
14.2816
13.212
12.0814
11.2337
10.457
9.90787
9.56918
9.341
9.15306
8.91856
8.54329
7.9204
7.11819
6.15388
5.13045
4.14571
3.30143
2.61392
2.09697
1.73329
1.48393
1.30887
1.1984
1.14795
1.14402
1.17697
1.24262
1.3429
1.48587
1.68866
1.97556
2.37663
2.92416
3.64399
4.5498
5.54749
6.51943
7.30923
6.22623
2.86709
0.334211
0.0101901
0.00514767
0.00549807
0.00572375
0.00587132
0.00591793
0.00596237
0.00596092
0.0059779
0.00597564
0.00598536
0.00601542
0.006523
0.00228781
1.31682
2.73121
2.89039
2.0875
1.63937
1.22934
1.04322
0.917787
0.841771
0.800615
0.798028
0.816651
0.864605
0.911661
0.961141
0.989353
0.988958
0.966586
0.931405
0.900508
0.892887
0.922556
0.99001
1.09531
1.23387
1.40193
1.59806
1.82549
2.08458
2.37889
2.71611
3.11278
3.59665
4.21361
5.0353
6.15401
7.68772
9.75946
12.4678
15.8209
19.6053
22.9097
25.0552
21.9259
11.655
2.02398
0.0527169
0.00186862
0.00105262
0.00106627
0.0010679
0.0010609
0.00105
0.00104126
0.00103115
0.00102747
0.00102115
0.00105767
0.00188776
0.00177602
0.388227
0.616878
0.506649
0.311344
0.231878
0.184464
0.178761
0.188221
0.211104
0.245318
0.292254
0.350954
0.424706
0.513192
0.619118
0.746611
0.900272
1.09218
1.33178
1.63737
2.02057
2.48769
3.04027
3.67314
4.36553
5.11055
5.92238
6.81471
7.74004
8.6281
9.55608
10.6238
11.9244
13.5651
15.744
18.7411
22.978
28.9496
37.1301
47.7879
60.0517
69.6511
70.3435
55.8515
31.4888
7.63414
0.312131
0.00762261
0.000260457
0.000124944
0.000113585
0.000107222
0.000101901
9.87616e-05
9.595e-05
9.45651e-05
9.39887e-05
0.000131915
0.000973019
0.00170211
0.114413
0.202477
0.167425
0.14394
0.163783
0.200757
0.258917
0.335753
0.436866
0.565592
0.730136
0.937299
1.19728
1.53362
1.96409
2.53761
3.31194
4.37975
5.83916
7.84835
10.5788
14.1595
18.7419
24.3364
30.6796
37.6245
45.7083
56.0019
69.5547
73.7563
68.8014
61.164
57.5356
60.2683
64.912
72.0857
83.484
100.69
125.776
162.241
204.364
221.335
191.689
134.6
69.9436
20.4745
1.36324
0.0471003
0.00120068
3.79138e-05
1.26498e-05
1.08094e-05
9.7282e-06
9.19788e-06
8.78985e-06
8.61337e-06
9.40005e-06
4.85431e-05
0.000876209
0.00169502
0.0571788
0.415269
0.663365
1.01369
1.43236
1.83207
2.25905
2.75297
3.32795
4.0543
4.99086
6.17859
7.67371
9.80083
12.7224
16.9336
23.1
32.261
45.8643
66.2088
96.0254
137.449
196.64
280.576
388.177
518.638
678.789
860.271
972.921
968.79
855.887
682.403
514.106
408.022
378.823
374.578
388.806
428.963
491.363
581.925
656.955
608.036
449.517
288.174
147.127
44.6392
4.50121
0.232031
0.00885416
0.000215144
6.91969e-06
3.53537e-06
3.42366e-06
3.37249e-06
3.36147e-06
3.35565e-06
4.3928e-06
4.36307e-05
0.00086977
0.00169591
0.102441
4.47649
10.0468
17.3416
25.3017
31.3364
36.7295
42.7053
48.5812
55.4484
63.9892
73.9026
86.295
104.337
127.371
164.466
224.742
313.583
443.201
642.468
947.636
1335.45
1844.47
2604.36
3317.3
3733.16
4042.09
4347.22
4566.29
4576.63
4303.84
3735.45
2954.32
2149.69
1508.19
1160.86
1024.18
1006.15
1074.69
1187.96
1205.9
1023.09
720.346
455.361
263.1
89.763
11.7948
0.911388
0.0439268
0.00128327
2.67106e-05
3.41179e-06
3.1372e-06
3.11923e-06
3.13351e-06
3.13805e-06
4.18939e-06
4.34e-05
0.000869571
0.00169651
3.23996
44.449
102.917
204.225
342.422
463.404
575.075
701.661
803.894
919.037
1047.86
1174.09
1425.61
1684.9
1796.97
2089.41
2934.02
4099.12
5487.71
7206.96
9314.99
11252.8
12469.1
13039.9
13175.6
13029.9
12641
12058
11339.2
10533.3
9679.78
8753.41
7682.5
6430.94
5066.64
3755.03
2773.34
2183.76
1821.84
1570.37
1324.77
1031.06
726.194
475.586
299.856
128.942
25.2987
2.41115
0.14187
0.00505698
0.000115479
4.72169e-06
3.14169e-06
3.11567e-06
3.12841e-06
3.13419e-06
4.18346e-06
4.33522e-05
0.000869522
0.00169698
18.3786
216.626
680.178
1579.56
2597.28
3882.22
5040.67
7092.29
8716.29
10079.4
11622.2
12833.8
13353.2
13756.2
13908.8
13411.2
13112.4
13483.1
14064
14549.1
14979.6
15295.7
15302.1
15031.6
14523.3
13814.5
12966.3
12017.7
10970.1
9863.32
8711.53
7607.99
6702.59
6028.08
5496.76
4897.89
4055.14
3101.97
2287.78
1653.56
1160.25
775.564
505.549
330.79
224.205
115.608
32.4177
4.53526
0.353236
0.0157434
0.000424435
1.01569e-05
3.20375e-06
3.11801e-06
3.12765e-06
3.13631e-06
4.18045e-06
4.33649e-05
0.00086879
0.00169593
18.8266
223.408
765.511
1623.84
2671.42
3555.25
4276.79
5070
5946.95
6888.37
7898.92
8955.12
10004.3
10765.1
10784.9
10399.1
10173.3
10114.8
9997.66
9891.53
9973.67
10238.8
10665.3
11017.8
10975.6
10447.6
9640.89
8749.01
7807.15
6904.66
6105.04
5370.02
4550.32
3579.86
2628.54
1877.22
1413.56
1087.14
805.545
593.999
443.266
330.149
248.085
196.202
163.115
99.9908
31.9848
4.90779
0.410566
0.0192621
0.000535057
1.21108e-05
3.2192e-06
3.11687e-06
3.12375e-06
3.13494e-06
4.17761e-06
4.33899e-05
0.000868619
0.00169541
12.364
172.94
1320.82
4358.27
6896.46
9309.8
11747.6
14783.1
17803.2
20689
24121
28115
32326.4
35767.5
37364.2
37158.3
36639.6
36369.9
36726.7
37914.6
39894.4
42221.8
44289.5
45176.6
44252.2
41803.8
38488.3
34646.3
30376.3
25994.5
21778.7
17965.3
14107.5
9723.33
6021.96
3633.52
2217.02
1456.48
1059.06
803.75
612.014
468.645
356.241
273.242
215.282
138.399
49.4972
7.98962
0.664792
0.0305089
0.00082264
1.65394e-05
3.25457e-06
3.10993e-06
3.11677e-06
3.12771e-06
4.16976e-06
4.32997e-05
0.000866631
0.00169217
14.4588
223.256
1356.15
2950.59
4595.13
9725.33
17333.2
27786.7
40120
54343
68629.1
79300.5
85410.9
86723
81150.6
68167.3
54049.1
48837.6
51046.9
58717
69760.7
81621.2
91232.5
95618.8
94616.2
90087
83586.5
75525.4
66470.7
57053.4
46761.5
36105.4
26267.2
18056.8
11246.7
6463.82
3651.44
2336.11
1835.71
1683.83
1605.3
1364.06
1051.02
745.718
492.768
283.517
98.7624
14.7992
1.03603
0.0401189
0.000929693
1.63433e-05
3.23149e-06
3.0958e-06
3.10959e-06
3.11432e-06
4.15923e-06
4.31234e-05
0.000863352
0.00168689
25.2952
495.046
1713.08
2805.56
5175.3
12200.1
21800
33902.9
47883.6
63690.1
78581.2
88388.1
94013.9
94866
87765.3
72097.8
56616.4
51450.8
53253.6
59636
68929.6
78884.3
85787.5
86685
82577.3
76003.3
69596.3
63744.4
57408.9
49663.2
40293.1
30733.6
22430.6
15574.3
9951.68
5857.72
3394.87
2342.8
2159.46
2399.99
2328.31
1882.75
1359.79
892.533
545.998
296.624
101.834
15.0888
1.05226
0.0406385
0.000939873
1.64686e-05
3.23063e-06
3.09381e-06
3.10754e-06
3.11309e-06
4.15703e-06
4.31248e-05
0.000863347
0.00168552
17.5076
404.144
2379.29
5535.88
8676.61
13214.3
18240.8
22823.9
26244.6
28831.2
31300.1
33907.8
36133.1
37138.6
36132.2
32872.2
29027.2
25796.2
23489.8
22720.2
23475
25222
27328.3
28769.7
28926.6
27769.6
26018
24045.8
21825.4
19460.5
16766.4
13466
9869.09
6650.74
4252.67
2671.28
1703.88
1192.02
972.53
860.713
706.131
539.892
406.167
311.157
243.595
147.594
48.346
7.40741
0.597008
0.0268689
0.000714568
1.46198e-05
3.23272e-06
3.10143e-06
3.11446e-06
3.11964e-06
4.16587e-06
4.32063e-05
0.000865988
0.00168929
23.8807
493.392
1740.89
4120.12
7991.94
13224.8
15423.4
17052.6
18327.2
19192.6
19940.1
20192.1
20181.1
19842.2
19267.9
18454.8
17469.4
16503.8
15820.5
15366.6
15121.1
14729.9
14202.1
13747.4
13144.4
12289
11331.2
10368.5
9313.46
8116.81
6784.83
5357.97
4013.15
2872.68
1973.91
1315.47
883.923
633.68
498.016
419.996
351.922
288.515
235.977
197.764
168.633
98.3365
28.6079
4.07661
0.317057
0.0140391
0.000372089
9.08041e-06
3.18556e-06
3.10638e-06
3.12319e-06
3.12436e-06
4.1755e-06
4.32454e-05
0.000867933
0.00169294
19.5357
330.881
904.694
1760.75
3001.64
5579.94
8126.45
11227.4
13614.4
15636.2
17179.5
17952.1
18346.1
18531.3
18404.9
18017.4
17543.1
17047.4
16436.1
15468.5
14500.6
13571.6
12477.9
11366.6
10324.9
9278.88
8181.05
7101.67
6180.23
5435.47
4778.78
4141.79
3526.57
2961.42
2472.43
2070.3
1739.91
1474.74
1238.69
952.564
686.003
479.653
334.631
244.918
191.588
107.463
29.6904
3.87499
0.275221
0.0113726
0.000288369
7.61007e-06
3.17229e-06
3.11155e-06
3.12636e-06
3.13075e-06
4.17917e-06
4.32912e-05
0.000868808
0.00169459
3.19082
28.8069
62.0928
114.309
189.17
281.271
384.275
513.517
641.673
805.466
1070.42
1448.59
1866.11
2241.99
2631.87
3025.71
3246.4
3538.89
3917.71
4542.56
5399.69
5991.69
6251.5
6487.55
6751.67
6870.34
6766.09
6563.5
6365.99
6060.68
5566.08
4824.09
3921.59
3146.25
2568.78
2143.9
1855.78
1679.56
1547.39
1368.79
1110.36
845.697
600.517
403.631
268.156
120.49
24.1011
2.24048
0.123329
0.00412677
8.99232e-05
4.28899e-06
3.12168e-06
3.10896e-06
3.11667e-06
3.12954e-06
4.17395e-06
4.33759e-05
0.000868571
0.00169471
0.104992
3.13431
6.66673
10.9259
15.8628
20.5644
25.6147
31.5384
37.7559
45.1781
54.8465
67.1869
82.2344
102.686
123.627
148.035
176.934
214.798
263.594
330.215
412.522
493.071
571.158
660.643
766.374
897.443
1010.75
1073.82
1057.25
939.162
764.376
629.582
586.461
586.463
626.373
707.624
851.086
1060.55
1380.83
1645.72
1659.05
1391.53
949.729
558.164
288.91
87.2139
9.82704
0.715613
0.0320509
0.000881132
1.89176e-05
3.64308e-06
3.3281e-06
3.24353e-06
3.19437e-06
3.17949e-06
4.20498e-06
4.34308e-05
0.000868982
0.00169622
0.0754723
0.295216
0.449573
0.662113
0.940303
1.23773
1.59661
2.01134
2.49456
3.07123
3.78172
4.68067
5.77689
7.14949
8.80138
10.8275
13.2861
16.362
20.1589
24.9128
30.5184
36.6668
43.3297
50.7721
58.9553
67.4856
74.9628
80.6228
84.3746
87.2878
91.4567
98.7356
111.013
131.003
162.305
209.872
282.791
385.264
528.202
678.1
749.269
683.606
517.315
326.627
154.579
41.5205
3.47685
0.167933
0.0059665
0.000140912
7.80831e-06
5.08775e-06
4.40111e-06
4.03927e-06
3.74759e-06
3.62636e-06
4.5406e-06
4.3728e-05
0.000868163
0.00169404
0.187196
0.19309
0.125856
0.111517
0.143046
0.190803
0.259514
0.346444
0.458042
0.595308
0.765805
0.97529
1.2287
1.53696
1.90766
2.36254
2.91593
3.61061
4.47249
5.56614
6.92149
8.56013
10.4944
12.7701
15.3907
18.3386
21.5127
24.8774
28.5148
32.5919
37.3934
43.4893
51.7823
63.5016
80.3829
104.523
139.504
182.152
223.171
255.486
267.822
255.964
218.172
152.356
75.1345
19.602
1.12239
0.0379186
0.000904151
3.42893e-05
1.68747e-05
1.49293e-05
1.32026e-05
1.21277e-05
1.11545e-05
1.06658e-05
1.11323e-05
5.00441e-05
0.000874647
0.00169008
0.682895
0.692675
0.39347
0.170074
0.133435
0.119892
0.138691
0.170011
0.215539
0.273683
0.346666
0.434873
0.540957
0.668001
0.818494
1.0022
1.2233
1.49894
1.83821
2.26518
2.78996
3.42659
4.1794
5.05859
6.06442
7.19734
8.43327
9.78
11.2643
12.9421
14.9149
17.3799
20.6518
25.1721
31.5275
40.3765
52.5935
68.7804
88.6379
107.636
120.911
120.92
104.372
75.3634
37.6923
7.62479
0.296354
0.00748518
0.000209042
9.40901e-05
9.80754e-05
0.000100447
0.000102046
0.000102225
0.000102424
0.000102222
0.000102901
0.000140858
0.000976706
0.00169382
1.88686
3.01382
2.34939
1.16452
0.851566
0.55693
0.454223
0.391061
0.365305
0.364241
0.387615
0.419171
0.469078
0.524999
0.591829
0.662334
0.734718
0.811285
0.895016
0.994619
1.11891
1.27768
1.47146
1.70323
1.97423
2.29037
2.65387
3.07498
3.56559
4.14857
4.85797
5.75139
6.91082
8.45516
10.5469
13.3817
17.26
21.811
26.3934
29.9659
31.3647
30.4655
28.8344
22.6472
10.5496
1.49824
0.0387763
0.00124838
0.000709155
0.000782588
0.000843467
0.000876066
0.000903547
0.000915154
0.000927845
0.000932577
0.000939044
0.000977856
0.00180267
0.00175853
5.91465
14.7384
16.6343
12.1832
10.9516
8.77693
7.82693
6.90393
6.28208
5.73844
5.45754
5.18982
5.06349
4.91862
4.82764
4.65732
4.40751
4.06631
3.65497
3.20615
2.77819
2.41806
2.12249
1.8891
1.70721
1.57758
1.50214
1.47952
1.50622
1.57912
1.69566
1.85928
2.07715
2.36497
2.74792
3.24386
3.79404
4.34905
4.84178
5.19473
5.36189
5.37536
5.16849
3.94648
1.56612
0.149079
0.00605967
0.00403123
0.00443005
0.00471516
0.00494349
0.00506151
0.00517574
0.00522175
0.00528256
0.00530551
0.005338
0.00537944
0.00590012
0.00218303
47.7149
73.4183
129.266
140.712
154.993
157.98
158.856
156.207
150.499
143.972
135.192
126.862
117.172
108.39
98.8913
89.9504
80.6075
71.5657
62.4595
53.775
45.5024
38.008
31.2757
25.4342
20.4151
16.2225
12.7856
10.0469
7.89424
6.2198
4.9172
3.90574
3.10843
2.46527
1.93168
1.48175
1.10415
0.784584
0.527485
0.333979
0.198989
0.112677
0.0625194
0.034169
0.0176049
0.0110274
0.00918274
0.00830478
0.00780961
0.00742154
0.00730716
0.00710184
0.00714693
0.00700131
0.00711841
0.00697741
0.00714113
0.00697978
0.007232
0.00786419
35.2034
60.0609
110.278
125.604
143.637
149.504
153.074
152.441
147.82
142.02
133.393
124.94
114.91
105.629
95.7701
86.6263
77.1819
68.0194
58.8659
50.1871
42.0338
34.7283
28.264
22.7398
18.0933
14.3091
11.2617
8.84856
6.95349
5.48016
4.33595
3.44954
2.75433
2.19825
1.74053
1.35424
1.02699
0.750423
0.519267
0.339733
0.209808
0.122843
0.0692921
0.0374969
0.0186955
0.0110456
0.00900441
0.00812922
0.00766026
0.00730785
0.00721319
0.00702813
0.0070782
0.00694412
0.00705981
0.00692676
0.00708495
0.00693356
0.00723137
0.00859539
4.70708
11.7382
14.7282
12.0591
11.39
9.66706
8.74898
7.80181
7.06703
6.30037
5.85552
5.34192
4.99733
4.71738
4.56243
4.4022
4.15387
3.79052
3.33957
2.85849
2.40914
2.04429
1.76449
1.56156
1.42269
1.34772
1.32515
1.34774
1.41313
1.5224
1.67847
1.88884
2.16439
2.52369
2.9996
3.60714
4.33593
5.13479
5.94889
6.62985
6.97983
6.87518
6.14532
4.48083
1.77159
0.183374
0.00695388
0.00423031
0.00457254
0.00481412
0.00499696
0.00508616
0.00516909
0.00520167
0.00524296
0.00525946
0.00528161
0.00532018
0.00586674
0.00226594
1.18355
2.35829
2.144
1.25008
0.985297
0.688965
0.5673
0.474785
0.426575
0.395121
0.398404
0.402816
0.431584
0.469074
0.524824
0.587809
0.650858
0.713956
0.781976
0.865777
0.975232
1.11943
1.29967
1.51944
1.78103
2.09175
2.46035
2.90339
3.43925
4.09409
4.90834
5.95208
7.32067
9.15964
11.6771
15.1442
19.9649
25.8942
31.6958
35.9505
36.6011
33.423
28.743
21.9907
10.2218
1.54622
0.0399994
0.00121819
0.000691155
0.000746373
0.000792982
0.000817808
0.000839571
0.000848776
0.000859175
0.000863534
0.000869125
0.000908638
0.00174135
0.00177218
0.450427
0.551507
0.375688
0.182306
0.151842
0.136754
0.156994
0.191278
0.243833
0.31244
0.4002
0.508218
0.639075
0.797241
0.98433
1.21041
1.48466
1.82608
2.24465
2.76817
3.40604
4.17046
5.06201
6.08981
7.24914
8.54318
9.99267
11.6561
13.5827
15.8513
18.6192
22.2061
27.1127
34.1288
44.4463
59.8153
82.8617
117.122
167.362
209.516
207.269
164.694
114.414
78.1825
39.5493
8.27142
0.331709
0.00714892
0.000179325
7.03349e-05
7.46281e-05
7.79099e-05
8.068e-05
8.19194e-05
8.32077e-05
8.37699e-05
8.52136e-05
0.00012362
0.00096099
0.00169999
0.193232
0.183569
0.13902
0.130877
0.181722
0.262777
0.384523
0.54945
0.77186
1.05527
1.41452
1.85947
2.3979
3.04749
3.81803
4.75874
5.95015
7.49888
9.47804
12.0651
15.336
19.3273
23.9915
29.2492
34.9484
41.0654
47.711
55.0283
63.1851
72.1727
82.2459
94.7847
112.289
139.515
183.536
255.238
370.846
545.208
771.222
956.432
845.355
589.502
376.567
236.992
114.641
29.4791
1.95796
0.0577962
0.00138562
3.25524e-05
8.47296e-06
8.40965e-06
8.64065e-06
8.71228e-06
8.8275e-06
8.85579e-06
9.85816e-06
4.87989e-05
0.000874043
0.00169033
0.100696
0.208415
0.291263
0.432922
0.652764
0.972576
1.42956
2.04767
2.88068
3.93526
5.28021
6.94507
8.89091
11.1708
13.4848
16.0691
19.7295
24.6678
30.921
38.8796
48.5271
59.5409
71.4041
83.282
94.23
104.199
114.441
126.276
140.18
155.663
173.217
195.832
230.009
286.727
382.794
547.765
833.112
1287.36
1882.86
2440.26
2036.04
1318.1
823.237
517.628
263.251
75.0902
7.62208
0.311789
0.0105293
0.00022317
6.41755e-06
3.45345e-06
3.43954e-06
3.4157e-06
3.43464e-06
3.42916e-06
4.47287e-06
4.34412e-05
0.000864832
0.00168631
0.0753131
1.24597
2.45733
4.11896
5.96688
8.54721
12.22
17.3345
24.3357
33.1892
44.3735
57.8497
72.1545
87.6013
101.675
117.839
146.729
191.073
250.919
332.953
440.681
568.297
706.439
831.103
915.104
944.867
940.038
920.766
895.968
852.987
788.588
737.945
736.281
804.734
970.691
1299.61
1930.22
2890.66
3993.01
4649.38
3923.99
2741.39
1756.66
998.812
495.436
158.911
21.0178
1.20929
0.0488155
0.00117391
2.09329e-05
3.30747e-06
3.13391e-06
3.10905e-06
3.12403e-06
3.12312e-06
4.17366e-06
4.31694e-05
0.000865056
0.00168749
0.220142
12.4384
29.8914
54.6844
72.677
96.6226
130.267
178.648
247.373
337.414
457.903
614.864
783.877
979.074
1123.26
1318.05
1711.33
2402.19
3357.31
4724.72
6661.53
9082
11811.4
14410.1
16503.3
17731.2
18319.9
18376.4
17801.7
16215.6
13370.5
10040.7
7076.25
4998.03
3932.64
3828.27
4295.44
5022.87
5532.53
5254.1
4244.27
3052.68
1939.75
1076.04
534.673
203.164
40.2253
3.3235
0.160682
0.00464475
8.73663e-05
4.10576e-06
3.12696e-06
3.10425e-06
3.11669e-06
3.12238e-06
4.16891e-06
4.32547e-05
0.000866555
0.00169085
5.34942
91.3263
234.018
523.717
776.039
1122.31
1563.35
2209.62
3025.93
3985.05
5322.62
7314.62
9348.48
11701.7
13165
13374.9
14940
20066.1
26524.4
33425.5
41122.8
48391.7
53868.1
57067.2
57776.2
56680
54482.4
51512.5
47676.9
42835.6
37386
31624.6
25793.7
20116.6
15016.3
11021.9
8362.54
6691.74
5521.72
4267.4
2937.24
1847.72
1100.71
627.851
353.814
165.295
43.7339
5.11691
0.321684
0.0117804
0.000268751
6.93143e-06
3.15505e-06
3.11383e-06
3.12121e-06
3.13164e-06
4.17398e-06
4.32962e-05
0.000867415
0.00169321
21.5109
700.576
2020.28
5070.08
8105.42
10848.4
13054.2
15469.7
18230.3
20442.8
21933.9
23462.4
24785.1
25526.7
26221.8
26136.4
25524.1
25502.5
26378.1
27113.3
27099
26190.7
24724.3
22985.6
21005.7
18865.8
16665.6
14553.9
12589.1
10797.3
9210.15
7787.26
6480.7
5325.9
4335.71
3480.59
2819.7
2392.66
2117.11
1769.05
1305.99
875.051
545.936
335.42
217.495
119.39
38.476
5.86236
0.472502
0.0215677
0.000590261
1.30286e-05
3.22995e-06
3.1149e-06
3.12343e-06
3.13302e-06
4.17445e-06
4.32621e-05
0.000867089
0.00169334
18.4333
284.683
2147.41
6563.3
7904.32
9054.4
9882.66
10491.1
10886.2
11092.5
11194.2
11180.7
10998.8
10650.1
10322.3
10126.2
9328.02
8276.31
7551.42
7086.39
6857.46
6884.97
7002.52
7065.25
6987.86
6798.8
6542.21
6223.27
5792.82
5240.4
4583.53
3818.78
3022.57
2298.11
1687.95
1200.15
851.67
632.126
503.307
419.539
334.286
253.662
197.197
164.563
145.46
91.3466
29.6913
4.65908
0.393386
0.018748
0.000529665
1.21494e-05
3.21803e-06
3.10811e-06
3.12102e-06
3.12711e-06
4.1732e-06
4.32374e-05
0.000867007
0.00169244
18.0157
98.632
2293.67
11724.5
15760.8
19029.6
20931
22031.2
22619.2
22584.9
22104
21385.9
20430.6
19291.2
17910.2
16385.1
15045.2
13898.5
13114.2
12713.1
12642.1
12782.3
12885
12718.6
12274.7
11742.4
11155.1
10424.3
9487.68
8316.68
6950.14
5528.2
4169.49
2983.13
2026.11
1314.98
844.259
571.442
428.066
341.852
275.332
224.444
187.89
169.471
153.96
88.4761
25.6402
3.9907
0.343108
0.0166707
0.000477506
1.12963e-05
3.20403e-06
3.10413e-06
3.11687e-06
3.12336e-06
4.16868e-06
4.32018e-05
0.00086624
0.00169054
17.5183
74.7298
3463.32
13969.4
17757
20419.8
21146
21219.3
21310.2
21086.4
20697.9
20647.6
20746.1
20690.2
20354.8
19527.7
18303.4
17058
16178.8
15755.7
15705.9
15753.9
15912.9
16095.6
15925.3
15412.5
14788.8
14186.4
13399.4
12227.2
10662.7
8679.12
6441.64
4415.41
2866.01
1795.72
1127.88
745.797
541.913
419.754
329.836
260.046
207.945
177.828
158.223
94.8875
28.7033
4.47517
0.383667
0.0185619
0.000528883
1.21403e-05
3.2108e-06
3.10192e-06
3.11427e-06
3.12132e-06
4.16513e-06
4.31805e-05
0.000865392
0.0016887
16.5369
378.328
1602.86
4892.7
5712.26
6316.32
6643.41
7079.41
7506.14
7926.68
8450.13
9219.68
10003.4
10571.3
10723.2
10478.9
10008.1
9562.72
9295.94
9286.31
9628.03
10201.4
10870.6
11511.4
12038.4
12612.9
13467.4
14214.4
14228.9
13922
13720.5
13174.6
11567.6
8863.12
6023.22
3800.24
2329.22
1444.65
975.582
712.585
525.598
386.475
290.526
227.038
185.579
116.833
39.6155
6.21297
0.521365
0.024505
0.000680204
1.45297e-05
3.23638e-06
3.10445e-06
3.11583e-06
3.12272e-06
4.16647e-06
4.31994e-05
0.000865564
0.0016893
25.7066
498.233
1668.18
3021.4
3185.52
4182.29
5026.48
5984.65
7234.03
8814.15
10635.8
12649
14985.6
16926.3
17601.3
17421.2
17466.2
18055.2
19169.1
20740
23172.7
26959
31879.9
37030.8
41793.5
46338.7
49368.3
47623.2
39378.9
27752.3
17906.8
11509.4
7430.31
4671.38
2840.9
1702.63
1064.8
781.931
708.121
681.402
615.754
521.684
424.819
333.402
257.431
165.595
60.6004
9.33266
0.721461
0.0310425
0.000798023
1.57425e-05
3.2506e-06
3.10854e-06
3.12197e-06
3.12616e-06
4.17534e-06
4.32792e-05
0.000868008
0.00169317
45.0994
379.051
505.397
741.848
1419.56
2512.54
4598.49
7245.75
11305
15980.2
19822.4
22360.2
23418.2
21724.2
17234.3
14176.3
14772.4
16910
20310.6
24465.7
28894.7
33274.6
36288.9
36850.8
35547
32276.5
26653
19585.8
12868.6
7880.94
4897.41
3214.21
2178.62
1508.46
1094.2
869.696
818.729
957.641
1282.57
1583.88
1438.05
1101.39
811.352
577.444
400.477
230.303
69.9474
8.03472
0.476019
0.0162671
0.00034528
7.68909e-06
3.16006e-06
3.1053e-06
3.12166e-06
3.12341e-06
4.17636e-06
4.32433e-05
0.000868097
0.00169364
5.25929
169.542
404.635
955.971
2079.41
4410.63
7968.38
13090.4
19664.1
26232.1
31469.4
34739.7
35374.9
32970.2
27988.2
24340
25417.2
29041.8
34381.9
40970.7
48052.4
54199.3
57562.7
57676.9
54697.4
49224.8
42071.5
34096.2
23995.6
13883.1
6570.47
2946.82
2079
1844.92
1850.75
2025.48
2297.44
2502.73
2410.03
2098.25
1716.43
1373.31
1061.35
769.776
523.544
275.43
72.125
7.30492
0.40265
0.0130067
0.000265327
6.53612e-06
3.15645e-06
3.10747e-06
3.12454e-06
3.12606e-06
4.17642e-06
4.32657e-05
0.000868117
0.00169301
0.714254
23.2914
58.0989
123.865
228.786
408.267
678.869
1021.39
1358.55
1617.02
1775.74
2055.3
2431.82
2423.61
2139.22
2069.88
2365.86
3056.44
4077.97
5566.73
7799.87
10376.5
11643.4
11440.5
10614.1
9528.02
8060.62
6242.92
4070.7
2442.98
1599.41
1264.17
1144.21
1109.59
1125.24
1168.93
1224.99
1280.22
1340.44
1352.64
1264.32
1106.88
908.101
655.596
366.925
117.605
17.4399
1.36605
0.0675759
0.00205509
4.31356e-05
3.64502e-06
3.13729e-06
3.12414e-06
3.13252e-06
3.13968e-06
4.18638e-06
4.33544e-05
0.000868707
0.00169439
0.27363
1.27439
2.68262
5.13147
8.76118
14.1125
21.3804
29.2746
35.9374
39.2605
38.9105
42.6022
52.535
57.3418
54.6251
64.4755
82.8185
110.117
150.282
212.941
308.287
430.663
558.952
685.469
774.412
815.914
777.562
676.946
542.901
466.74
451.825
464.745
496.929
548.996
631.949
786.444
1058.33
1447.66
1891.89
2069.42
1892.71
1435.37
879.188
437.597
173.984
48.5495
4.97824
0.263729
0.0104718
0.000271691
8.08685e-06
3.59369e-06
3.48052e-06
3.4248e-06
3.41009e-06
3.39738e-06
4.43159e-06
4.36121e-05
0.000870061
0.00169699
0.570986
0.41613
0.36624
0.450825
0.674384
0.99234
1.41809
1.85648
2.21085
2.32828
2.18935
2.24357
2.58333
3.04778
3.63599
4.43817
5.4879
6.90478
8.80109
11.3837
14.7268
18.5876
22.4505
26.1031
29.9517
33.9867
38.0053
42.6759
46.4705
51.6368
58.2074
66.777
78.4009
95.0289
119.297
155.02
205.727
272.922
358.329
453.938
489.724
439.862
317.813
178.993
78.6847
20.5324
1.35804
0.0503889
0.00136276
3.76796e-05
1.03285e-05
9.56783e-06
9.22144e-06
8.9954e-06
8.81553e-06
8.72565e-06
9.58928e-06
4.86731e-05
0.000875891
0.00169542
1.09696
1.03271
0.611313
0.282777
0.225732
0.201546
0.221647
0.256256
0.304084
0.35673
0.4184
0.503261
0.611354
0.741002
0.894612
1.08234
1.30803
1.58841
1.93106
2.35834
2.88089
3.50347
4.21822
5.03468
5.96962
7.04032
8.244
9.59624
11.1109
12.8437
14.8999
17.4414
20.7121
25.0711
30.9794
39.0373
49.9842
64.4333
82.8571
104.121
118.364
123.938
108.262
72.2916
34.6265
7.12638
0.30504
0.00800786
0.000223594
8.84987e-05
9.04843e-05
9.16987e-05
9.20518e-05
9.16774e-05
9.12738e-05
9.0912e-05
9.14357e-05
0.000129478
0.000968767
0.0017016
2.58906
4.03812
3.19286
1.72781
1.28674
0.887862
0.686917
0.549918
0.475727
0.451896
0.467407
0.501597
0.556271
0.614612
0.680351
0.747759
0.805449
0.859118
0.915403
0.986236
1.08208
1.21665
1.39163
1.60671
1.8616
2.16069
2.50647
2.9064
3.3715
3.91139
4.54897
5.3464
6.35422
7.6567
9.366
11.611
14.5342
18.2516
22.5672
26.9256
30.7513
33.4674
32.736
24.4718
11.0248
1.62185
0.0458298
0.00148397
0.000782105
0.000842319
0.000888552
0.000911392
0.000927248
0.000933784
0.000938559
0.000941556
0.000943285
0.000981969
0.0018139
0.00177707
7.07648
17.1478
19.6115
15.0714
13.6588
11.4084
9.90439
8.51311
7.43645
6.67058
6.27755
6.03957
5.90538
5.78019
5.65279
5.47868
5.1434
4.67284
4.1005
3.48318
2.87819
2.37693
2.0005
1.73273
1.54144
1.41572
1.35185
1.34133
1.37361
1.44208
1.54416
1.68294
1.86458
2.09937
2.40511
2.80525
3.32625
3.9844
4.72474
5.53723
6.3559
7.09074
7.2117
5.28662
2.05368
0.208915
0.00772448
0.00439368
0.00477296
0.00504294
0.00524729
0.00534392
0.00543605
0.00546735
0.00551468
0.00552815
0.00555488
0.00559009
0.00613105
0.00230357
44.2218
75.3944
130.682
144.601
162.206
167.037
169.095
165.717
159.038
151.166
141.481
132.377
122.063
112.748
102.801
93.5816
84.0223
74.6469
65.1563
56.011
47.1873
39.1506
31.9767
25.8174
20.5785
16.2384
12.7127
9.93275
7.77052
6.10574
4.82041
3.82323
3.03634
2.40166
1.8776
1.43918
1.07398
0.773599
0.53329
0.346978
0.214557
0.127661
0.0753965
0.0411732
0.0198328
0.0113396
0.00920146
0.00829743
0.00781328
0.00745426
0.00737553
0.0071979
0.00727095
0.00714487
0.00727957
0.00715238
0.0073226
0.00717592
0.00748467
0.00895509
38.4358
54.357
104.705
118.795
132.645
135.447
135.923
133.134
127.872
121.914
114.281
107.152
99.0524
91.8651
84.0871
76.7782
69.0395
61.4794
53.8044
46.4434
39.4294
33.0916
27.4219
22.5377
18.3669
14.8994
12.0703
9.81864
8.04276
6.64729
5.53979
4.65602
3.92683
3.29196
2.71112
2.16218
1.64804
1.19339
0.814267
0.519769
0.309519
0.173022
0.0927181
0.0473873
0.0197483
0.00938995
0.00787265
0.0074027
0.00719123
0.00690554
0.00688122
0.00668203
0.00676432
0.0066046
0.00674118
0.00658741
0.00676201
0.00659963
0.00688543
0.00799948
21.7106
40.1503
75.0542
83.4868
91.8735
93.5663
93.1747
90.6965
86.6368
82.2087
76.9296
72.1237
66.9647
62.5143
57.8036
53.3663
48.6175
43.9378
39.1463
34.5367
30.1438
26.1726
22.5929
19.488
16.7966
14.5034
12.5636
10.9457
9.59464
8.46468
7.49446
6.64338
5.86109
5.09995
4.32972
3.54965
2.79125
2.09353
1.4876
0.996722
0.626473
0.370555
0.207663
0.103113
0.0335579
0.00860248
0.00641246
0.00628538
0.00632295
0.00614467
0.00619351
0.00601749
0.00611737
0.00595724
0.00610129
0.00594983
0.00612311
0.00596434
0.00623151
0.00723571
17.395
24.8395
43.2976
47.4894
51.1946
51.5995
50.9681
49.2973
46.9861
44.6391
42.0419
39.8655
37.7081
36.08
34.4101
32.931
31.2597
29.5603
27.6873
25.7606
23.762
21.7952
19.8557
18.0511
16.362
14.806
13.3722
12.1254
11.0666
10.1539
9.34686
8.60948
7.89086
7.13307
6.30423
5.40788
4.48878
3.5987
2.78022
2.07303
1.47078
0.985556
0.635588
0.331842
0.100521
0.0121162
0.00509817
0.00511015
0.00532601
0.00526873
0.00538319
0.00526126
0.00537736
0.00523969
0.00537398
0.00523404
0.00539036
0.0052436
0.0054765
0.00629087
14.3614
16.0928
23.6279
23.9496
24.9888
24.8395
24.4762
23.7768
22.9706
22.2968
21.7038
21.3686
21.1501
21.2053
21.3085
21.4258
21.3602
21.0953
20.5291
19.6898
18.6075
17.3856
16.115
14.9608
13.971
13.1268
12.4018
11.8643
11.3483
10.8062
10.1998
9.66822
9.1704
8.58729
7.94739
7.25649
6.5193
5.78091
5.10277
4.57814
4.04401
3.06342
2.11121
1.18033
0.375494
0.0345751
0.00467476
0.00424293
0.00454628
0.00458611
0.00475263
0.00467941
0.00481219
0.00470389
0.00483612
0.00471371
0.00485558
0.00472177
0.00492836
0.00561958
12.3122
8.8914
11.1437
11.4842
11.9897
11.9998
12.0019
11.938
11.9
11.9515
12.0496
12.1849
12.4257
12.8043
13.1863
13.4991
13.6451
13.593
13.3638
13.0327
12.7183
12.5685
12.7485
13.4369
14.9209
17.0766
19.0124
20.134
20.2738
20.3671
19.6646
17.7778
15.5188
12.6733
10.4326
9.29232
8.71113
8.2071
7.70887
7.3268
7.0393
6.0274
5.01566
3.26449
1.1974
0.125663
0.00654609
0.0039161
0.00420637
0.00430648
0.00451369
0.00446773
0.00462019
0.00452461
0.00466589
0.00454949
0.00469393
0.00456638
0.00476786
0.00544308
10.4151
5.48579
7.45685
8.06585
9.06092
9.40931
9.92217
10.3657
10.8562
11.3612
11.891
12.3951
12.976
13.6368
14.3477
15.0002
15.5239
15.793
15.859
15.7272
15.5155
15.3264
15.2997
15.5555
16.0085
16.1518
16.372
16.4702
16.2669
15.7818
15.2965
14.6084
13.3222
12.1431
11.4289
11.7534
13.0403
14.1322
13.8346
12.8653
10.9196
8.51006
6.20703
3.78284
1.37056
0.151738
0.00708314
0.0039992
0.00434003
0.00447171
0.00471398
0.00466758
0.00483957
0.00473534
0.00489186
0.00476579
0.00492402
0.00478708
0.00500459
0.00574171
15.6169
10.9299
14.0466
13.5543
14.8319
15.2982
16.2597
17.0222
17.8732
18.7342
19.7174
20.6909
21.7704
22.9368
24.1238
25.0573
25.6866
25.7992
25.4509
24.6252
23.4748
22.0582
20.5024
18.9683
17.5392
16.2414
15.1253
14.19
13.3701
12.5486
11.7729
10.9839
10.2051
9.47229
8.74332
8.02863
7.37185
6.79861
6.34622
6.12491
6.23895
6.84358
6.34811
4.98179
2.31257
0.309907
0.00992491
0.00447563
0.00482812
0.00496011
0.00523513
0.00516806
0.00536332
0.00523727
0.00541745
0.00527034
0.00545203
0.00529625
0.00554474
0.00641255
14.9307
20.0182
37.0076
39.8363
43.8414
43.7328
44.3754
44.3027
44.4352
44.2092
44.3699
44.5449
44.7748
44.9331
44.886
44.3305
43.1184
41.1643
38.995
36.9452
35.4816
35.0049
36.0306
39.3317
46.1402
52.1969
57.5246
64.2523
70.5796
72.1717
71.7117
67.1703
58.4374
50.0967
41.6994
33.5763
27.2646
22.6674
19.3155
16.0068
11.899
7.85283
5.19398
3.08748
1.08266
0.0994721
0.00618604
0.00522686
0.00578039