/*--------------------------------*- C++ -*----------------------------------*\
| =========                 |                                                 |
| \\      /  F ield         | OpenFOAM: The Open Source CFD Toolbox           |
|  \\    /   O peration     | Version:  2.1.1                                 |
|   \\  /    A nd           | Web:      www.OpenFOAM.org                      |
|    \\/     M anipulation  |                                                 |
\*---------------------------------------------------------------------------*/
FoamFile
{
    version     2.0;
    format      ascii;
    class       volVectorField;
    location    "0.001";
    object      fluctuation2;
}
// * * * * * * * * * * * * * * * * * * * * * * * * * * * * * * * * * * * * * //

dimensions      [0 1 -1 0 0 0 0];

internalField   nonuniform List<vector> 
36520
(
(0.231174 0.129295 0.144194)
(0.305813 0.177394 0.170912)
(0.37998 0.223511 0.218059)
(0.391421 0.236536 0.230447)
(0.410415 0.247923 0.243268)
(0.414126 0.251246 0.247462)
(0.418272 0.253481 0.250325)
(0.417722 0.253359 0.250392)
(0.414454 0.251362 0.248392)
(0.409639 0.248345 0.245367)
(0.402249 0.243843 0.240507)
(0.394856 0.239099 0.23545)
(0.385647 0.233345 0.229135)
(0.376909 0.227614 0.222992)
(0.366838 0.221132 0.216029)
(0.3568 0.214494 0.20916)
(0.345372 0.207088 0.201667)
(0.333171 0.199222 0.193915)
(0.319474 0.190594 0.185532)
(0.304718 0.181434 0.17675)
(0.288702 0.171666 0.16738)
(0.272062 0.16162 0.157698)
(0.254863 0.151323 0.147717)
(0.237628 0.141038 0.137694)
(0.220522 0.130858 0.127696)
(0.203873 0.120984 0.117949)
(0.187739 0.111457 0.108532)
(0.172367 0.102416 0.0995607)
(0.157947 0.0939615 0.0910952)
(0.144637 0.0861843 0.0832334)
(0.132436 0.0790812 0.0759847)
(0.121378 0.0726643 0.0693886)
(0.111402 0.0669039 0.0634359)
(0.102416 0.0617575 0.0581152)
(0.0942449 0.0571515 0.0533764)
(0.0866592 0.0529722 0.0491335)
(0.0793877 0.0490785 0.045283)
(0.0721294 0.045315 0.0416918)
(0.0645897 0.041524 0.0382148)
(0.0565927 0.0376004 0.0347434)
(0.0481263 0.033468 0.031167)
(0.0394841 0.0291554 0.0274457)
(0.031805 0.0250849 0.0239876)
(0.0247887 0.0212592 0.0204446)
(0.017172 0.0173982 0.0162481)
(0.0113448 0.0144951 0.0130417)
(0.0103092 0.013065 0.0118976)
(0.010342 0.012107 0.0113391)
(0.0104951 0.0114405 0.0110206)
(0.0104957 0.0110363 0.0108156)
(0.010647 0.010823 0.0107497)
(0.0105777 0.010706 0.0106759)
(0.0107215 0.0106763 0.0106952)
(0.0106238 0.0106461 0.0106558)
(0.0107713 0.0106721 0.010703)
(0.0106542 0.0106554 0.010666)
(0.0108164 0.0106996 0.0107248)
(0.0106813 0.010675 0.0106804)
(0.0109006 0.0107611 0.0107776)
(0.0112908 0.0112309 0.0112375)
(0.171695 0.0872407 0.0898797)
(0.153232 0.0888543 0.0850078)
(0.163906 0.0968732 0.0943466)
(0.151977 0.0920461 0.0897024)
(0.145609 0.0882722 0.0865353)
(0.136339 0.0830238 0.0816055)
(0.1318 0.0802245 0.0789391)
(0.127245 0.0776117 0.0762763)
(0.124009 0.0756615 0.0742698)
(0.121028 0.073864 0.0723575)
(0.11903 0.0726412 0.0709398)
(0.117793 0.0718096 0.0699528)
(0.117009 0.0712725 0.0691701)
(0.116306 0.070691 0.0684348)
(0.11528 0.0699537 0.0675148)
(0.113477 0.0686943 0.0661927)
(0.110275 0.0666547 0.064136)
(0.105853 0.0639084 0.0614481)
(0.100049 0.0604083 0.058051)
(0.0931878 0.0563261 0.0541165)
(0.0856906 0.0519223 0.049861)
(0.0782353 0.0475717 0.0456412)
(0.0710866 0.0434246 0.0416108)
(0.0646771 0.0397134 0.037999)
(0.0592365 0.0365711 0.0349335)
(0.054646 0.0339349 0.032357)
(0.050603 0.0316331 0.0301063)
(0.0472408 0.0297343 0.0282417)
(0.0447952 0.0283619 0.026874)
(0.0431674 0.02745 0.025945)
(0.042204 0.0269043 0.025372)
(0.0417235 0.0266197 0.0250586)
(0.0415653 0.0265096 0.0249327)
(0.0415754 0.026495 0.0249411)
(0.0417034 0.0265532 0.0250895)
(0.0419926 0.0267042 0.0254349)
(0.0425129 0.0269624 0.0260451)
(0.0434109 0.0273759 0.0270161)
(0.0448485 0.0279983 0.0284304)
(0.0469646 0.0288881 0.0303244)
(0.049434 0.0298384 0.032394)
(0.0520055 0.0307571 0.034327)
(0.0541491 0.0314098 0.0355965)
(0.049785 0.0286152 0.0326833)
(0.0351536 0.0204445 0.0232559)
(0.0135725 0.00847567 0.00948321)
(0.00424635 0.00413568 0.00460807)
(0.00416198 0.00423995 0.00456873)
(0.00443342 0.00441993 0.0046506)
(0.00455584 0.00453547 0.00468776)
(0.00466761 0.00460687 0.00471616)
(0.00467425 0.00464623 0.00471581)
(0.00472981 0.00467293 0.00472619)
(0.00469659 0.00468261 0.00471481)
(0.00474337 0.00469588 0.00472387)
(0.00469229 0.00469235 0.00470804)
(0.0047483 0.00470612 0.00472195)
(0.00469138 0.0047012 0.00470993)
(0.00507145 0.00502745 0.00503711)
(0.00918336 0.00919056 0.00920454)
(0.108749 0.0535354 0.0542987)
(0.0737278 0.0426399 0.0407186)
(0.0707454 0.0418229 0.0407274)
(0.0596077 0.0362095 0.0352187)
(0.0529509 0.0322767 0.0314803)
(0.0467442 0.0286481 0.0279601)
(0.0436343 0.0268043 0.0261006)
(0.0414153 0.0255432 0.0248058)
(0.0400082 0.0247474 0.0239616)
(0.0391638 0.0242916 0.0234423)
(0.0390081 0.0242424 0.023325)
(0.0391744 0.0243767 0.0233947)
(0.0398381 0.0248008 0.0237447)
(0.0403994 0.0251481 0.0240406)
(0.0409108 0.0254756 0.024321)
(0.0409336 0.0255062 0.024356)
(0.0403185 0.0251908 0.0240788)
(0.0391238 0.0245616 0.0235279)
(0.0374345 0.0236846 0.0227661)
(0.0354897 0.0226967 0.0219353)
(0.0336764 0.0218181 0.021243)
(0.0323723 0.0212424 0.0208646)
(0.0316724 0.0210057 0.0208367)
(0.0316455 0.0211255 0.0211631)
(0.0322112 0.0215497 0.0217679)
(0.0332058 0.0221924 0.0225529)
(0.0344738 0.0229727 0.0234554)
(0.0359934 0.0238782 0.0244647)
(0.0377426 0.0248915 0.0255396)
(0.0396775 0.0259838 0.0266576)
(0.0417827 0.0271392 0.0278183)
(0.0440985 0.0283751 0.0290552)
(0.04671 0.0297415 0.0304391)
(0.0497605 0.0313261 0.0320828)
(0.053473 0.033255 0.0341389)
(0.0580728 0.0356491 0.036761)
(0.0637914 0.0386148 0.0401035)
(0.0707593 0.0421985 0.0442667)
(0.0789476 0.0463579 0.0492587)
(0.088042 0.0509192 0.0548566)
(0.0971909 0.0554146 0.0604006)
(0.104239 0.0585728 0.0644043)
(0.107876 0.0597096 0.0659428)
(0.0992844 0.054699 0.0604927)
(0.07328 0.0410699 0.0452279)
(0.0329463 0.019017 0.0205945)
(0.0060099 0.00363906 0.00394467)
(0.00169124 0.00154787 0.00168293)
(0.00153202 0.00150523 0.00159168)
(0.00153311 0.00151326 0.00156828)
(0.00153698 0.00151027 0.00154775)
(0.00152024 0.00150654 0.00153015)
(0.00152054 0.00150016 0.0015175)
(0.00150027 0.00149425 0.0015048)
(0.00150511 0.00148957 0.0014983)
(0.00148391 0.00148356 0.00148859)
(0.00149651 0.00148346 0.00148816)
(0.00150002 0.00150328 0.00150609)
(0.00236614 0.00234906 0.00235308)
(0.00843878 0.00844702 0.00845897)
(0.0725743 0.0348387 0.0364856)
(0.0381062 0.0219923 0.0211813)
(0.0325007 0.0192529 0.0187202)
(0.0251681 0.0154704 0.0149681)
(0.0214525 0.013368 0.0129166)
(0.0187557 0.0119068 0.0114942)
(0.0178166 0.0114975 0.0110732)
(0.0175056 0.0114856 0.0110755)
(0.0177251 0.0117947 0.0113865)
(0.0183144 0.012323 0.0119302)
(0.0192598 0.013052 0.012686)
(0.0204201 0.0139033 0.013563)
(0.0218506 0.0148926 0.0145888)
(0.0233842 0.0159426 0.0156799)
(0.025042 0.0170578 0.0168455)
(0.0267616 0.0182151 0.0180799)
(0.0285514 0.0194303 0.0194064)
(0.0305339 0.0207765 0.0208921)
(0.0327698 0.0222808 0.0225742)
(0.0353788 0.0240121 0.0245395)
(0.0383843 0.0259734 0.0267841)
(0.0417509 0.028123 0.0292393)
(0.0453678 0.030386 0.0318409)
(0.0491226 0.032679 0.0344999)
(0.0528598 0.0349032 0.0370765)
(0.0565331 0.0370435 0.0395312)
(0.0601891 0.0391519 0.0419258)
(0.0638603 0.04125 0.0442979)
(0.0674029 0.0432345 0.046488)
(0.0707293 0.0450231 0.0483867)
(0.0740314 0.0467244 0.0501511)
(0.0775234 0.0484521 0.051961)
(0.0814299 0.0503281 0.0539756)
(0.086041 0.0525035 0.0563771)
(0.0918129 0.055234 0.0594302)
(0.0992304 0.0587937 0.0634224)
(0.108879 0.0634868 0.068731)
(0.121198 0.0695134 0.0755996)
(0.136347 0.0768598 0.0840539)
(0.153884 0.0853217 0.0938076)
(0.171796 0.0939299 0.103328)
(0.184378 0.0996653 0.10912)
(0.18595 0.0994253 0.10819)
(0.167938 0.0894598 0.096844)
(0.126734 0.0687002 0.0738251)
(0.0654757 0.0371175 0.03928)
(0.0145018 0.00830775 0.00878204)
(0.00244079 0.00144196 0.00152822)
(0.000592156 0.000516137 0.000546983)
(0.000463149 0.000451468 0.000468728)
(0.000431892 0.000422155 0.000432807)
(0.000410858 0.000405805 0.000412307)
(0.000398942 0.000392999 0.000397563)
(0.000387905 0.000385932 0.000388726)
(0.000384194 0.000380082 0.000382341)
(0.000376565 0.000376336 0.000377669)
(0.00037912 0.000375824 0.000377056)
(0.000466663 0.000467085 0.000468003)
(0.00187824 0.00186605 0.00186964)
(0.00831969 0.00832749 0.00834053)
(0.0480795 0.0227404 0.025126)
(0.0211626 0.012369 0.0119961)
(0.016722 0.0103107 0.00998171)
(0.0132021 0.00879038 0.00846995)
(0.0125791 0.00874721 0.00843813)
(0.0129851 0.00929 0.00901348)
(0.0142886 0.0103509 0.010092)
(0.0159687 0.0116346 0.0114109)
(0.0180026 0.0131202 0.0129424)
(0.0202853 0.01475 0.0146316)
(0.0228364 0.0165236 0.0164974)
(0.0256317 0.0184358 0.0185047)
(0.0286831 0.0204659 0.0206641)
(0.0320806 0.0227045 0.0230338)
(0.0358286 0.0251366 0.0256193)
(0.0401095 0.0278909 0.0285714)
(0.04502 0.0310496 0.0320173)
(0.0507776 0.0347521 0.0360737)
(0.0574561 0.0390384 0.0407971)
(0.0652407 0.0440165 0.0463348)
(0.0741202 0.0496977 0.0527163)
(0.0839148 0.0559261 0.059712)
(0.0944676 0.0625812 0.0671905)
(0.105347 0.0693617 0.0749152)
(0.11591 0.0758376 0.082376)
(0.125998 0.081929 0.0893425)
(0.136293 0.088161 0.096304)
(0.147523 0.0950882 0.103953)
(0.159836 0.102858 0.112284)
(0.164384 0.105307 0.114886)
(0.162366 0.1033 0.112631)
(0.158315 0.0997827 0.108692)
(0.15709 0.0979932 0.106509)
(0.161034 0.0994394 0.107733)
(0.167091 0.101846 0.11016)
(0.175951 0.105649 0.114266)
(0.18898 0.111669 0.120966)
(0.207009 0.120361 0.130644)
(0.230898 0.131953 0.143495)
(0.2616 0.146984 0.159839)
(0.293443 0.162328 0.175561)
(0.30779 0.16764 0.179958)
(0.294159 0.157218 0.168181)
(0.257553 0.135269 0.144213)
(0.196157 0.103723 0.109551)
(0.110827 0.0613068 0.0637686)
(0.0307173 0.0174266 0.0181283)
(0.00604408 0.0034058 0.00355242)
(0.000989618 0.000572819 0.000599062)
(0.000205074 0.000166268 0.000173338)
(0.000128813 0.000124225 0.000127549)
(0.000112126 0.000110151 0.000111988)
(0.000102153 0.000100402 0.00010155)
(9.65264e-05 9.5885e-05 9.65683e-05)
(9.35811e-05 9.25326e-05 9.30597e-05)
(9.10684e-05 9.09572e-05 9.12668e-05)
(9.74921e-05 9.66776e-05 9.69774e-05)
(0.000296774 0.000296401 0.000296941)
(0.00184431 0.00183208 0.00183549)
(0.00830932 0.00831559 0.00832787)
(0.0376186 0.0180147 0.0209557)
(0.0147119 0.00970818 0.00959235)
(0.0145708 0.0105966 0.0102773)
(0.0161363 0.0123014 0.011936)
(0.0188122 0.0143887 0.0140297)
(0.0215942 0.0164743 0.0161454)
(0.0246471 0.0187135 0.0184458)
(0.0280536 0.0211914 0.0210346)
(0.0318662 0.0239232 0.0239073)
(0.0361921 0.0269999 0.0271848)
(0.0411045 0.0304397 0.0308898)
(0.046651 0.034269 0.0350289)
(0.0528466 0.0384874 0.0396056)
(0.0601485 0.0434066 0.0449022)
(0.0686045 0.0490597 0.0509095)
(0.0787962 0.0558209 0.0580798)
(0.0911219 0.0640313 0.0668484)
(0.10622 0.0740995 0.0775805)
(0.124654 0.0863741 0.0905691)
(0.147182 0.101322 0.106407)
(0.174031 0.119122 0.125294)
(0.204586 0.139362 0.146498)
(0.240211 0.162892 0.170722)
(0.281023 0.189649 0.198313)
(0.32373 0.21724 0.227297)
(0.366297 0.244541 0.256515)
(0.410399 0.272845 0.286503)
(0.453887 0.300251 0.315588)
(0.477843 0.314437 0.33129)
(0.476698 0.312499 0.329766)
(0.452907 0.296474 0.312763)
(0.414199 0.271078 0.285452)
(0.372957 0.243913 0.255457)
(0.343832 0.224586 0.232981)
(0.335738 0.218872 0.225011)
(0.336671 0.218073 0.223193)
(0.346138 0.221216 0.227104)
(0.366931 0.229928 0.238137)
(0.397141 0.243083 0.254298)
(0.437055 0.261073 0.274844)
(0.471026 0.275088 0.289456)
(0.466251 0.266094 0.279798)
(0.422385 0.233126 0.24608)
(0.362155 0.192256 0.20275)
(0.279128 0.145843 0.152185)
(0.167593 0.0903512 0.0930147)
(0.0568875 0.0318255 0.0326798)
(0.0135724 0.00759237 0.00783333)
(0.00269173 0.00150669 0.00155826)
(0.00042315 0.000240966 0.00024955)
(7.34642e-05 5.79026e-05 5.92651e-05)
(4.90255e-05 4.7973e-05 4.85604e-05)
(4.76486e-05 4.68202e-05 4.72524e-05)
(4.66345e-05 4.62952e-05 4.65721e-05)
(4.67057e-05 4.61716e-05 4.64087e-05)
(4.61537e-05 4.60693e-05 4.62128e-05)
(5.87269e-05 5.82682e-05 5.84407e-05)
(0.000286817 0.000286321 0.000286852)
(0.00184334 0.00183082 0.00183437)
(0.00831144 0.0083165 0.00832917)
(0.0425393 0.0247961 0.0280999)
(0.0294851 0.0216857 0.0215549)
(0.0410128 0.0308294 0.0299754)
(0.0518833 0.0393913 0.0382532)
(0.0616093 0.0466036 0.0454664)
(0.068898 0.0519385 0.0507051)
(0.0754548 0.0566935 0.0555013)
(0.0825301 0.0618881 0.0608944)
(0.0898737 0.0672473 0.0663951)
(0.0984882 0.0734874 0.0727869)
(0.108517 0.0807259 0.0803267)
(0.11988 0.0887265 0.0888393)
(0.133112 0.0978868 0.0986881)
(0.149588 0.109135 0.110675)
(0.168467 0.121818 0.123802)
(0.193367 0.138397 0.140779)
(0.225907 0.160194 0.163647)
(0.265241 0.186723 0.191857)
(0.312882 0.218944 0.225829)
(0.372954 0.259507 0.26854)
(0.446935 0.309228 0.321349)
(0.523628 0.361087 0.376354)
(0.608224 0.418743 0.436127)
(0.710492 0.488725 0.506789)
(0.793676 0.544446 0.560474)
(0.841088 0.574212 0.588398)
(0.875663 0.594986 0.608358)
(0.909174 0.613909 0.627202)
(0.933461 0.625215 0.640506)
(0.937338 0.623134 0.641564)
(0.913146 0.604652 0.625571)
(0.857029 0.568129 0.59038)
(0.772915 0.515131 0.536937)
(0.675025 0.453943 0.473442)
(0.585015 0.39679 0.412731)
(0.530837 0.36177 0.372028)
(0.51177 0.348702 0.352118)
(0.517086 0.350271 0.348684)
(0.541229 0.361693 0.359136)
(0.576089 0.375795 0.375864)
(0.593962 0.376079 0.378972)
(0.569136 0.348735 0.354728)
(0.508714 0.298148 0.306557)
(0.439244 0.243336 0.251745)
(0.362919 0.192274 0.198086)
(0.235112 0.124921 0.127873)
(0.0939906 0.0516693 0.0526477)
(0.0273265 0.0151624 0.0154989)
(0.00613195 0.00341093 0.00349697)
(0.00106215 0.000593016 0.00060935)
(0.000152007 9.19626e-05 9.4335e-05)
(4.71712e-05 4.4387e-05 4.48513e-05)
(4.45121e-05 4.36457e-05 4.39979e-05)
(4.39517e-05 4.35684e-05 4.38099e-05)
(4.43194e-05 4.37753e-05 4.39894e-05)
(4.39068e-05 4.37943e-05 4.39309e-05)
(5.69999e-05 5.65342e-05 5.67019e-05)
(0.000286381 0.000285776 0.000286339)
(0.00184331 0.00183025 0.00183401)
(0.00831358 0.00831639 0.00833003)
(0.113398 0.0961406 0.099752)
(0.0901851 0.0679128 0.0681743)
(0.130599 0.0975547 0.0933725)
(0.177294 0.132267 0.126383)
(0.224701 0.166547 0.159685)
(0.260515 0.191621 0.184559)
(0.290702 0.212081 0.20503)
(0.322642 0.233461 0.226278)
(0.347714 0.250717 0.244113)
(0.375289 0.270162 0.263543)
(0.404254 0.29154 0.284593)
(0.431632 0.312272 0.305446)
(0.476087 0.34429 0.33803)
(0.518548 0.374637 0.368868)
(0.542183 0.392774 0.386873)
(0.589729 0.427988 0.420783)
(0.692514 0.500409 0.491444)
(0.807434 0.57812 0.568834)
(0.922472 0.654846 0.646166)
(1.04684 0.737341 0.728822)
(1.18112 0.824285 0.815502)
(1.29253 0.894728 0.887072)
(1.36203 0.937055 0.932682)
(1.40016 0.95773 0.957108)
(1.41828 0.964803 0.966279)
(1.42312 0.963738 0.964376)
(1.41534 0.955446 0.953785)
(1.39716 0.940286 0.936053)
(1.37053 0.918646 0.912743)
(1.33597 0.892086 0.886312)
(1.29386 0.8612 0.85816)
(1.24116 0.824996 0.825846)
(1.17172 0.781639 0.784816)
(1.08191 0.728933 0.731315)
(0.973446 0.666316 0.665827)
(0.85688 0.596834 0.593508)
(0.760071 0.537272 0.529634)
(0.697619 0.498857 0.486674)
(0.659289 0.472168 0.460304)
(0.635076 0.448651 0.438814)
(0.608637 0.418397 0.409393)
(0.566018 0.374926 0.36706)
(0.509574 0.321179 0.315981)
(0.450976 0.265848 0.265125)
(0.392699 0.215506 0.219501)
(0.285692 0.152677 0.156251)
(0.140203 0.0759514 0.0774054)
(0.0461279 0.0253045 0.0257893)
(0.0115385 0.00636684 0.00649859)
(0.00221742 0.00122829 0.00125606)
(0.000337119 0.00019047 0.000194958)
(5.9913e-05 4.87652e-05 4.92941e-05)
(4.46687e-05 4.36105e-05 4.38801e-05)
(4.39409e-05 4.3493e-05 4.36846e-05)
(4.4301e-05 4.37232e-05 4.38981e-05)
(4.38775e-05 4.37378e-05 4.38556e-05)
(5.69599e-05 5.64755e-05 5.66213e-05)
(0.000286235 0.000285547 0.000286074)
(0.00184324 0.00182976 0.00183325)
(0.00831525 0.00831663 0.00832968)
(0.215257 0.190723 0.138385)
(0.206215 0.134889 0.13191)
(0.332089 0.221139 0.222168)
(0.480011 0.327186 0.325509)
(0.599075 0.412309 0.407402)
(0.72163 0.497611 0.490366)
(0.817907 0.56411 0.558448)
(0.960513 0.657723 0.648676)
(1.05741 0.721367 0.710905)
(1.13756 0.77367 0.764028)
(1.22303 0.828936 0.81961)
(1.28486 0.873535 0.864155)
(1.31238 0.89882 0.888867)
(1.33149 0.917384 0.906897)
(1.33561 0.926653 0.91502)
(1.31415 0.92134 0.908997)
(1.30686 0.925237 0.912163)
(1.33187 0.947973 0.933661)
(1.3678 0.975879 0.958711)
(1.40248 1.00066 0.979912)
(1.43809 1.02208 0.997158)
(1.46995 1.03816 1.00795)
(1.48825 1.04477 1.01007)
(1.49332 1.04213 1.00519)
(1.48557 1.03105 0.993654)
(1.46627 1.01259 0.975566)
(1.43793 0.988625 0.951618)
(1.40093 0.959914 0.92239)
(1.35493 0.925082 0.887055)
(1.30162 0.885035 0.846895)
(1.2403 0.841062 0.803754)
(1.17436 0.796218 0.762615)
(1.11347 0.756296 0.728098)
(1.0628 0.724511 0.70026)
(1.01812 0.699543 0.676431)
(0.963711 0.672055 0.648168)
(0.884213 0.629208 0.605685)
(0.788518 0.573458 0.552119)
(0.700641 0.514998 0.496582)
(0.627119 0.45599 0.440398)
(0.561207 0.397806 0.385465)
(0.499457 0.341696 0.332187)
(0.44864 0.29201 0.286008)
(0.410763 0.249427 0.249112)
(0.379279 0.212928 0.21928)
(0.303794 0.16263 0.17053)
(0.176 0.094532 0.0982258)
(0.0692521 0.037561 0.0387944)
(0.0198287 0.0108265 0.011158)
(0.00425456 0.00233331 0.00240439)
(0.000704818 0.000389454 0.000401394)
(0.000101823 6.65546e-05 6.79253e-05)
(4.55754e-05 4.38642e-05 4.41133e-05)
(4.39819e-05 4.34802e-05 4.36447e-05)
(4.43217e-05 4.37134e-05 4.38726e-05)
(4.38803e-05 4.37228e-05 4.38263e-05)
(5.69544e-05 5.64513e-05 5.65861e-05)
(0.000286144 0.000285401 0.000285865)
(0.00184301 0.00182911 0.00183231)
(0.00831438 0.00831506 0.00832622)
(0.213282 0.188438 0.149752)
(0.21416 0.13169 0.137108)
(0.35578 0.237315 0.243969)
(0.494147 0.34357 0.347674)
(0.620817 0.437447 0.442006)
(0.714804 0.504325 0.503512)
(0.787286 0.554549 0.550257)
(0.863933 0.60508 0.599117)
(0.941968 0.65632 0.647896)
(1.01943 0.706549 0.695791)
(1.09874 0.755562 0.743696)
(1.17656 0.80524 0.791024)
(1.2443 0.852682 0.834741)
(1.28899 0.888338 0.86854)
(1.288 0.897996 0.87903)
(1.26339 0.895974 0.878091)
(1.24889 0.90167 0.881521)
(1.24745 0.912614 0.888399)
(1.24768 0.919577 0.891077)
(1.25328 0.925077 0.89246)
(1.27307 0.935471 0.899319)
(1.30439 0.951286 0.912076)
(1.34309 0.971482 0.93007)
(1.37528 0.987165 0.944585)
(1.38367 0.98745 0.945269)
(1.36379 0.968662 0.928801)
(1.32606 0.937038 0.900185)
(1.27876 0.899433 0.865665)
(1.22325 0.856773 0.82612)
(1.16425 0.812218 0.783736)
(1.10635 0.767708 0.739922)
(1.04707 0.72224 0.694448)
(0.97211 0.669704 0.642678)
(0.871638 0.605797 0.581634)
(0.756715 0.538717 0.518425)
(0.647525 0.480093 0.462658)
(0.568019 0.43892 0.420207)
(0.510633 0.404245 0.379696)
(0.462063 0.364929 0.337358)
(0.426146 0.324319 0.300626)
(0.401464 0.287961 0.273047)
(0.382727 0.258502 0.252466)
(0.370109 0.235718 0.235723)
(0.36494 0.217651 0.22209)
(0.358127 0.200449 0.20813)
(0.301072 0.16233 0.169454)
(0.181628 0.0984687 0.101073)
(0.0741396 0.0405851 0.0411573)
(0.0219001 0.0120705 0.012182)
(0.00480801 0.00266209 0.00268343)
(0.000807262 0.000449869 0.000453542)
(0.000114451 7.29799e-05 7.34992e-05)
(4.58733e-05 4.39478e-05 4.41601e-05)
(4.39607e-05 4.34604e-05 4.36066e-05)
(4.42986e-05 4.36888e-05 4.38488e-05)
(4.38557e-05 4.37048e-05 4.38017e-05)
(5.69421e-05 5.64414e-05 5.65813e-05)
(0.000286191 0.00028549 0.000285928)
(0.001843 0.00182924 0.00183252)
(0.00831278 0.00831472 0.00832533)
(0.188597 0.155753 0.135385)
(0.203563 0.123961 0.139461)
(0.49338 0.340346 0.376084)
(0.817972 0.578531 0.587028)
(1.00579 0.716406 0.703894)
(1.15584 0.825027 0.800372)
(1.29429 0.917035 0.88668)
(1.44786 1.01218 0.981011)
(1.58479 1.09976 1.06929)
(1.70894 1.1791 1.15161)
(1.84745 1.26275 1.23957)
(1.99288 1.3504 1.32657)
(2.13135 1.43695 1.40648)
(2.23359 1.50735 1.47046)
(2.27285 1.54989 1.51244)
(2.2545 1.5714 1.53195)
(2.22954 1.59295 1.54173)
(2.21931 1.61532 1.54917)
(2.23211 1.64315 1.56846)
(2.27401 1.67914 1.60417)
(2.34309 1.72169 1.65208)
(2.42523 1.76296 1.70129)
(2.50171 1.79524 1.73969)
(2.54614 1.80814 1.75539)
(2.54159 1.79236 1.74146)
(2.49474 1.74941 1.70162)
(2.4198 1.68723 1.64394)
(2.32152 1.61094 1.573)
(2.20056 1.5202 1.48769)
(2.06356 1.41713 1.38912)
(1.91692 1.30396 1.27558)
(1.7653 1.18529 1.14802)
(1.58015 1.05374 1.00645)
(1.32542 0.894257 0.844482)
(1.05548 0.73793 0.690407)
(0.828265 0.613581 0.567959)
(0.656167 0.519228 0.475052)
(0.549937 0.450586 0.409607)
(0.495212 0.400801 0.365405)
(0.461444 0.357329 0.333882)
(0.434114 0.319264 0.308382)
(0.41125 0.289652 0.287121)
(0.391091 0.2642 0.265905)
(0.376204 0.240258 0.243849)
(0.363586 0.217236 0.220547)
(0.315579 0.179532 0.180296)
(0.203192 0.113587 0.112948)
(0.0861075 0.0481221 0.0476317)
(0.0256769 0.0143929 0.0142365)
(0.0056282 0.0031634 0.0031328)
(0.000938322 0.000529762 0.000525627)
(0.000129304 8.10466e-05 8.07438e-05)
(4.62127e-05 4.40571e-05 4.42071e-05)
(4.3916e-05 4.34308e-05 4.35432e-05)
(4.42469e-05 4.36513e-05 4.37918e-05)
(4.3807e-05 4.36678e-05 4.37519e-05)
(5.68941e-05 5.64073e-05 5.65382e-05)
(0.000286089 0.000285436 0.000285854)
(0.00184202 0.00182863 0.00183179)
(0.00830708 0.00830972 0.00832076)
(0.192192 0.130346 0.181063)
(0.219663 0.143462 0.195746)
(0.507016 0.366796 0.390333)
(0.694425 0.496568 0.469451)
(0.832017 0.604933 0.571855)
(1.15882 0.831303 0.795752)
(1.51029 1.07231 1.04351)
(1.8782 1.32096 1.29422)
(2.2225 1.55867 1.53346)
(2.55689 1.78152 1.76413)
(2.85313 1.96888 1.96345)
(3.05398 2.08997 2.09425)
(3.16831 2.15541 2.16098)
(3.20462 2.17653 2.16965)
(3.13047 2.14409 2.10549)
(2.91971 2.04941 1.9643)
(2.65513 1.92048 1.79935)
(2.54321 1.87472 1.73926)
(2.58948 1.92055 1.78116)
(2.75521 2.03084 1.89059)
(2.98418 2.16912 2.03421)
(3.21752 2.30117 2.18101)
(3.40079 2.4008 2.29436)
(3.49092 2.44755 2.3481)
(3.49042 2.4389 2.34313)
(3.42998 2.38672 2.29746)
(3.3344 2.30873 2.22797)
(3.20725 2.21147 2.14005)
(3.05327 2.09627 2.03885)
(2.87766 1.96443 1.9248)
(2.65602 1.8005 1.77516)
(2.38249 1.60842 1.58617)
(2.07222 1.40809 1.37555)
(1.74403 1.21184 1.15898)
(1.39087 1.00213 0.928423)
(1.06228 0.804208 0.716659)
(0.806571 0.644349 0.557158)
(0.662189 0.543913 0.469249)
(0.617168 0.495044 0.437201)
(0.622723 0.47375 0.436145)
(0.626821 0.464035 0.439098)
(0.59683 0.435027 0.418129)
(0.546793 0.38797 0.379394)
(0.487899 0.330629 0.329783)
(0.42705 0.27016 0.273593)
(0.350818 0.20808 0.208715)
(0.224801 0.129733 0.127139)
(0.0927755 0.0534153 0.0518276)
(0.0257743 0.0148665 0.0143955)
(0.00526281 0.0030403 0.00294806)
(0.000823314 0.000477451 0.000464185)
(0.000109827 7.24773e-05 7.12563e-05)
(4.54844e-05 4.3878e-05 4.39297e-05)
(4.38439e-05 4.344e-05 4.34824e-05)
(4.41693e-05 4.36301e-05 4.37252e-05)
(4.37402e-05 4.36438e-05 4.36857e-05)
(5.68183e-05 5.63782e-05 5.64691e-05)
(0.000285913 0.000285453 0.000285656)
(0.00184037 0.00182828 0.00183022)
(0.008298 0.00830442 0.00831055)
(0.230427 0.151785 0.222752)
(0.302843 0.200341 0.27901)
(0.547989 0.398095 0.412771)
(0.674088 0.487041 0.472606)
(0.872602 0.639397 0.619261)
(1.28459 0.926804 0.899981)
(1.67631 1.19291 1.16646)
(2.05406 1.44857 1.42479)
(2.40488 1.69085 1.67086)
(2.74225 1.9136 1.90198)
(3.0272 2.08993 2.08903)
(3.20429 2.19188 2.1975)
(3.30575 2.24746 2.25231)
(3.33235 2.26109 2.25225)
(3.2362 2.21204 2.1737)
(2.98932 2.09096 2.01199)
(2.70766 1.95061 1.84109)
(2.5939 1.90492 1.78636)
(2.62504 1.94194 1.82165)
(2.76145 2.03149 1.90886)
(2.96109 2.14851 2.02661)
(3.16688 2.26222 2.14552)
(3.30858 2.33449 2.22018)
(3.34338 2.34487 2.22941)
(3.29227 2.30431 2.19134)
(3.19564 2.23158 2.12972)
(3.09682 2.15474 2.06617)
(3.00007 2.07841 2.00003)
(2.88334 1.98614 1.91704)
(2.72188 1.8628 1.80389)
(2.49456 1.70223 1.65447)
(2.2171 1.51898 1.47792)
(1.92423 1.33224 1.28654)
(1.62607 1.1474 1.08337)
(1.31635 0.95756 0.871774)
(1.02228 0.777095 0.677613)
(0.791313 0.632638 0.534295)
(0.673392 0.553601 0.471326)
(0.666507 0.536782 0.479035)
(0.722693 0.556908 0.519461)
(0.730981 0.548907 0.52378)
(0.680562 0.50076 0.485149)
(0.605112 0.431551 0.425488)
(0.52101 0.354256 0.356239)
(0.441392 0.280003 0.285755)
(0.354596 0.211099 0.212544)
(0.225587 0.130542 0.128386)
(0.0926325 0.053446 0.0520051)
(0.0257003 0.0148492 0.0144067)
(0.00524355 0.00303354 0.00294537)
(0.000819886 0.00047607 0.000463255)
(0.000109412 7.23126e-05 7.11257e-05)
(4.54633e-05 4.38625e-05 4.39146e-05)
(4.38336e-05 4.34296e-05 4.34697e-05)
(4.41565e-05 4.36167e-05 4.37115e-05)
(4.37284e-05 4.36315e-05 4.36721e-05)
(5.68041e-05 5.6362e-05 5.64554e-05)
(0.000285843 0.000285371 0.000285583)
(0.00183988 0.0018277 0.00182981)
(0.00829587 0.00830196 0.00830831)
(0.214724 0.168493 0.155719)
(0.291205 0.177421 0.207878)
(0.630988 0.434821 0.492696)
(0.9203 0.650168 0.679085)
(1.13393 0.811799 0.818122)
(1.3834 0.985234 0.969845)
(1.61192 1.13688 1.10344)
(1.79284 1.25358 1.21212)
(1.91813 1.33502 1.29251)
(2.01281 1.39347 1.35296)
(2.10305 1.44455 1.40822)
(2.1945 1.49283 1.45711)
(2.26838 1.53236 1.49327)
(2.30028 1.55515 1.51271)
(2.27105 1.55012 1.50744)
(2.17789 1.51222 1.46709)
(2.06518 1.46156 1.40914)
(1.96634 1.41376 1.35431)
(1.89445 1.37873 1.31576)
(1.87735 1.37478 1.31065)
(1.9198 1.40106 1.33733)
(1.99964 1.44372 1.37988)
(2.08685 1.48785 1.42068)
(2.14519 1.51569 1.44359)
(2.15762 1.51747 1.44384)
(2.12524 1.49035 1.42115)
(2.07295 1.44788 1.38509)
(2.01136 1.39736 1.33698)
(1.9368 1.33614 1.27459)
(1.84811 1.26299 1.19889)
(1.72988 1.17167 1.10778)
(1.56211 1.05626 0.996751)
(1.34944 0.921222 0.865187)
(1.12125 0.781142 0.726017)
(0.909406 0.653871 0.598687)
(0.731097 0.549348 0.495432)
(0.593614 0.469041 0.421436)
(0.509391 0.415635 0.380537)
(0.47847 0.38751 0.36663)
(0.473392 0.371269 0.361357)
(0.454014 0.344622 0.342213)
(0.425444 0.311439 0.313521)
(0.40101 0.279081 0.283286)
(0.384658 0.249872 0.254566)
(0.370265 0.223303 0.226283)
(0.314216 0.180178 0.179573)
(0.194863 0.109272 0.108412)
(0.080776 0.0451949 0.0447053)
(0.0237914 0.0133389 0.0131858)
(0.00517672 0.00290891 0.00287878)
(0.000858476 0.000484627 0.000480488)
(0.000119117 7.58758e-05 7.55694e-05)
(4.58872e-05 4.39549e-05 4.40978e-05)
(4.3898e-05 4.34324e-05 4.35376e-05)
(4.42156e-05 4.36373e-05 4.37738e-05)
(4.37843e-05 4.36573e-05 4.37353e-05)
(5.68565e-05 5.63869e-05 5.65141e-05)
(0.000285957 0.000285373 0.000285757)
(0.00184087 0.001828 0.00183106)
(0.00830203 0.00830625 0.00831621)
(0.235207 0.199008 0.162441)
(0.308389 0.189662 0.198855)
(0.527896 0.346205 0.360777)
(0.775986 0.52418 0.539854)
(1.05721 0.720947 0.741661)
(1.34468 0.920237 0.926598)
(1.45491 1.00067 0.998008)
(1.53889 1.05606 1.05047)
(1.60454 1.09737 1.08764)
(1.65405 1.12871 1.11322)
(1.69645 1.15498 1.13587)
(1.7178 1.17009 1.14815)
(1.72633 1.1792 1.15477)
(1.7186 1.17997 1.15332)
(1.69871 1.17187 1.14225)
(1.66751 1.15452 1.11864)
(1.62884 1.13133 1.08717)
(1.59208 1.10832 1.05594)
(1.56852 1.09402 1.03405)
(1.55615 1.08618 1.02043)
(1.55363 1.08302 1.0157)
(1.54359 1.07643 1.01197)
(1.52653 1.06787 1.00758)
(1.51179 1.05983 1.00242)
(1.48947 1.04315 0.987758)
(1.45338 1.01443 0.960636)
(1.40916 0.979431 0.926596)
(1.36006 0.942092 0.890031)
(1.30033 0.898687 0.848272)
(1.22524 0.846079 0.798704)
(1.13132 0.78236 0.738918)
(1.01631 0.706672 0.666351)
(0.891434 0.626219 0.586121)
(0.766778 0.548059 0.506165)
(0.64735 0.476154 0.433304)
(0.539211 0.412629 0.372929)
(0.453347 0.360506 0.328451)
(0.398254 0.321485 0.299174)
(0.371984 0.293917 0.28096)
(0.364061 0.275144 0.269592)
(0.357316 0.258089 0.257417)
(0.349539 0.24087 0.243597)
(0.344824 0.224921 0.229336)
(0.344799 0.211211 0.214916)
(0.340974 0.197191 0.198747)
(0.281028 0.156072 0.156659)
(0.161495 0.0886673 0.0893098)
(0.0636404 0.0350401 0.0351916)
(0.0182152 0.0100713 0.0101026)
(0.00389929 0.00216369 0.00217119)
(0.000640985 0.000358437 0.000360023)
(9.32868e-05 6.30022e-05 6.32823e-05)
(4.52975e-05 4.37921e-05 4.39792e-05)
(4.39443e-05 4.34835e-05 4.36112e-05)
(4.42649e-05 4.36932e-05 4.38394e-05)
(4.38389e-05 4.37115e-05 4.37947e-05)
(5.69029e-05 5.64401e-05 5.65665e-05)
(0.000286082 0.000285507 0.00028587)
(0.0018419 0.00182924 0.00183212)
(0.00830871 0.00831308 0.00832166)
(0.223074 0.188426 0.14423)
(0.255683 0.171022 0.164728)
(0.387469 0.266068 0.262032)
(0.522899 0.360033 0.359042)
(0.67139 0.458834 0.461405)
(0.896262 0.611008 0.613038)
(1.06329 0.728307 0.7322)
(1.23664 0.847451 0.849889)
(1.35931 0.930295 0.929179)
(1.45875 0.997229 0.992573)
(1.53193 1.04735 1.03908)
(1.57051 1.07662 1.06712)
(1.59353 1.09609 1.08454)
(1.60677 1.10914 1.09255)
(1.60688 1.11247 1.08854)
(1.59798 1.10731 1.075)
(1.5851 1.09872 1.0583)
(1.57094 1.08882 1.04043)
(1.5524 1.07526 1.02052)
(1.52033 1.05257 0.997178)
(1.48803 1.02821 0.976215)
(1.45351 1.00281 0.955652)
(1.40711 0.971719 0.930687)
(1.35717 0.938175 0.902822)
(1.30852 0.90377 0.872381)
(1.25629 0.866316 0.836742)
(1.1957 0.824646 0.796199)
(1.12965 0.780148 0.754241)
(1.06762 0.737377 0.714719)
(1.01201 0.698271 0.67786)
(0.957278 0.660803 0.640482)
(0.898617 0.623006 0.59939)
(0.8366 0.584663 0.556444)
(0.77372 0.547134 0.515552)
(0.713111 0.511761 0.480904)
(0.65871 0.478853 0.455653)
(0.611866 0.447026 0.440206)
(0.574293 0.416165 0.432003)
(0.54357 0.386748 0.4172)
(0.503353 0.352364 0.38161)
(0.457269 0.315428 0.337715)
(0.413867 0.279322 0.295638)
(0.38016 0.246614 0.258147)
(0.360697 0.220773 0.227734)
(0.346819 0.200001 0.203394)
(0.2823 0.155927 0.158192)
(0.15897 0.0868835 0.0880395)
(0.060167 0.0329992 0.033413)
(0.0165191 0.00909839 0.0092202)
(0.00342698 0.00189411 0.00192207)
(0.000552204 0.000308058 0.000312963)
(8.27606e-05 5.81302e-05 5.87337e-05)
(4.50952e-05 4.37322e-05 4.39436e-05)
(4.39616e-05 4.34893e-05 4.36336e-05)
(4.42953e-05 4.3717e-05 4.38591e-05)
(4.38702e-05 4.37288e-05 4.3819e-05)
(5.69268e-05 5.64546e-05 5.65734e-05)
(0.000286063 0.000285411 0.000285806)
(0.00184223 0.00182926 0.001832)