/*--------------------------------*- C++ -*----------------------------------*\
| =========                 |                                                 |
| \\      /  F ield         | OpenFOAM: The Open Source CFD Toolbox           |
|  \\    /   O peration     | Version:  2.1.1                                 |
|   \\  /    A nd           | Web:      www.OpenFOAM.org                      |
|    \\/     M anipulation  |                                                 |
\*---------------------------------------------------------------------------*/
FoamFile
{
    version     2.0;
    format      ascii;
    class       volVectorField;
    location    "0.001";
    object      fluctuation1;
}
// * * * * * * * * * * * * * * * * * * * * * * * * * * * * * * * * * * * * * //

dimensions      [0 1 -1 0 0 0 0];

internalField   nonuniform List<vector> 
36520
(
(-9.05777e-06 4.0758e-06 3.55481e-05)
(-1.11567e-05 8.00234e-06 4.11494e-05)
(2.15717e-06 1.52088e-05 6.77526e-05)
(2.79497e-06 2.13804e-05 8.86188e-05)
(3.69699e-06 3.00291e-05 0.000117676)
(4.3913e-06 3.89624e-05 0.000142439)
(4.83296e-06 4.87689e-05 0.000165878)
(4.81983e-06 5.78837e-05 0.00018192)
(4.3906e-06 6.60695e-05 0.000192277)
(3.73595e-06 7.22169e-05 0.000197107)
(3.1996e-06 7.68729e-05 0.000199262)
(3.03761e-06 8.02576e-05 0.000201609)
(3.45367e-06 8.35648e-05 0.000205433)
(4.28669e-06 8.75511e-05 0.000212346)
(5.37558e-06 9.23444e-05 0.000220412)
(6.68015e-06 9.80542e-05 0.000231836)
(8.37808e-06 0.00010469 0.000246907)
(1.07998e-05 0.000113337 0.000269576)
(1.41661e-05 0.000125298 0.000301289)
(1.84458e-05 0.00014219 0.000344118)
(2.3311e-05 0.000164441 0.000395835)
(2.83146e-05 0.000191695 0.000453785)
(3.28998e-05 0.000222218 0.000512178)
(3.66324e-05 0.000254033 0.000564846)
(3.90579e-05 0.000284912 0.000604117)
(3.95508e-05 0.000312957 0.000624747)
(3.7308e-05 0.000335622 0.000622299)
(3.19436e-05 0.000350514 0.000594177)
(2.40094e-05 0.000355476 0.000539764)
(1.49914e-05 0.000349112 0.000461683)
(7.05768e-06 0.000330513 0.000363135)
(3.01025e-06 0.000301473 0.000251327)
(6.2403e-06 0.000269732 0.000139941)
(1.99036e-05 0.000250966 4.94513e-05)
(4.33943e-05 0.000262973 -6.18029e-06)
(7.03623e-05 0.000311393 -3.47001e-05)
(9.24846e-05 0.000384156 -5.80617e-05)
(0.000104076 0.000460173 -9.63432e-05)
(0.000101154 0.000519433 -0.000155282)
(7.89328e-05 0.000547736 -0.000217834)
(3.81468e-05 0.000537394 -0.000260611)
(-8.1562e-06 0.00050243 -0.000264052)
(-4.28261e-05 0.000437188 -0.000226634)
(-6.44309e-05 0.000323269 -0.000149872)
(-5.9033e-05 0.000140956 0.000145794)
(-2.23411e-05 2.83896e-05 5.92359e-05)
(-1.75943e-06 1.10362e-07 4.11906e-07)
(-1.07522e-08 3.89699e-09 1.76337e-08)
(-2.62176e-10 3.68465e-11 1.83157e-10)
(-1.71122e-12 2.52475e-13 1.2275e-12)
(-8.2668e-15 1.61262e-15 6.73405e-15)
(-3.49896e-17 9.3171e-18 3.14643e-17)
(-1.37646e-19 4.20649e-20 1.28973e-19)
(-4.96127e-22 1.36122e-22 3.6524e-22)
(-1.33463e-24 3.18082e-25 7.54279e-25)
(-2.55063e-27 5.22947e-28 1.05561e-27)
(-3.45721e-30 5.99926e-31 1.06308e-30)
(-3.20634e-33 4.51605e-34 6.58782e-34)
(-1.96155e-36 2.0848e-37 2.76179e-37)
(-7.76e-40 4.52067e-41 4.59008e-41)
(-7.21208e-06 3.03486e-05 7.27093e-05)
(-9.10827e-07 4.89048e-05 7.50852e-05)
(1.21686e-05 7.23424e-05 9.99552e-05)
(1.36224e-05 8.95811e-05 0.000109623)
(1.45707e-05 0.000107166 0.000122799)
(1.30686e-05 0.000119635 0.000125884)
(1.09976e-05 0.000131743 0.000127621)
(8.21683e-06 0.000139113 0.000121677)
(5.84094e-06 0.000143899 0.000113143)
(4.23331e-06 0.000145696 0.000101831)
(3.943e-06 0.000148227 9.08558e-05)
(4.71991e-06 0.000151672 8.10079e-05)
(6.3946e-06 0.000157859 7.2178e-05)
(8.17536e-06 0.000165459 6.41668e-05)
(1.02629e-05 0.000174276 5.62701e-05)
(1.31542e-05 0.000184084 4.93759e-05)
(1.74794e-05 0.000196142 4.39487e-05)
(2.35861e-05 0.00021345 4.09213e-05)
(3.09757e-05 0.000237214 3.97294e-05)
(3.85318e-05 0.000267781 3.98216e-05)
(4.48902e-05 0.000303001 4.02482e-05)
(4.91873e-05 0.000340584 4.01949e-05)
(5.05806e-05 0.000376926 3.87251e-05)
(4.88085e-05 0.000410394 3.55579e-05)
(4.4082e-05 0.000440925 3.07618e-05)
(3.65698e-05 0.000468485 2.44075e-05)
(2.6096e-05 0.00049004 1.6779e-05)
(1.29517e-05 0.000504001 9.58592e-06)
(-2.22332e-06 0.00050983 -3.0156e-06)
(-1.90304e-05 0.000504441 -1.80977e-05)
(-3.62375e-05 0.000482608 -3.50161e-05)
(-4.97564e-05 0.000445942 -5.09532e-05)
(-5.21372e-05 0.000410483 -5.96461e-05)
(-3.76145e-05 0.000404473 -6.19436e-05)
(-1.17454e-05 0.000449601 -7.11369e-05)
(1.03501e-05 0.000545057 -9.0799e-05)
(1.63459e-05 0.000647706 -0.000122083)
(4.43905e-06 0.000689233 -0.000164227)
(-1.50232e-05 0.00062587 -0.000216424)
(-3.15203e-05 0.000503833 -0.000276814)
(-1.57594e-05 -0.00342255 -0.0201046)
(-7.4008e-06 -0.00478042 -0.0278688)
(-2.58075e-06 -0.00515202 -0.0300492)
(7.29455e-05 -0.00417438 -0.0245655)
(7.61638e-05 -0.000180203 -0.00102579)
(-8.27342e-05 0.000211512 0.000166404)
(-9.94011e-06 5.25444e-07 1.14415e-06)
(-7.30139e-08 3.72393e-08 9.46596e-08)
(-3.39828e-09 6.70152e-10 1.73936e-09)
(-3.68477e-11 7.06734e-12 1.71622e-11)
(-2.56218e-13 6.12893e-14 1.23856e-13)
(-1.4115e-15 4.20652e-16 7.31011e-16)
(-6.70565e-18 2.06846e-18 3.13779e-18)
(-2.72142e-20 7.24233e-21 9.30654e-21)
(-7.80707e-23 1.81678e-23 1.97008e-23)
(-1.58694e-25 3.18736e-26 2.82284e-26)
(-2.25396e-28 3.92027e-29 2.8687e-29)
(-2.22905e-31 3.11879e-32 1.79739e-32)
(-1.49861e-34 1.6588e-35 7.9727e-36)
(-1.12644e-37 6.25479e-39 2.29879e-39)
(-1.07588e-07 6.37442e-05 7.2919e-05)
(6.46216e-06 6.9541e-05 4.54064e-05)
(1.21381e-05 8.93643e-05 4.36166e-05)
(1.09386e-05 9.60526e-05 3.4032e-05)
(8.83773e-06 9.94795e-05 2.6831e-05)
(5.13762e-06 9.66435e-05 1.83842e-05)
(1.80047e-06 9.54261e-05 1.13744e-05)
(-1.20087e-06 9.15624e-05 4.74992e-06)
(-3.03118e-06 8.75891e-05 -1.2757e-06)
(-4.06152e-06 8.37916e-05 -6.86605e-06)
(-4.21225e-06 8.22846e-05 -1.26376e-05)
(-3.99807e-06 8.2623e-05 -1.90793e-05)
(-3.6679e-06 8.57039e-05 -2.62029e-05)
(-3.39731e-06 9.06806e-05 -3.18289e-05)
(-2.91761e-06 9.7907e-05 -3.45652e-05)
(-1.85195e-06 0.000106062 -3.76975e-05)
(-1.91749e-07 0.000115883 -4.13069e-05)
(1.76151e-06 0.000128861 -4.5962e-05)
(3.59374e-06 0.000144995 -5.20066e-05)
(5.09789e-06 0.000163668 -5.9928e-05)
(6.08549e-06 0.000183041 -7.00411e-05)
(6.46227e-06 0.000201479 -8.28494e-05)
(6.22593e-06 0.000216409 -9.84466e-05)
(5.51865e-06 0.000227168 -0.000116876)
(4.38306e-06 0.000235422 -0.000137573)
(2.81221e-06 0.000244946 -0.00015952)
(1.41394e-06 0.00019619 -0.000404081)
(-2.97189e-06 -0.001208 -0.00552746)
(-7.88245e-06 -0.00226823 -0.00941486)
(-1.05432e-05 -0.00315158 -0.0126485)
(-1.12039e-05 -0.00391907 -0.0154436)
(-8.30097e-06 -0.0045772 -0.017846)
(-3.01445e-06 -0.00522147 -0.0202338)
(-4.68106e-07 -0.00595684 -0.023016)
(-5.43527e-07 -0.00686058 -0.0265025)
(-6.37345e-07 -0.00796413 -0.0308297)
(-7.46473e-07 -0.00926134 -0.0359177)
(-8.65088e-07 -0.0106215 -0.0413972)
(-9.81588e-07 -0.0119528 -0.0470225)
(-0.000260844 -0.0132522 -0.0527548)
(-0.000320165 -0.0144243 -0.0582256)
(-0.000196368 -0.0160967 -0.0618636)
(6.36631e-05 -0.0171881 -0.0630922)
(0.000351216 -0.0165668 -0.0575716)
(0.000430048 -0.0128407 -0.0427764)
(0.000105386 -0.00373885 -0.0168237)
(-5.39647e-05 3.149e-06 2.62065e-06)
(-2.03e-07 1.42558e-07 2.49414e-07)
(-1.52007e-08 4.58328e-09 8.10567e-09)
(-2.7404e-10 7.01914e-11 1.17505e-10)
(-2.68978e-12 7.78826e-13 1.16352e-12)
(-1.91272e-14 5.9309e-15 7.94194e-15)
(-1.13171e-16 3.11299e-17 3.69945e-17)
(-4.79395e-19 1.14897e-19 1.17809e-19)
(-1.43478e-21 2.99151e-22 2.61621e-22)
(-3.00131e-24 5.42266e-25 3.91869e-25)
(-4.37759e-27 6.83771e-28 4.08339e-28)
(-4.47673e-30 5.6596e-31 2.66994e-31)
(-4.48278e-33 4.48542e-34 1.73985e-34)
(-6.69567e-36 3.41444e-37 9.93667e-38)
(-9.67067e-06 5.96166e-05 3.08906e-05)
(-3.83915e-06 5.7136e-05 5.14864e-06)
(1.2727e-06 6.13222e-05 -5.24809e-06)
(4.68511e-07 5.5568e-05 -1.28556e-05)
(-4.63884e-07 5.03238e-05 -1.91456e-05)
(-1.5901e-06 4.39856e-05 -2.26322e-05)
(-2.31062e-06 4.14207e-05 -2.26775e-05)
(-2.92742e-06 3.86892e-05 -2.23473e-05)
(-3.30312e-06 3.67648e-05 -2.20369e-05)
(-3.67345e-06 3.55697e-05 -2.15841e-05)
(-4.14499e-06 3.55199e-05 -2.12942e-05)
(-4.53585e-06 3.61323e-05 -2.88557e-05)
(-3.86135e-06 1.20173e-05 -0.000123412)
(-1.54594e-06 -8.09274e-05 -0.000438507)
(-1.24006e-08 -0.000240924 -0.000980715)
(-2.07002e-08 -0.000488107 -0.00182811)
(-3.50311e-08 -0.000919328 -0.0032984)
(-5.87041e-08 -0.00164333 -0.00574761)
(-9.41878e-08 -0.00275465 -0.00947151)
(-1.38916e-07 -0.00419535 -0.0142646)
(-1.84918e-07 -0.00571212 -0.0192996)
(-2.26313e-07 -0.00706985 -0.0238403)
(-2.62338e-07 -0.00823058 -0.027786)
(-2.93929e-07 -0.00921354 -0.0312102)
(-3.21974e-07 -0.0100462 -0.0341745)
(-6.67259e-06 -0.0107806 -0.036818)
(-0.000146906 -0.0114637 -0.0392993)
(-0.000248899 -0.0120719 -0.0416976)
(-0.000252358 -0.0126061 -0.0438648)
(-0.000272457 -0.0130439 -0.0457322)
(-0.000285433 -0.0134292 -0.0474713)
(-0.000308427 -0.0138034 -0.0492584)
(-0.000407111 -0.0141844 -0.051249)
(-0.000647243 -0.014627 -0.0536319)
(-0.00111974 -0.0152614 -0.0566659)
(-0.00203603 -0.0165171 -0.0605118)
(-0.00363795 -0.0185652 -0.0654689)
(-0.00583111 -0.0216383 -0.0716407)
(-0.0078005 -0.0260892 -0.0788699)
(-0.00763647 -0.0320731 -0.0867839)
(-0.00492859 -0.039987 -0.0934417)
(-0.00189975 -0.0487729 -0.0951483)
(0.00113291 -0.0529248 -0.0915805)
(0.00355726 -0.053915 -0.0772469)
(0.00460903 -0.0474632 -0.0532957)
(0.00754872 -0.0250235 -0.0286025)
(0.0102544 -2.60057e-05 -0.000135313)
(-8.67597e-07 7.27475e-07 9.68259e-07)
(-4.3048e-08 1.92179e-08 2.68715e-08)
(-1.14743e-09 3.99884e-10 5.32507e-10)
(-1.57427e-11 5.12138e-12 6.37793e-12)
(-1.50893e-13 4.34916e-14 4.94295e-14)
(-1.01659e-15 2.49091e-16 2.54246e-16)
(-4.67304e-18 9.98306e-19 8.89959e-19)
(-1.49996e-20 2.77729e-21 2.12633e-21)
(-3.31731e-23 5.36997e-24 3.42218e-24)
(-5.11776e-26 7.16603e-27 3.77317e-27)
(-6.69579e-29 7.71038e-30 3.21614e-30)
(-1.7925e-31 1.63298e-32 5.55144e-33)
(-3.40924e-34 1.64956e-35 4.02586e-36)
(-1.16546e-05 4.33831e-05 -1.31547e-05)
(-7.84447e-06 3.37546e-05 -1.57872e-05)
(-4.96881e-06 3.28399e-05 -1.86968e-05)
(-4.66232e-06 2.44354e-05 -3.40776e-05)
(-4.39384e-06 1.79292e-05 -7.01005e-05)
(-2.13002e-06 1.07826e-05 -0.000149882)
(-2.71087e-09 -6.63662e-06 -0.000339756)
(-2.73977e-09 -4.20424e-05 -0.000721569)
(-2.84718e-09 -9.24372e-05 -0.00135669)
(-3.08067e-09 -0.000184589 -0.00236183)
(-4.78307e-06 -0.000374691 -0.00385078)
(-5.90134e-05 -0.000726031 -0.0058669)
(-0.000213563 -0.00134273 -0.00857169)
(-0.000386525 -0.00221754 -0.0119881)
(-0.000520025 -0.00332238 -0.0160343)
(-0.000693465 -0.00480421 -0.0208427)
(-0.000890555 -0.00666308 -0.0262638)
(-0.00110759 -0.00862951 -0.0317733)
(-0.001343 -0.0106164 -0.0373479)
(-0.00150553 -0.0126727 -0.0432851)
(-0.00157167 -0.0147821 -0.0497166)
(-0.00163695 -0.0169306 -0.0565425)
(-0.00166782 -0.0191371 -0.0637379)
(-0.00164951 -0.0213132 -0.0711268)
(-0.00161877 -0.0233453 -0.0782481)
(-0.00161668 -0.0252211 -0.0848966)
(-0.00154976 -0.0271455 -0.0915314)
(-0.0012702 -0.0292861 -0.0988138)
(-0.000887726 -0.0317042 -0.106732)
(-0.000632002 -0.032541 -0.109181)
(-0.000601831 -0.0320502 -0.106989)
(-0.00061998 -0.0310786 -0.103202)
(-0.000816597 -0.030655 -0.101083)
(-0.0016749 -0.0312969 -0.102176)
(-0.00367008 -0.0324916 -0.104304)
(-0.00752552 -0.0347855 -0.107725)
(-0.0140872 -0.0388958 -0.112991)
(-0.0235875 -0.0452946 -0.120098)
(-0.0325762 -0.0541778 -0.129256)
(-0.0313791 -0.0669306 -0.141004)
(-0.0188072 -0.0872247 -0.147632)
(-0.00691094 -0.104063 -0.141029)
(0.00187909 -0.105721 -0.124472)
(0.00706446 -0.0990526 -0.0981317)
(0.00987135 -0.0807507 -0.0685328)
(0.0190387 -0.0471968 -0.0391921)
(0.0305962 -0.000656333 -0.00061515)
(0.000146135 6.5061e-06 6.24459e-06)
(-3.22941e-07 1.87325e-07 2.14208e-07)
(-5.06616e-09 1.83216e-09 2.05966e-09)
(-7.34977e-11 2.35382e-11 2.48519e-11)
(-8.32588e-13 2.20218e-13 2.13293e-13)
(-6.2125e-15 1.37436e-15 1.19803e-15)
(-3.16106e-17 6.07965e-18 4.63815e-18)
(-1.11193e-19 1.84645e-20 1.20538e-20)
(-2.67515e-22 3.91387e-23 2.11722e-23)
(-4.7816e-25 6.05661e-26 2.67053e-26)
(-1.65671e-27 1.7519e-28 6.03188e-29)
(-7.38615e-30 6.16254e-31 1.68062e-31)
(-1.50509e-32 6.96176e-34 1.29786e-34)
(-1.71068e-05 2.78266e-05 -4.24156e-05)
(-9.54908e-06 -5.79851e-06 -0.000120886)
(-1.70589e-05 -7.56337e-06 -0.000470609)
(-4.38639e-05 1.7994e-05 -0.00151217)
(-8.10815e-05 -0.000230214 -0.00439164)
(-0.000121662 -0.00108279 -0.00907617)
(-0.000224106 -0.000732062 -0.0116563)
(-0.000260821 -0.00180007 -0.0160751)
(-0.000293402 -0.00286691 -0.020099)
(-0.000325325 -0.00406858 -0.0241708)
(-0.000350872 -0.00543813 -0.0283771)
(-0.00040379 -0.00687222 -0.0327643)
(-0.000487859 -0.00841684 -0.0374399)
(-0.000616814 -0.0100801 -0.0427171)
(-0.000887605 -0.0118561 -0.0486222)
(-0.00141864 -0.0140263 -0.055599)
(-0.00214551 -0.0167564 -0.0640514)
(-0.00315807 -0.020082 -0.074314)
(-0.00481871 -0.0241604 -0.0866463)
(-0.00714381 -0.0292436 -0.10158)
(-0.00995028 -0.0353519 -0.119311)
(-0.0144426 -0.0423386 -0.139086)
(-0.0205136 -0.0502853 -0.161628)
(-0.0261146 -0.0595029 -0.187292)
(-0.0273804 -0.0692786 -0.214468)
(-0.0255316 -0.0792281 -0.241925)
(-0.0208088 -0.0910286 -0.26961)
(-0.0129822 -0.104046 -0.295816)
(-0.00735698 -0.113604 -0.308791)
(-0.000384871 -0.115464 -0.306363)
(0.0034458 -0.107822 -0.291279)
(-2.63976e-05 -0.0986344 -0.265829)
(-0.00403838 -0.0879668 -0.238199)
(-0.00519232 -0.0787647 -0.218115)
(-0.0104455 -0.0746284 -0.211381)
(-0.0212095 -0.0729493 -0.209843)
(-0.0315543 -0.0749898 -0.21264)
(-0.0404449 -0.0822939 -0.220802)
(-0.0525618 -0.0921723 -0.232886)
(-0.0653812 -0.110429 -0.245629)
(-0.0439346 -0.139771 -0.247842)
(-0.0182293 -0.15911 -0.224001)
(-0.00318653 -0.159875 -0.179088)
(0.00776166 -0.140046 -0.138839)
(0.020669 -0.109435 -0.0999651)
(0.0632165 -0.0672905 -0.0512027)
(0.0568175 -0.00134251 -0.000649301)
(0.0118421 9.50206e-06 6.17175e-06)
(-2.73108e-06 3.40007e-06 3.13163e-06)
(-7.98139e-08 2.36651e-08 2.16524e-08)
(-4.58346e-10 1.20722e-10 1.03775e-10)
(-5.03398e-12 1.26661e-12 9.92613e-13)
(-4.8227e-14 9.94522e-15 6.97831e-15)
(-2.96027e-16 5.26344e-17 3.20784e-17)
(-1.22894e-18 1.87823e-19 9.67836e-20)
(-3.35607e-21 4.54923e-22 1.91348e-22)
(-7.91206e-24 9.30059e-25 3.11534e-25)
(-4.79181e-26 4.77745e-27 1.21699e-27)
(-2.41847e-28 1.8954e-29 3.66527e-30)
(-5.27335e-31 2.38299e-32 3.02845e-33)
(-0.000237303 3.69935e-05 -0.000205845)
(-0.00064552 0.000379837 -0.00134954)
(-0.00156049 0.00096145 -0.0129034)
(-0.00108099 -0.00467864 -0.0340701)
(-0.000928892 -0.00795047 -0.0435882)
(-0.000785056 -0.00802969 -0.0491688)
(-0.00158551 -0.00545551 -0.0540663)
(-0.00229286 -0.0063831 -0.0596632)
(-0.00216452 -0.00931496 -0.065174)
(-0.00226661 -0.0119271 -0.0714144)
(-0.00232745 -0.0146998 -0.0786848)
(-0.00258784 -0.0172019 -0.0869095)
(-0.0031572 -0.0198249 -0.0964191)
(-0.00386222 -0.0232086 -0.107928)
(-0.00518993 -0.0275729 -0.120367)
(-0.00805925 -0.0330411 -0.136438)
(-0.012457 -0.0405595 -0.157925)
(-0.0189036 -0.0506109 -0.184046)
(-0.0301161 -0.0640969 -0.214723)
(-0.0457195 -0.0836088 -0.251969)
(-0.0563993 -0.111076 -0.297033)
(-0.0545202 -0.145782 -0.341958)
(-0.0430971 -0.190032 -0.387267)
(-0.0444758 -0.245022 -0.437209)
(-0.0624961 -0.280962 -0.477918)
(-0.0732797 -0.286751 -0.507084)
(-0.0754118 -0.249368 -0.549764)
(-0.0516463 -0.240669 -0.575811)
(-0.048604 -0.34199 -0.535074)
(-0.0469334 -0.452087 -0.440292)
(-0.00593825 -0.430798 -0.438876)
(0.0112329 -0.413715 -0.404479)
(-0.0311449 -0.352627 -0.390742)
(-0.0983451 -0.269934 -0.374268)
(-0.178308 -0.202179 -0.332044)
(-0.336773 -0.121728 -0.258842)
(-0.470544 -0.0361533 -0.13351)
(-0.483032 -0.0219283 -0.122494)
(-0.442198 -0.063363 -0.197284)
(-0.226246 -0.149238 -0.311775)
(-0.0669864 -0.162705 -0.338985)
(-0.0295272 -0.194567 -0.29381)
(-0.00993381 -0.218336 -0.208671)
(0.0111668 -0.185096 -0.163295)
(0.0560266 -0.15363 -0.115119)
(0.193263 -0.0619825 -0.0357394)
(0.0939642 -0.00111086 -0.000381892)
(0.0270233 2.78101e-05 1.21232e-05)
(-2.3602e-05 4.96564e-05 3.13012e-05)
(-1.21643e-06 4.01789e-07 2.64855e-07)
(-7.4551e-09 1.53602e-09 9.59906e-10)
(-4.69088e-11 1.10306e-11 6.16492e-12)
(-5.22852e-13 1.02394e-13 5.00917e-14)
(-3.79823e-15 6.37148e-16 2.6318e-16)
(-1.83389e-17 2.64018e-18 8.87315e-19)
(-5.7043e-20 7.3272e-21 1.91089e-21)
(-1.54646e-22 1.72656e-23 3.33191e-24)
(-1.06955e-24 1.02713e-25 1.35442e-26)
(-6.02546e-27 4.52982e-28 3.81415e-29)
(-1.43401e-29 6.41361e-31 2.41914e-32)
(-0.00348155 0.000236733 -4.0555e-05)
(-0.0254008 0.0050087 0.000259213)
(-0.104579 0.020169 -0.00016674)
(-0.161923 0.0354485 -0.00284677)
(-0.184855 0.0833351 -0.0115182)
(-0.043926 0.181956 -0.0151)
(-0.00195163 -0.0113085 -0.204547)
(-0.00650011 -0.0281418 -0.224459)
(-0.0183356 -0.0137972 -0.243198)
(-0.0250754 -0.0102613 -0.262566)
(-0.0237704 -0.0139216 -0.283626)
(-0.0220386 -0.0155181 -0.304535)
(-0.0215667 -0.0174971 -0.337117)
(-0.0247175 -0.018649 -0.367866)
(-0.0338109 -0.0170842 -0.385623)
(-0.0481086 -0.022972 -0.418635)
(-0.061229 -0.0438069 -0.48749)
(-0.068393 -0.0736023 -0.562021)
(-0.0720442 -0.107916 -0.63522)
(-0.0665903 -0.143214 -0.713339)
(-0.0483945 -0.174306 -0.796275)
(-0.0361398 -0.188837 -0.866667)
(-0.0402159 -0.184983 -0.913858)
(-0.0532368 -0.183546 -0.938617)
(-0.0656927 -0.180638 -0.948095)
(-0.0661147 -0.153332 -0.951001)
(-0.0536621 -0.139255 -0.942876)
(-0.0436793 -0.137442 -0.925512)
(-0.0407951 -0.12968 -0.903173)
(-0.0243086 -0.119405 -0.878169)
(0.00391825 -0.109429 -0.851181)
(0.0317357 -0.0982686 -0.819676)
(0.0368571 -0.087036 -0.779528)
(0.015339 -0.0781606 -0.727008)
(0.00151233 -0.0834873 -0.660562)
(-0.00730083 -0.124932 -0.580311)
(-0.476207 -0.263473 -0.320748)
(-0.645074 -0.0156914 0.184628)
(-0.640341 0.026528 0.10646)
(-0.634828 0.00434508 0.0114819)
(-0.541986 -0.0979106 -0.159749)
(-0.0940914 -0.253272 -0.263678)
(-0.00401208 -0.263763 -0.180279)
(0.0412845 -0.229479 -0.131634)
(0.17014 -0.176196 -0.0832443)
(0.280762 -0.0273147 -0.00733494)
(0.140198 -0.000534773 -4.8511e-05)
(0.0459366 6.71632e-05 1.45086e-05)
(-0.000557067 0.000356018 0.000177494)
(-1.35562e-05 3.87886e-06 2.02191e-06)
(-9.7452e-08 1.73891e-08 8.12856e-09)
(-4.0824e-10 7.7632e-11 3.0086e-11)
(-4.20099e-12 7.70764e-13 2.305e-13)
(-3.54106e-14 5.62258e-15 1.15568e-15)
(-1.9786e-16 2.72076e-17 3.07304e-18)
(-7.05241e-19 8.75524e-20 2.52073e-21)
(-2.17839e-21 2.37076e-22 -1.0122e-23)
(-1.69755e-23 1.61473e-24 -1.64358e-25)
(-1.08145e-25 8.06409e-27 -1.17906e-27)
(-2.8602e-28 1.30317e-29 -2.4115e-30)
(0.000157311 -0.175604 -0.0539954)
(0.000150714 -0.124206 -0.051442)
(0.000242738 -0.203646 -0.0865985)
(0.000350902 -0.301334 -0.126812)
(0.000437994 -0.379773 -0.158621)
(-0.000341211 -0.458391 -0.190813)
(-0.000713411 -0.519635 -0.217336)
(0.000652373 -0.605658 -0.252941)
(0.000992689 -0.664174 -0.277417)
(0.000528671 -0.712461 -0.297843)
(0.000404101 -0.763508 -0.319152)
(0.000382998 -0.80435 -0.337049)
(0.000249536 -0.827237 -0.347612)
(0.000506065 -0.843761 -0.355964)
(0.000507096 -0.8502 -0.363936)
(-0.00392502 -0.838945 -0.375707)
(-0.0102943 -0.83902 -0.384411)
(-0.0133519 -0.856757 -0.39948)
(-0.013824 -0.880907 -0.412415)
(-0.013295 -0.904414 -0.419208)
(-0.0099083 -0.928797 -0.416131)
(-0.00551103 -0.948848 -0.40898)
(-0.0024462 -0.958193 -0.402582)
(-0.000874575 -0.957177 -0.397507)
(-0.000303753 -0.947464 -0.391912)
(-0.000684216 -0.930645 -0.384461)
(-0.00177486 -0.908544 -0.375186)
(-0.00194712 -0.882137 -0.36371)
(-0.000796766 -0.850051 -0.349951)
(0.000315234 -0.81304 -0.334579)
(0.00064454 -0.772354 -0.318177)
(0.000412854 -0.73065 -0.303054)
(0.000567518 -0.693221 -0.291095)
(0.00215206 -0.663353 -0.281583)
(0.00508988 -0.640165 -0.272703)
(0.00542072 -0.614792 -0.261781)
(0.00152069 -0.575083 -0.245759)
(-0.00340637 -0.524089 -0.2241)
(-0.0295642 -0.474137 -0.192715)
(-0.326755 -0.380655 -0.0783414)
(-0.477936 -0.207967 -0.0146175)
(-0.184083 -0.276666 -0.151707)
(-0.0272078 -0.234864 -0.169065)
(0.0995336 -0.198354 -0.138448)
(0.294433 -0.11503 -0.0712287)
(0.302501 -0.0143433 -0.00454639)
(0.175997 -0.000373518 7.09941e-05)
(0.0688801 0.000214374 0.000127951)
(-0.0026033 0.00139551 0.00089931)
(-0.000102798 2.38275e-05 1.46948e-05)
(-9.35018e-07 1.39999e-07 8.14721e-08)
(-3.60679e-09 4.96862e-10 2.69399e-10)
(-2.53038e-11 4.26773e-12 2.15147e-12)
(-2.36282e-13 3.55094e-14 1.6989e-14)
(-1.46999e-15 1.92502e-16 8.84046e-17)
(-5.72816e-18 6.79355e-19 3.01701e-19)
(-1.90966e-20 1.98051e-21 8.58793e-22)
(-1.58212e-22 1.43588e-23 6.11158e-24)
(-1.06551e-24 7.54857e-26 3.17482e-26)
(-2.94023e-27 1.28635e-28 5.35548e-29)
(0.000143953 -0.183465 -0.0341748)
(0.000144543 -0.128193 -0.0313849)
(0.000240111 -0.230985 -0.0559714)
(0.000333477 -0.334367 -0.0799268)
(0.000418979 -0.42567 -0.101869)
(0.000396074 -0.490676 -0.116346)
(0.000164339 -0.53954 -0.127149)
(9.91083e-05 -0.588638 -0.138716)
(0.000436921 -0.638342 -0.150603)
(0.000819168 -0.68708 -0.16221)
(0.000721553 -0.734644 -0.173782)
(0.000485249 -0.782845 -0.185258)
(0.000494224 -0.828856 -0.195948)
(0.000639643 -0.863372 -0.204463)
(0.000637733 -0.872536 -0.20783)
(-0.00026704 -0.870293 -0.208723)
(-0.00421181 -0.875342 -0.211437)
(-0.00919586 -0.885293 -0.215641)
(-0.0114512 -0.891969 -0.216542)
(-0.0122897 -0.898169 -0.213496)
(-0.00858171 -0.908836 -0.212983)
(-0.0042626 -0.924167 -0.216207)
(-0.00175324 -0.943554 -0.221402)
(-0.000264537 -0.958609 -0.225551)
(0.000582556 -0.95881 -0.226008)
(0.000576748 -0.940553 -0.222125)
(0.000259019 -0.909914 -0.215023)
(5.20224e-05 -0.873506 -0.206345)
(-2.65318e-05 -0.832086 -0.196883)
(0.000309344 -0.788709 -0.187198)
(0.000520158 -0.745389 -0.177113)
(0.000303816 -0.701184 -0.166462)
(0.00019561 -0.65018 -0.15405)
(0.00024952 -0.588177 -0.139256)
(0.000288239 -0.522965 -0.124448)
(0.000104625 -0.465711 -0.112394)
(-0.000163567 -0.425539 -0.102964)
(-0.00027379 -0.391904 -0.093102)
(-0.00601689 -0.353927 -0.082094)
(-0.0925574 -0.307896 -0.0682494)
(-0.243124 -0.225994 -0.0359489)
(-0.130491 -0.239812 -0.0383983)
(-0.0304666 -0.224484 -0.0692358)
(0.107641 -0.193989 -0.0764865)
(0.303348 -0.0936295 -0.0527941)
(0.300057 -0.00943996 -0.0098073)
(0.181623 -6.68192e-05 -0.000602812)
(0.07364 0.000240529 0.000173059)
(-0.00302616 0.00168841 0.000721034)
(-0.000136994 2.94663e-05 1.16824e-05)
(-1.29836e-06 1.76599e-07 6.55109e-08)
(-5.01767e-09 5.98567e-10 2.04554e-10)
(-3.18306e-11 4.66533e-12 1.47732e-12)
(-2.93657e-13 3.78917e-14 1.12863e-14)
(-1.79408e-15 1.98487e-16 5.66437e-17)
(-6.81464e-18 6.69259e-19 1.84877e-19)
(-2.182e-20 1.84958e-21 5.01292e-22)
(-1.72118e-22 1.26179e-23 3.37485e-24)
(-1.08779e-24 6.22035e-26 1.65467e-26)
(-2.80878e-27 9.84298e-29 2.60915e-29)
(-8.55279e-06 -0.152933 -0.0256412)
(2.26111e-05 -0.121681 -0.0266197)
(0.000151673 -0.334068 -0.071896)
(0.000258141 -0.567729 -0.112898)
(0.000240199 -0.702783 -0.136602)
(0.000277764 -0.809152 -0.156243)
(0.000179404 -0.899324 -0.173416)
(0.000118964 -0.992572 -0.19217)
(0.000106373 -1.07832 -0.210105)
(0.000128573 -1.15584 -0.227598)
(0.000140068 -1.23753 -0.246502)
(5.49623e-05 -1.32325 -0.264664)
(-0.000155751 -1.40785 -0.281626)
(-0.000578308 -1.4766 -0.295516)
(-0.0009266 -1.51804 -0.305001)
(-0.0020354 -1.5394 -0.307548)
(-0.0204104 -1.56543 -0.284931)
(-0.710762 -1.33789 0.711794)
(-0.189905 -1.63363 -0.10151)
(-0.0126268 -1.65365 -0.278243)
(-0.00329842 -1.69282 -0.301231)
(-0.00165507 -1.72915 -0.331588)
(-0.00104519 -1.75767 -0.354057)
(-0.000382168 -1.7688 -0.364168)
(0.000325885 -1.75336 -0.361288)
(0.000649213 -1.71177 -0.351058)
(0.000336687 -1.65112 -0.338268)
(-0.000240011 -1.57569 -0.327275)
(-0.000532799 -1.48457 -0.320192)
(-0.000120839 -1.38392 -0.298976)
(0.000350384 -1.27335 -0.274746)
(0.000331859 -1.15905 -0.240254)
(0.000325462 -1.0314 -0.20613)
(0.000636352 -0.876314 -0.168317)
(0.00101636 -0.725456 -0.126405)
(0.000618425 -0.607092 -0.082373)
(-0.00198213 -0.5162 -0.0512036)
(-0.00501527 -0.44836 -0.0404924)
(-0.0297504 -0.39779 -0.0389375)
(-0.228428 -0.308143 -0.0354824)
(-0.326274 -0.209933 -0.0161451)
(-0.175543 -0.261937 -0.000684833)
(-0.0588175 -0.260052 -0.0245698)
(0.110648 -0.21956 -0.0682673)
(0.296405 -0.0668375 -0.108213)
(0.306761 0.00460436 -0.0420695)
(0.202944 0.00168783 -0.00530346)
(0.0859329 6.95644e-05 0.000195267)
(-0.00707892 0.00184773 0.00112608)
(-0.000236894 3.97894e-05 1.42462e-05)
(-2.20505e-06 2.41481e-07 6.85743e-08)
(-8.24494e-09 7.53468e-10 1.8726e-10)
(-4.55917e-11 5.10231e-12 1.18113e-12)
(-4.04312e-13 3.94314e-14 8.77999e-15)
(-2.37514e-15 1.9604e-16 4.32931e-17)
(-8.62962e-18 6.23454e-19 1.38465e-19)
(-2.62424e-20 1.62013e-21 3.65836e-22)
(-1.96074e-22 1.03297e-23 2.37507e-24)
(-1.15999e-24 4.75331e-26 1.11329e-26)
(-2.79415e-27 6.93925e-29 1.65676e-29)
(-0.0378509 0.127247 -0.00987947)
(-0.0012329 0.131895 0.0736675)
(0.231247 0.320693 -0.0415836)
(-0.289559 0.283792 -0.329269)
(-0.360964 0.248495 -0.45711)
(-0.222361 -0.431677 -0.661998)
(-0.0488516 -0.896093 -0.571898)
(-0.0229063 -1.15628 -0.625431)
(-0.0182237 -1.38878 -0.695938)
(-0.0183855 -1.61009 -0.75476)
(-0.0240237 -1.80443 -0.785131)
(-0.0450221 -1.94831 -0.756871)
(-0.0833932 -2.06116 -0.628756)
(-0.158472 -2.17168 -0.0891236)
(-0.298663 -1.72573 1.23239)
(-0.665057 -1.4076 1.35499)
(-1.4216 -1.24938 0.968103)
(-1.50043 -1.22612 0.822903)
(-0.924878 -1.78832 0.128703)
(-0.139429 -1.96797 -0.456418)
(0.0929176 -2.01631 -0.747093)
(-0.283562 -2.15428 -0.742085)
(-0.598525 -2.25489 -0.676069)
(-0.0937606 -2.24965 -0.922659)
(0.440842 -1.5485 -1.78586)
(0.328221 -1.65662 -1.63917)
(-0.375514 -2.12076 -0.843899)
(-1.78489 -1.75429 -0.528372)
(-2.23864 -1.38857 -0.312959)
(0.212453 -1.9583 -0.0491458)
(1.14184 -0.9543 -1.29744)
(0.843121 -1.06503 -1.04768)
(0.0874173 -1.07195 -0.890003)
(-0.0657349 -1.11573 -0.450177)
(0.0546525 -0.961595 -0.258763)
(0.0644205 -0.76324 -0.221556)
(0.0222994 -0.615636 -0.163706)
(-0.0340184 -0.541629 -0.0353717)
(-0.591335 -0.0121666 0.124649)
(-0.612823 0.0803352 0.0230124)
(-0.588843 -0.15681 -0.0252548)
(-0.262419 -0.387732 -0.0463596)
(-0.0942863 -0.379288 -0.045725)
(0.0516978 -0.3175 -0.0851162)
(0.261345 -0.178487 -0.118942)
(0.347091 -0.00935674 -0.0288571)
(0.224777 0.000715464 -0.00167594)
(0.0927538 3.12972e-05 2.82193e-05)
(-0.0134152 0.00152956 0.000835397)
(-0.000336596 3.41286e-05 1.30226e-05)
(-2.17739e-06 1.69394e-07 5.59563e-08)
(-6.70582e-09 4.41045e-10 1.37755e-10)
(-3.80381e-11 2.77288e-12 8.55011e-13)
(-3.0457e-13 1.79328e-14 5.48428e-15)
(-1.58431e-15 7.46605e-17 2.317e-17)
(-5.09387e-18 1.9896e-19 6.32922e-20)
(-1.36012e-20 4.34911e-22 1.43163e-22)
(-8.93242e-23 2.3163e-24 7.89581e-25)
(-4.57125e-25 8.90869e-27 3.12768e-27)
(-9.51312e-28 1.05536e-29 3.8468e-30)
(-0.00843377 0.146121 0.0548936)
(-0.0524239 0.0225426 0.271584)
(-0.132834 -0.00243781 -0.399125)
(-0.305247 0.204766 -0.370039)
(-0.52376 0.504714 -0.0678831)
(-0.285964 -0.552372 0.693219)
(-0.0435008 -1.00606 0.62577)
(-0.0207477 -1.2585 0.705221)
(-0.00578948 -1.48422 0.800237)
(0.00321459 -1.73162 0.809322)
(-0.00820296 -1.95579 0.736045)
(-0.0307334 -2.10061 0.626654)
(-0.011684 -2.20419 0.438707)
(-0.0030787 -2.24916 0.227875)
(-0.723771 -2.15029 -0.145857)
(-2.23234 -1.38944 0.00848599)
(-2.02802 -0.403516 1.15707)
(-0.195779 -1.88365 -0.226244)
(-0.273502 -1.66021 0.925495)
(-0.304889 -1.62178 1.12996)
(-0.077861 -1.8056 1.09694)
(0.12837 -1.97143 1.0486)
(-0.162015 -1.96139 1.19902)
(-1.27213 -1.70065 1.27911)
(-1.45937 -1.51103 1.33915)
(1.82746 -1.6913 0.668419)
(1.3688 -1.88227 0.420864)
(0.140045 -1.8948 0.816445)
(0.00412482 -1.21961 1.51299)
(-0.748417 -1.20091 1.28664)
(-1.08745 -0.910444 1.19746)
(-0.302319 -1.50342 -0.0609584)
(0.675649 -1.18549 -0.374674)
(0.544105 -1.08035 0.0412724)
(0.108859 -0.938563 0.156939)
(-0.00340382 -0.766743 0.110138)
(0.0233924 -0.629912 0.0468311)
(-0.0290197 -0.535716 -0.117023)
(-0.475333 0.158781 -0.304419)
(-0.696467 0.108283 -0.0950054)
(-0.662204 -0.23197 -0.0141475)
(-0.269354 -0.457509 0.0450864)
(-0.0936276 -0.418139 0.0821232)
(0.0471343 -0.331195 0.122254)
(0.239725 -0.179868 0.154513)
(0.348787 -0.00966502 0.0370589)
(0.225558 0.000787639 0.00186991)
(0.0926111 3.1324e-05 -3.34033e-05)
(-0.013047 0.00157497 -0.00104701)
(-0.000325794 3.41649e-05 -1.71078e-05)
(-2.11833e-06 1.69227e-07 -7.46177e-08)
(-6.54775e-09 4.42074e-10 -1.82166e-10)
(-3.73673e-11 2.79433e-12 -1.11123e-12)
(-3.00048e-13 1.81395e-14 -6.96696e-15)
(-1.56444e-15 7.57988e-17 -2.87009e-17)
(-5.0396e-18 2.02757e-19 -7.63841e-20)
(-1.34865e-20 4.44798e-22 -1.68569e-22)
(-8.88485e-23 2.37719e-24 -9.0874e-25)
(-4.56417e-25 9.16863e-27 -3.54047e-27)
(-9.53833e-28 1.08973e-29 -4.26942e-30)
(-2.30665e-05 -0.165554 0.028955)
(-7.73585e-05 -0.174318 0.0387025)
(-0.000306947 -0.42718 0.0919505)
(0.000928736 -0.638328 0.128907)
(0.00157282 -0.797862 0.150867)
(0.000207705 -0.968061 0.180274)
(-0.000103505 -1.11689 0.205986)
(-0.000274562 -1.23139 0.227051)
(-0.000748223 -1.31132 0.242448)
(-0.00113161 -1.36875 0.253691)
(-0.000967802 -1.41921 0.262566)
(-0.000716585 -1.46712 0.269267)
(-0.000472934 -1.50635 0.273968)
(-0.000103307 -1.52898 0.276329)
(0.000208203 -1.52324 0.279532)
(0.000733442 -1.48408 0.281683)
(-0.0512242 -1.42052 0.329641)
(-0.970304 0.810169 -0.885672)
(-0.148855 1.07184 -0.820587)
(-0.0159172 -1.2631 0.517206)
(-0.00669387 -1.36445 0.303671)
(-0.0028693 -1.41564 0.270792)
(-0.0017317 -1.46292 0.258999)
(-0.00196776 -1.49453 0.240323)
(-0.00219147 -1.49137 0.266604)
(-0.00188596 -1.46166 0.277467)
(-0.0015651 -1.42012 0.269908)
(-0.00153437 -1.3705 0.260846)
(-0.00182584 -1.31046 0.248709)
(-0.00207448 -1.23872 0.233912)
(-0.00314724 -1.14797 0.221641)
(-0.00309305 -1.04043 0.171915)
(0.000116983 -0.909673 0.136563)
(0.00260687 -0.771266 0.115068)
(0.00273622 -0.644618 0.100344)
(0.000729294 -0.541506 0.083409)
(-0.00370261 -0.463057 0.0670473)
(-0.0109039 -0.410971 0.0562534)
(-0.0573693 -0.37952 0.0596072)
(-0.303969 -0.279029 0.0546372)