/*--------------------------------*- C++ -*----------------------------------*\
| =========                 |                                                 |
| \\      /  F ield         | OpenFOAM: The Open Source CFD Toolbox           |
|  \\    /   O peration     | Version:  2.1.1                                 |
|   \\  /    A nd           | Web:      www.OpenFOAM.org                      |
|    \\/     M anipulation  |                                                 |
\*---------------------------------------------------------------------------*/
FoamFile
{
    version     2.0;
    format      ascii;
    class       volVectorField;
    location    "0.001";
    object      gradAlphaUSE;
}
// * * * * * * * * * * * * * * * * * * * * * * * * * * * * * * * * * * * * * //

dimensions      [0 0 0 0 0 0 0];

internalField   nonuniform List<vector> 
36520
(
(-3.91817e-05 3.15231e-05 0.00024653)
(-3.64821e-05 4.51106e-05 0.000240764)
(5.67707e-06 6.80451e-05 0.000310708)
(7.14057e-06 9.03897e-05 0.000384552)
(9.00792e-06 0.000121123 0.00048373)
(1.06038e-05 0.000155077 0.000575599)
(1.15546e-05 0.000192397 0.000662652)
(1.15384e-05 0.000228465 0.000726543)
(1.05937e-05 0.000262846 0.000774087)
(9.1201e-06 0.000290793 0.000803314)
(7.95428e-06 0.000315256 0.000828508)
(7.69297e-06 0.000335667 0.000856274)
(8.95552e-06 0.000358117 0.000896561)
(1.13733e-05 0.000384647 0.000952258)
(1.46538e-05 0.000417598 0.00102029)
(1.87224e-05 0.000457141 0.00110841)
(2.42581e-05 0.000505534 0.00122433)
(3.24153e-05 0.000568896 0.00139018)
(4.43421e-05 0.000657408 0.00162392)
(6.0534e-05 0.000783703 0.00194691)
(8.07442e-05 0.000957911 0.00236489)
(0.000104074 0.00118608 0.00287755)
(0.000129088 0.0014685 0.00346729)
(0.000154158 0.00180116 0.00410219)
(0.000177116 0.00217727 0.00473089)
(0.000193997 0.00258676 0.00529677)
(0.000198722 0.00301122 0.00573376)
(0.000185323 0.00342246 0.00596799)
(0.000152009 0.00378321 0.00592527)
(0.000103648 0.00405076 0.00554684)
(5.32911e-05 0.00417941 0.00477905)
(2.48006e-05 0.00414884 0.00362202)
(5.60159e-05 0.00403163 0.00220603)
(0.000194341 0.00406373 0.000850918)
(0.000460442 0.00460134 -0.000115787)
(0.000811942 0.00587842 -0.000706242)
(0.00116497 0.00782737 -0.0012822)
(0.0014429 0.010155 -0.00231084)
(0.0015661 0.0125092 -0.00406339)
(0.00139475 0.0145673 -0.0062698)
(0.00079264 0.0160569 -0.00836177)
(-0.000206569 0.0172328 -0.00962089)
(-0.00134652 0.0174284 -0.00944793)
(-0.0025992 0.0152061 -0.00733065)
(-0.00343774 0.00810176 0.00897297)
(-0.00196929 0.00195857 0.00454205)
(-0.000170667 8.44718e-06 3.4621e-05)
(-1.03966e-06 3.21879e-07 1.55512e-06)
(-2.49807e-08 3.22071e-09 1.66196e-08)
(-1.6304e-10 2.28767e-11 1.13493e-10)
(-7.76443e-13 1.49e-13 6.26439e-13)
(-3.30785e-15 8.70265e-16 2.94724e-15)
(-1.28383e-17 3.94002e-18 1.20589e-17)
(-4.66996e-20 1.27861e-20 3.42761e-20)
(-1.23906e-22 2.98051e-23 7.04736e-23)
(-2.39402e-25 4.90779e-26 9.89691e-26)
(-3.19627e-28 5.60699e-29 9.91238e-29)
(-3.00184e-31 4.23049e-32 6.16814e-32)
(-1.7995e-34 1.93736e-35 2.56253e-35)
(-6.87287e-38 4.02522e-39 4.08463e-39)
(-4.20053e-05 0.000347872 0.000808962)
(-5.94412e-06 0.000550393 0.000883275)
(7.42417e-05 0.000746774 0.00105945)
(8.96346e-05 0.00097322 0.00122207)
(0.000100067 0.00121404 0.00141906)
(9.58537e-05 0.00144097 0.00154259)
(8.34417e-05 0.00164217 0.0016167)
(6.45749e-05 0.00179243 0.00159521)
(4.71008e-05 0.00190188 0.0015234)
(3.49781e-05 0.00197249 0.00140733)
(3.3126e-05 0.00204053 0.00128074)
(4.00694e-05 0.00211214 0.00115804)
(5.46506e-05 0.00221486 0.00104349)
(7.02917e-05 0.0023406 0.000937635)
(8.90259e-05 0.0024913 0.000833449)
(0.00011592 0.00267975 0.000745942)
(0.000158508 0.00294266 0.000685242)
(0.00022282 0.00333993 0.000665949)
(0.000309605 0.00392684 0.000684388)
(0.000413485 0.00475411 0.00073585)
(0.000523864 0.00583567 0.000807207)
(0.00062871 0.00715939 0.000880673)
(0.000711536 0.00868001 0.000930651)
(0.00075465 0.0103339 0.00093576)
(0.00074417 0.0120566 0.000880582)
(0.000669214 0.0138054 0.00075432)
(0.000515702 0.0154914 0.000557327)
(0.000274165 0.0169502 0.000339424)
(-4.96331e-05 0.0179759 -0.000112213)
(-0.00044085 0.0183767 -0.000697541)
(-0.000858627 0.017938 -0.00138011)
(-0.00119253 0.0167524 -0.00203336)
(-0.00125434 0.0154843 -0.00239228)
(-0.00090473 0.015266 -0.00248359)
(-0.000281641 0.016932 -0.00283532)
(0.000246475 0.0204109 -0.00356986)
(0.000384492 0.0240225 -0.00468736)
(0.000102257 0.0251766 -0.00607885)
(-0.000334976 0.0223538 -0.00761243)
(-0.000671151 0.0174408 -0.00912843)
(-0.000318797 -0.114703 -0.620628)
(-0.000142308 -0.155425 -0.811863)
(-4.766e-05 -0.164026 -0.84416)
(0.00146521 -0.14588 -0.751622)
(0.0021666 -0.00881429 -0.0441088)
(-0.00609573 0.0249553 0.0175472)
(-0.00234086 0.000127051 0.000248292)
(-1.75431e-05 8.78294e-06 2.0719e-05)
(-7.66513e-07 1.5162e-07 3.74007e-07)
(-8.08802e-09 1.55824e-09 3.66107e-09)
(-5.48927e-11 1.33039e-11 2.62622e-11)
(-3.01974e-13 9.05363e-14 1.55013e-13)
(-1.41774e-15 4.42648e-16 6.63914e-16)
(-5.79445e-18 1.54665e-18 1.9739e-18)
(-1.64589e-20 3.86888e-21 4.17049e-21)
(-3.38201e-23 6.79268e-24 5.99578e-24)
(-4.74687e-26 8.33014e-27 6.07525e-27)
(-4.75137e-29 6.63402e-30 3.81616e-30)
(-2.95499e-32 3.29949e-33 1.58279e-33)
(-1.22661e-35 6.80567e-37 2.49745e-37)
(-9.89321e-07 0.00119069 0.00134292)
(8.76488e-05 0.00163089 0.00111513)
(0.000171574 0.00213673 0.00107094)
(0.000183511 0.00265269 0.000966303)
(0.000166904 0.00308208 0.00085231)
(0.000109909 0.00337347 0.000657514)
(4.12626e-05 0.00356011 0.00043579)
(-2.89959e-05 0.0035846 0.000191485)
(-7.57638e-05 0.00353932 -5.32393e-05)
(-0.000103706 0.0034494 -0.000292891)
(-0.000107984 0.00339425 -0.000541804)
(-0.000102058 0.00338943 -0.000815539)
(-9.20702e-05 0.00345569 -0.00110353)
(-8.4093e-05 0.00360586 -0.00132397)
(-7.13163e-05 0.00384316 -0.00142121)
(-4.52428e-05 0.00415828 -0.00154777)
(-4.75585e-06 0.0046002 -0.00171549)
(4.50239e-05 0.00524645 -0.00195351)
(9.60007e-05 0.00612192 -0.00228439)
(0.000143644 0.00721109 -0.00273204)
(0.000180705 0.00838942 -0.00329714)
(0.000199624 0.00948476 -0.00397081)
(0.000196573 0.0103024 -0.00472468)
(0.00017439 0.0107533 -0.00552263)
(0.000136073 0.0109246 -0.00632002)
(8.46904e-05 0.0110374 -0.00707316)
(4.10149e-05 0.00854012 -0.0172276)
(-8.25675e-05 -0.05059 -0.225936)
(-0.000208848 -0.0911244 -0.368637)
(-0.000265722 -0.12129 -0.474481)
(-0.000268147 -0.144406 -0.555161)
(-0.000188237 -0.161311 -0.61421)
(-6.45353e-05 -0.175562 -0.664729)
(-9.40716e-06 -0.190156 -0.717394)
(-1.01645e-05 -0.206302 -0.776314)
(-1.09749e-05 -0.223403 -0.838652)
(-1.17018e-05 -0.239839 -0.895624)
(-1.22258e-05 -0.251703 -0.935177)
(-1.24334e-05 -0.257838 -0.954603)
(-0.00296272 -0.260259 -0.961684)
(-0.00329418 -0.260298 -0.96399)
(-0.00188382 -0.274815 -0.960551)
(0.000590151 -0.287862 -0.956772)
(0.00353748 -0.302873 -0.951712)
(0.00586855 -0.312654 -0.945797)
(0.00319872 -0.196605 -0.816902)
(-0.00897931 0.000865334 0.000664351)
(-0.000120031 9.20994e-05 0.000148202)
(-9.92201e-06 3.0449e-06 5.09254e-06)
(-1.78749e-07 4.63843e-08 7.4926e-08)
(-1.75004e-09 5.15688e-10 7.51748e-10)
(-1.25817e-11 3.93678e-12 5.1903e-12)
(-7.44279e-14 2.07511e-14 2.43786e-14)
(-3.1954e-16 7.68928e-17 7.82891e-17)
(-9.53274e-19 2.00831e-19 1.74612e-19)
(-2.02258e-21 3.65517e-22 2.63249e-22)
(-2.92519e-24 4.6093e-25 2.74391e-25)
(-2.98446e-27 3.76484e-28 1.77276e-28)
(-1.89456e-30 1.90945e-31 7.39393e-32)
(-7.93441e-34 4.04218e-35 1.17469e-35)
(-0.000133252 0.00171122 0.000846651)
(-0.000100749 0.002598 0.000243075)
(3.91593e-05 0.00318508 -0.000280344)
(1.86153e-05 0.00359188 -0.00085887)
(-2.16238e-05 0.0037645 -0.00148225)
(-8.47796e-05 0.00369416 -0.00196901)
(-0.000129689 0.0036026 -0.00204797)
(-0.000167228 0.00336848 -0.00201773)
(-0.000186353 0.00311706 -0.00193536)
(-0.000200577 0.00288645 -0.00180919)
(-0.000215214 0.00272142 -0.00167856)
(-0.000222126 0.00259883 -0.00212753)
(-0.000176716 0.000806931 -0.00845933)
(-6.61102e-05 -0.00507617 -0.0279661)
(-4.95191e-07 -0.014124 -0.0582181)
(-7.73503e-07 -0.0267968 -0.101113)
(-1.22695e-06 -0.0473142 -0.169964)
(-1.92259e-06 -0.0790957 -0.275109)
(-2.87423e-06 -0.123634 -0.419572)
(-3.92652e-06 -0.174718 -0.581294)
(-4.81754e-06 -0.219922 -0.720561)
(-5.42055e-06 -0.25139 -0.815353)
(-5.78248e-06 -0.270867 -0.872649)
(-5.98357e-06 -0.281941 -0.904647)
(-6.09109e-06 -0.287831 -0.921731)
(-0.00011803 -0.291026 -0.931366)
(-0.00244073 -0.292802 -0.937354)
(-0.00389755 -0.292652 -0.941299)
(-0.00374402 -0.291575 -0.943571)
(-0.00385211 -0.289715 -0.945139)
(-0.00385556 -0.287412 -0.946565)
(-0.00397851 -0.284888 -0.947988)
(-0.00499953 -0.281838 -0.949484)
(-0.00752249 -0.278591 -0.951307)
(-0.0121959 -0.276305 -0.953487)
(-0.0205182 -0.280933 -0.954107)
(-0.0334128 -0.292426 -0.952538)
(-0.0481122 -0.311282 -0.947634)
(-0.0572107 -0.339439 -0.938325)
(-0.0496247 -0.375908 -0.925127)
(-0.0286885 -0.425712 -0.90432)
(-0.0103036 -0.489367 -0.871963)
(0.00609253 -0.532307 -0.846478)
(0.0211819 -0.602672 -0.797643)
(0.0363677 -0.690875 -0.721919)
(0.11529 -0.674172 -0.72817)
(0.707111 -0.0031303 -0.015408)
(-0.000355458 0.000504506 0.000633585)
(-7.2697e-05 3.72342e-05 4.91268e-05)
(-2.47745e-06 8.8574e-07 1.13607e-06)
(-3.64505e-08 1.21315e-08 1.47362e-08)
(-3.67263e-10 1.07174e-10 1.19885e-10)
(-2.54823e-12 6.33821e-13 6.39512e-13)
(-1.20469e-14 2.58674e-15 2.28943e-15)
(-3.90417e-17 7.30709e-18 5.56136e-18)
(-8.80941e-20 1.42691e-20 9.06132e-21)
(-1.3499e-22 1.90675e-23 1.00069e-23)
(-1.43482e-25 1.65074e-26 6.87205e-27)
(-9.54352e-29 8.75102e-30 2.96926e-30)
(-4.0978e-32 1.98086e-33 4.82686e-34)
(-0.000242402 0.00190775 -0.000523552)
(-0.000370677 0.00272896 -0.00131603)
(-0.000297143 0.00318502 -0.0018731)
(-0.000353151 0.00277979 -0.00402336)
(-0.000349297 0.00204971 -0.00830759)
(-0.000164036 0.00116067 -0.0166287)
(-1.89722e-07 -0.000641162 -0.0336658)
(-1.71571e-07 -0.00361356 -0.0632349)
(-1.58154e-07 -0.00704543 -0.104825)
(-1.51867e-07 -0.0125145 -0.16142)
(-0.00020945 -0.0226761 -0.233417)
(-0.00230236 -0.0393816 -0.31705)
(-0.00744563 -0.0656084 -0.41481)
(-0.0120486 -0.0976696 -0.520459)
(-0.0145142 -0.132173 -0.625868)
(-0.0172893 -0.17225 -0.729497)
(-0.0197813 -0.214595 -0.820301)
(-0.0218126 -0.248316 -0.880788)
(-0.0233744 -0.271948 -0.915454)
(-0.0230765 -0.287908 -0.934181)
(-0.0212044 -0.297441 -0.943098)
(-0.0195073 -0.302731 -0.946921)
(-0.017655 -0.305797 -0.948616)
(-0.015658 -0.307276 -0.94943)
(-0.0139657 -0.307832 -0.949889)
(-0.012831 -0.30784 -0.950238)
(-0.0113707 -0.307908 -0.950442)
(-0.00861017 -0.307988 -0.95056)
(-0.00555399 -0.308232 -0.950554)
(-0.00384468 -0.309011 -0.950339)
(-0.00370664 -0.310264 -0.949906)
(-0.00391612 -0.311463 -0.949488)
(-0.00519828 -0.312828 -0.949058)
(-0.0104009 -0.314734 -0.948424)
(-0.0219646 -0.319026 -0.946844)
(-0.0427705 -0.329255 -0.942753)
(-0.0745435 -0.348314 -0.934075)
(-0.113944 -0.376322 -0.91928)
(-0.141085 -0.410585 -0.900766)
(-0.119951 -0.455359 -0.882163)
(-0.0640913 -0.537335 -0.840918)
(-0.0224534 -0.620756 -0.783675)
(0.006388 -0.672453 -0.740106)
(0.0274292 -0.732261 -0.680465)
(0.0503236 -0.778526 -0.625581)
(0.171787 -0.769846 -0.614599)
(0.99606 -0.0376627 -0.0339331)
(0.0241781 0.0019103 0.00175784)
(-0.000326329 0.000327023 0.000357573)
(-2.47041e-05 1.10193e-05 1.18824e-05)
(-5.70577e-07 1.8948e-07 1.94842e-07)
(-7.42546e-09 1.99925e-09 1.9046e-09)
(-6.08156e-11 1.36886e-11 1.17974e-11)
(-3.27482e-13 6.34057e-14 4.80298e-14)
(-1.1882e-15 1.99546e-16 1.29528e-16)
(-2.93751e-18 4.30298e-19 2.31981e-19)
(-4.9046e-21 6.26475e-22 2.75377e-22)
(-5.5824e-24 5.91057e-25 2.03134e-25)
(-4.00484e-27 3.36369e-28 9.15624e-29)
(-1.81133e-30 8.37195e-32 1.55846e-32)
(-0.000454743 0.00154466 -0.00202406)
(-0.000649071 -0.000597281 -0.0126024)
(-0.00117076 -0.000713756 -0.0457909)
(-0.00271834 0.00146276 -0.126689)
(-0.00431005 -0.0159997 -0.313024)
(-0.005634 -0.0657259 -0.562151)
(-0.0090926 -0.0391194 -0.631922)
(-0.00929721 -0.0849432 -0.764223)
(-0.00920732 -0.119838 -0.840704)
(-0.00898883 -0.150689 -0.88913)
(-0.00853608 -0.178653 -0.918653)
(-0.00865554 -0.200538 -0.935351)
(-0.0092316 -0.218691 -0.945318)
(-0.0102549 -0.232225 -0.951336)
(-0.012938 -0.241666 -0.95507)
(-0.0180039 -0.251274 -0.957286)
(-0.0235455 -0.261691 -0.958158)
(-0.0297316 -0.271014 -0.957895)
(-0.0386567 -0.279718 -0.956687)
(-0.0485371 -0.288621 -0.954635)
(-0.0571754 -0.29677 -0.952247)
(-0.0705941 -0.303803 -0.949401)
(-0.0853982 -0.308703 -0.946732)
(-0.0929269 -0.313753 -0.944426)
(-0.0845781 -0.318904 -0.943559)
(-0.0697018 -0.323987 -0.943123)
(-0.0507038 -0.333628 -0.941038)
(-0.0286022 -0.346529 -0.937348)
(-0.0153962 -0.361294 -0.932086)
(-0.000807368 -0.369485 -0.929032)
(0.00760818 -0.363682 -0.931308)
(-6.37318e-05 -0.363861 -0.931256)
(-0.010828 -0.360648 -0.932443)
(-0.0151013 -0.350711 -0.936191)
(-0.0311119 -0.340968 -0.939426)
(-0.0629978 -0.334518 -0.940188)
(-0.091161 -0.338988 -0.936311)
(-0.110225 -0.357911 -0.927204)
(-0.13235 -0.37918 -0.915799)
(-0.149595 -0.422981 -0.8937)
(-0.0932743 -0.508094 -0.856234)
(-0.0390977 -0.597946 -0.800581)
(-0.00754413 -0.685786 -0.727763)
(0.0214319 -0.728436 -0.684778)
(0.0740483 -0.75036 -0.656867)
(0.377203 -0.744765 -0.550479)
(0.998771 -0.0421833 -0.0198686)
(0.872519 0.00125153 0.000787884)
(-0.00101462 0.00225665 0.00200969)
(-0.000188618 9.82091e-05 8.67658e-05)
(-6.23903e-06 2.08492e-06 1.75104e-06)
(-1.02681e-07 2.64025e-08 2.04408e-08)
(-1.01214e-09 2.12413e-10 1.47682e-10)
(-6.34782e-12 1.13693e-12 6.8879e-13)
(-2.63123e-14 4.06793e-15 2.08546e-15)
(-7.27152e-17 9.87475e-18 4.14059e-18)
(-1.34726e-19 1.59617e-20 5.33077e-21)
(-1.67069e-22 1.66857e-23 4.24256e-24)
(-1.31201e-25 1.03528e-26 1.99811e-27)
(-6.34469e-29 2.86538e-30 3.63595e-31)
(-0.00557844 0.00149191 -0.00732548)
(-0.0218931 0.0175155 -0.0626096)
(-0.0380488 0.0311861 -0.430468)
(-0.0208349 -0.118773 -0.890647)
(-0.0150771 -0.170598 -0.95869)
(-0.0113945 -0.1546 -0.969701)
(-0.0210127 -0.0962281 -0.974145)
(-0.027782 -0.103139 -0.979781)
(-0.0240841 -0.138518 -0.981608)
(-0.0230141 -0.162302 -0.981143)
(-0.0214477 -0.182096 -0.97956)
(-0.0215869 -0.193875 -0.978278)
(-0.0237184 -0.202529 -0.977008)
(-0.0258192 -0.212659 -0.975181)
(-0.0308068 -0.226346 -0.972258)
(-0.0416784 -0.238742 -0.969159)
(-0.055142 -0.25319 -0.965037)
(-0.0712696 -0.271048 -0.959288)
(-0.0962538 -0.292755 -0.950822)
(-0.122587 -0.322184 -0.938293)
(-0.126191 -0.359202 -0.924333)
(-0.10412 -0.403731 -0.908607)
(-0.0708573 -0.453816 -0.88797)
(-0.0625986 -0.501348 -0.862706)
(-0.0787426 -0.51605 -0.852703)
(-0.087125 -0.499381 -0.861805)
(-0.0861196 -0.419115 -0.903685)
(-0.0568058 -0.392028 -0.918064)
(-0.0520686 -0.546996 -0.835392)
(-0.050071 -0.725505 -0.68628)
(-0.00650307 -0.712472 -0.701561)
(0.0131068 -0.728207 -0.685117)
(-0.0402954 -0.684539 -0.727724)
(-0.145691 -0.594643 -0.790525)
(-0.304792 -0.509535 -0.804505)
(-0.634419 -0.33648 -0.69576)
(-0.919443 -0.10368 -0.379163)
(-0.934144 -0.0626038 -0.351304)
(-0.817026 -0.175185 -0.549329)
(-0.392727 -0.397125 -0.82949)
(-0.112779 -0.432635 -0.894487)
(-0.0518808 -0.557922 -0.82827)
(-0.0195273 -0.732309 -0.680692)
(0.0254228 -0.760661 -0.648651)
(0.154378 -0.799016 -0.581154)
(0.822004 -0.496174 -0.279491)
(0.999719 -0.0214995 -0.00725373)
(0.988906 0.00183415 0.000782199)
(-0.00384902 0.014558 0.00895096)
(-0.00114524 0.000677534 0.000434652)
(-4.90444e-05 1.67026e-05 1.01755e-05)
(-9.94437e-07 2.48509e-07 1.37452e-07)
(-1.17463e-08 2.34603e-09 1.1385e-09)
(-8.64182e-11 1.46241e-11 6.0073e-12)
(-4.1379e-13 6.0312e-14 2.01711e-14)
(-1.29918e-15 1.6731e-16 4.34976e-17)
(-2.71309e-18 3.05402e-19 5.87619e-20)
(-3.73472e-21 3.59419e-22 4.73012e-23)
(-3.26884e-24 2.47497e-25 2.07967e-26)
(-1.7249e-27 7.71202e-29 2.90412e-30)
(-0.030702 0.00246236 -0.000406558)
(-0.281652 0.0737519 0.00380221)
(-0.800765 0.206746 -0.00178575)
(-0.913299 0.268007 -0.0225249)
(-0.822674 0.500369 -0.0721306)
(-0.168612 0.949561 -0.0818165)
(-0.0067135 -0.0533217 -0.997644)
(-0.0201465 -0.120542 -0.99196)
(-0.0527317 -0.0550307 -0.996251)
(-0.0668162 -0.0379822 -0.996293)
(-0.0588008 -0.0477518 -0.9966)
(-0.0510588 -0.0496942 -0.997016)
(-0.0453 -0.0508209 -0.997301)
(-0.0476668 -0.0497789 -0.997283)
(-0.0623606 -0.0434963 -0.99677)
(-0.0815774 -0.0536743 -0.994896)
(-0.0884156 -0.0875422 -0.991954)
(-0.0847042 -0.127313 -0.988022)
(-0.078099 -0.164797 -0.983059)
(-0.0636106 -0.194231 -0.978756)
(-0.0409733 -0.211463 -0.976423)
(-0.0279605 -0.211055 -0.976997)
(-0.0295264 -0.197409 -0.979818)
(-0.0380219 -0.191647 -0.98068)
(-0.0463185 -0.187228 -0.981182)
(-0.0464576 -0.159101 -0.986131)
(-0.0379147 -0.145749 -0.988562)
(-0.0312629 -0.146171 -0.988739)
(-0.029766 -0.141164 -0.989515)
(-0.0181955 -0.13385 -0.990812)
(0.00302834 -0.127066 -0.991868)
(0.0255694 -0.119114 -0.99253)
(0.0314555 -0.111351 -0.993262)
(0.0141777 -0.107226 -0.994112)
(0.00155358 -0.125297 -0.992092)
(-0.00852026 -0.209325 -0.977764)
(-0.626529 -0.490392 -0.605603)
(-0.92468 -0.0314547 0.379367)
(-0.971259 0.0561833 0.231281)
(-0.99961 0.00968478 0.0261658)
(-0.890491 -0.234014 -0.390209)
(-0.166234 -0.675527 -0.718352)
(-0.00787338 -0.821234 -0.570538)
(0.0915447 -0.863197 -0.496498)
(0.433259 -0.817595 -0.379243)
(0.982745 -0.178905 -0.0469432)
(0.999964 -0.00704099 -0.000626714)
(0.995854 0.0026542 0.00056258)
(-0.048279 0.0559176 0.0273126)
(-0.00611353 0.00315793 0.00160972)
(-0.000289073 9.1296e-05 4.16939e-05)
(-6.81389e-06 1.59196e-06 6.10336e-07)
(-9.40479e-08 1.76738e-08 5.25294e-09)
(-8.05869e-10 1.29275e-10 2.64551e-11)
(-4.46627e-12 6.22269e-13 7.00039e-14)
(-1.6073e-14 2.00175e-15 5.74779e-17)
(-3.82443e-17 4.19786e-18 -1.78767e-19)
(-5.93062e-20 5.65486e-21 -5.7453e-22)
(-5.86712e-23 4.40718e-24 -6.43153e-25)
(-3.43971e-26 1.56695e-27 -2.89507e-28)
(0.000730806 -0.92073 -0.390182)
(0.000730858 -0.9208 -0.389979)
(0.000730943 -0.920893 -0.389789)
(0.00073103 -0.920987 -0.389582)
(0.000731118 -0.921089 -0.389347)
(-0.000472834 -0.921184 -0.389123)
(-0.00087224 -0.92116 -0.38918)
(0.000679192 -0.920841 -0.389934)
(0.000938789 -0.920716 -0.390231)
(0.00046474 -0.920885 -0.389832)
(0.000330411 -0.92107 -0.389394)
(0.000298085 -0.9208 -0.390033)
(0.00019014 -0.920358 -0.391073)
(0.000380075 -0.919747 -0.392507)
(0.000379673 -0.917496 -0.397736)
(-0.00298673 -0.910571 -0.41332)
(-0.0078771 -0.906817 -0.421428)
(-0.010025 -0.903778 -0.427864)
(-0.0101068 -0.902681 -0.430177)
(-0.00947957 -0.903818 -0.427802)
(-0.0068899 -0.908732 -0.417317)
(-0.00374912 -0.913972 -0.405756)
(-0.00164367 -0.917137 -0.398568)
(-0.000585658 -0.918484 -0.395457)
(-0.000204469 -0.918932 -0.394415)
(-0.000466636 -0.919071 -0.39409)
(-0.00123432 -0.918997 -0.394261)
(-0.00138988 -0.918975 -0.394312)
(-0.000588051 -0.918892 -0.394508)
(0.000242185 -0.918653 -0.395065)
(0.000519666 -0.918309 -0.395864)
(0.000351555 -0.91765 -0.397387)
(0.000509683 -0.916601 -0.399802)
(0.00202489 -0.915588 -0.402112)
(0.00499929 -0.91512 -0.40315)
(0.00562484 -0.914795 -0.403879)
(0.00171982 -0.91398 -0.405754)
(-0.00431996 -0.913911 -0.405891)
(-0.042196 -0.920657 -0.388083)
(-0.521041 -0.834788 -0.177888)
(-0.851621 -0.522784 -0.0379216)
(-0.368567 -0.809687 -0.456691)
(-0.060645 -0.8043 -0.591121)
(0.242314 -0.795241 -0.555766)
(0.776297 -0.54023 -0.32483)
(0.995746 -0.0881958 -0.0266604)
(0.999982 -0.00395123 0.000722764)
(0.994629 0.00570735 0.00329818)
(-0.13129 0.128897 0.0805979)
(-0.0241619 0.0102119 0.00611167)
(-0.00132661 0.000359475 0.000202973)
(-3.54221e-05 7.46549e-06 3.96611e-06)
(-5.55208e-07 9.72942e-08 4.87716e-08)
(-5.37225e-09 8.16679e-10 3.89258e-10)
(-3.31663e-11 4.40374e-12 2.01503e-12)
(-1.30541e-13 1.55378e-14 6.88403e-15)
(-3.35296e-16 3.50836e-17 1.51767e-17)
(-5.52912e-19 5.03108e-20 2.13793e-20)
(-5.78137e-22 4.12692e-23 1.73269e-23)
(-3.53632e-25 1.54701e-26 6.43207e-27)
(0.000674942 -0.973609 -0.228209)
(0.000674929 -0.973446 -0.228906)
(0.000674885 -0.973326 -0.22942)
(0.000674855 -0.973215 -0.22989)
(0.000674883 -0.973078 -0.230469)
(0.000554101 -0.972936 -0.231069)
(0.000208741 -0.972936 -0.231072)
(0.000114718 -0.972826 -0.231534)
(0.000463839 -0.972608 -0.232449)
(0.000803552 -0.972445 -0.233131)
(0.00065671 -0.972315 -0.233673)
(0.000412431 -0.972188 -0.234201)
(0.000397191 -0.972057 -0.234741)
(0.000496237 -0.971896 -0.23541)
(0.000495133 -0.971648 -0.236431)
(-0.000211367 -0.971337 -0.237701)
(-0.00337243 -0.970801 -0.239855)
(-0.00737171 -0.970063 -0.242731)
(-0.00917795 -0.969977 -0.243012)
(-0.00980604 -0.970914 -0.239222)
(-0.00674097 -0.971528 -0.236827)
(-0.00326789 -0.971492 -0.23705)
(-0.00130538 -0.971252 -0.238049)
(-0.000192351 -0.971073 -0.238783)
(0.000421022 -0.970996 -0.239094)
(0.000422901 -0.970982 -0.239152)
(0.00019533 -0.971052 -0.238866)
(4.0682e-05 -0.971175 -0.238366)
(-2.16896e-05 -0.971186 -0.238323)
(0.000265702 -0.971055 -0.238853)
(0.000470158 -0.970929 -0.239367)
(0.000290157 -0.970846 -0.239704)
(0.000201222 -0.970847 -0.2397)
(0.000286265 -0.970915 -0.239422)
(0.000380908 -0.97076 -0.24005)
(0.000161576 -0.970043 -0.242931)
(-0.00028796 -0.969515 -0.245033)
(-0.000536178 -0.969472 -0.245201)
(-0.0130218 -0.969852 -0.243344)
(-0.217197 -0.94936 -0.227025)
(-0.605594 -0.784807 -0.131659)
(-0.340949 -0.927697 -0.152093)
(-0.0823179 -0.952341 -0.293717)
(0.294956 -0.891287 -0.344394)
(0.847039 -0.467099 -0.253659)
(0.996628 -0.0581529 -0.0578758)
(0.999971 -0.000678583 -0.00596411)
(0.993261 0.00592652 0.00420483)
(-0.13818 0.13988 0.0591884)
(-0.0284929 0.0110689 0.00435354)
(-0.00160834 0.000392556 0.000144443)
(-4.38412e-05 8.2018e-06 2.78307e-06)
(-6.93881e-07 1.06156e-07 3.34538e-08)
(-6.67998e-09 8.71869e-10 2.58821e-10)
(-4.04996e-11 4.54319e-12 1.29179e-12)
(-1.55388e-13 1.53132e-14 4.22077e-15)
(-3.83197e-16 3.277e-17 8.85967e-18)
(-6.0141e-19 4.41975e-20 1.18032e-20)
(-5.90228e-22 3.40051e-23 9.02949e-24)
(-3.37887e-25 1.1838e-26 3.13399e-27)
(-4.53496e-05 -0.981894 -0.189395)
(0.000111077 -0.981611 -0.190875)
(0.000307416 -0.981555 -0.19117)
(0.000315587 -0.98133 -0.192321)
(0.000238816 -0.980985 -0.194065)
(0.000240314 -0.980759 -0.195214)
(0.000138613 -0.980687 -0.195579)
(8.21649e-05 -0.980625 -0.19589)
(6.71208e-05 -0.980505 -0.196491)
(7.52357e-05 -0.980276 -0.197634)
(7.58172e-05 -0.980027 -0.198861)
(2.75792e-05 -0.979895 -0.19951)
(-7.30765e-05 -0.979747 -0.200235)
(-0.000258915 -0.979597 -0.200969)
(-0.000407681 -0.979455 -0.201661)
(-0.000902814 -0.979639 -0.200756)
(-0.00915456 -0.982725 -0.184813)
(-0.320263 -0.828252 0.459469)
(-0.0850785 -0.994205 -0.0647195)
(-0.00555264 -0.984817 -0.17345)
(-0.00140772 -0.983233 -0.182335)
(-0.00068244 -0.980821 -0.194904)
(-0.000417791 -0.979071 -0.203517)
(-0.000150097 -0.978244 -0.207456)
(0.000128221 -0.978243 -0.207463)
(0.000260233 -0.978487 -0.206308)
(0.000139139 -0.978601 -0.205766)
(-0.000103385 -0.978116 -0.208058)
(-0.00024212 -0.976564 -0.215227)
(-5.85585e-05 -0.976564 -0.215226)
(0.000182784 -0.976528 -0.215389)
(0.00018799 -0.977856 -0.209278)
(0.00020597 -0.978801 -0.20481)
(0.000480115 -0.979935 -0.199314)
(0.000962938 -0.983095 -0.183088)
(0.000746651 -0.989425 -0.145034)
(-0.00302077 -0.994168 -0.107785)
(-0.0091197 -0.995058 -0.0988568)
(-0.060076 -0.992488 -0.10656)
(-0.495029 -0.862352 -0.106272)
(-0.751587 -0.657553 -0.0523542)
(-0.426853 -0.904318 -0.00238517)
(-0.150393 -0.984299 -0.0924004)
(0.294116 -0.913849 -0.279957)
(0.815227 -0.307672 -0.490656)
(0.972058 0.0256465 -0.233336)
(0.998781 0.0148594 -0.046955)
(0.997972 0.00144558 0.00409952)
(-0.275692 0.128377 0.0790983)
(-0.0420905 0.012578 0.00454743)
(-0.00234999 0.000455829 0.000130462)
(-6.37639e-05 9.29673e-06 2.31919e-06)
(-9.86564e-07 1.15811e-07 2.67181e-08)
(-9.20649e-09 9.07912e-10 2.01639e-10)
(-5.36793e-11 4.49105e-12 9.88612e-13)
(-1.96992e-13 1.42772e-14 3.16477e-15)
(-4.6125e-16 2.8722e-17 6.4706e-18)
(-6.85361e-19 3.61891e-20 8.30868e-21)
(-6.29737e-22 2.59938e-23 6.07761e-24)
(-3.36357e-25 8.35076e-27 1.99112e-27)
(-0.196944 0.976224 -0.0545636)
(-0.00561269 0.91937 0.376341)
(0.456093 0.87431 -0.106534)
(-0.416977 0.571507 -0.701391)
(-0.433843 0.410781 -0.799346)
(-0.191886 -0.519277 -0.831915)
(-0.0323459 -0.835665 -0.548051)
(-0.0121959 -0.875331 -0.483248)
(-0.00819965 -0.890999 -0.453835)
(-0.00719057 -0.903777 -0.427838)
(-0.00842013 -0.916474 -0.399873)
(-0.0147421 -0.932218 -0.361404)
(-0.026321 -0.956272 -0.290958)
(-0.0494512 -0.997774 -0.0410775)
(-0.0954054 -0.80488 0.585322)
(-0.227782 -0.68683 0.689808)
(-0.535418 -0.650554 0.538029)
(-0.589974 -0.65403 0.473135)
(-0.357168 -0.931151 0.0722582)
(-0.0506057 -0.969042 -0.241416)
(0.0311367 -0.929553 -0.367264)
(-0.0881306 -0.936165 -0.340248)
(-0.175996 -0.939226 -0.294665)
(-0.0268584 -0.919144 -0.392939)
(0.1263 -0.634915 -0.762166)
(0.0956919 -0.694097 -0.713468)
(-0.112618 -0.918584 -0.378775)
(-0.556516 -0.793271 -0.246897)
(-0.733193 -0.6624 -0.153498)
(0.0738285 -0.996879 -0.0255329)
(0.429907 -0.53002 -0.730889)
(0.353883 -0.662158 -0.660509)
(0.0421853 -0.761282 -0.647017)
(-0.0376914 -0.920686 -0.388425)
(0.0392939 -0.95955 -0.278712)
(0.0606437 -0.949058 -0.309151)
(0.0276472 -0.955439 -0.293824)
(-0.0513726 -0.995801 -0.0753793)
(-0.958144 -0.0245768 0.285107)
(-0.984101 0.169573 0.0527631)
(-0.939413 -0.337926 -0.0575153)
(-0.439688 -0.891281 -0.110874)
(-0.172435 -0.97762 -0.120521)
(0.10596 -0.960291 -0.258098)
(0.611976 -0.66067 -0.434741)
(0.989374 -0.0449671 -0.138261)
(0.999896 0.00551488 -0.0131819)
(0.999765 0.000585921 0.000544485)
(-0.52049 0.102886 0.0580318)
(-0.0639573 0.0112254 0.00441736)
(-0.00264467 0.000354787 0.000120547)
(-6.10581e-05 6.08528e-06 1.93323e-06)
(-8.3629e-07 6.31951e-08 1.94632e-08)
(-6.94669e-09 4.12817e-10 1.26127e-10)
(-3.5869e-11 1.71122e-12 5.299e-13)
(-1.16458e-13 4.55871e-15 1.44881e-15)
(-2.39381e-16 7.71418e-18 2.53525e-18)
(-3.12417e-19 8.11448e-21 2.7641e-21)
(-2.48388e-22 4.87273e-24 1.7089e-24)
(-1.14644e-25 1.27085e-27 4.62882e-28)
(-0.0366006 0.962688 0.246434)
(-0.173106 0.112521 0.973387)
(-0.242402 -0.0061237 -0.96694)
(-0.45283 0.420429 -0.782975)
(-0.600228 0.789359 -0.10962)
(-0.22261 -0.595996 0.77026)
(-0.0259503 -0.843364 0.536471)
(-0.0101008 -0.868787 0.494963)
(-0.00240739 -0.877797 0.478937)
(0.00117225 -0.904901 0.425517)
(-0.00270975 -0.935814 0.352338)
(-0.00959132 -0.958359 0.285167)
(-0.00353446 -0.980746 0.194781)
(-0.000923882 -0.994725 0.101176)
(-0.223648 -0.972087 -0.067101)
(-0.746774 -0.664499 0.0042177)
(-0.748994 -0.206867 0.62847)
(-0.0754769 -0.988831 -0.126651)
(-0.104189 -0.854924 0.508053)
(-0.110409 -0.798319 0.591957)
(-0.0262947 -0.840397 0.541268)
(0.0405352 -0.871457 0.48874)
(-0.0489681 -0.840179 0.540055)
(-0.380492 -0.725265 0.573743)
(-0.443271 -0.655742 0.61111)
(0.57186 -0.757894 0.313853)
(0.442002 -0.873548 0.203693)
(0.0466805 -0.911658 0.408216)
(0.00143057 -0.614062 0.789231)
(-0.274964 -0.644681 0.713261)
(-0.435929 -0.534854 0.723772)
(-0.136358 -0.989753 -0.041246)
(0.351127 -0.889847 -0.291225)
(0.334614 -0.941561 0.0380962)
(0.0826975 -0.980161 0.180023)
(-0.00332964 -0.986678 0.162538)
(0.0295616 -0.995691 0.0876503)
(-0.0430947 -0.967693 -0.248285)
(-0.71317 0.295801 -0.635484)
(-0.963711 0.194437 -0.182892)
(-0.905912 -0.422603 -0.0270103)
(-0.395782 -0.91363 0.092933)
(-0.154728 -0.96892 0.193009)
(0.0904672 -0.934903 0.343181)
(0.543112 -0.642379 0.540721)
(0.983617 -0.0457843 0.174359)
(0.999874 0.00603362 0.0145648)
(0.999769 0.000586087 -0.000642308)
(-0.507658 0.106064 -0.0726752)
(-0.0621324 0.0112624 -0.00580836)
(-0.00258369 0.000355466 -0.000161073)
(-5.98451e-05 6.11338e-06 -2.56119e-06)
(-8.2192e-07 6.37067e-08 -2.53043e-08)
(-6.84515e-09 4.17677e-10 -1.60272e-10)
(-3.54294e-11 1.73784e-12 -6.566e-13)
(-1.15248e-13 4.64704e-15 -1.74904e-15)
(-2.37421e-16 7.8918e-18 -2.98587e-18)
(-3.1083e-19 8.33016e-21 -3.18205e-21)
(-2.48068e-22 5.01649e-24 -1.93489e-24)
(-1.14977e-25 1.31262e-27 -5.13873e-28)
(-0.000107424 -0.982559 0.185944)
(-0.000265649 -0.982515 0.186179)
(-0.000486454 -0.982428 0.186627)
(0.00100917 -0.98179 0.189824)
(0.00138705 -0.982833 0.184406)
(0.000150141 -0.98257 0.185879)
(-6.42123e-05 -0.982421 0.186676)
(-0.000153144 -0.982299 0.187317)
(-0.00039008 -0.982249 0.18758)
(-0.000562206 -0.982262 0.187509)
(-0.000460189 -0.982464 0.186452)
(-0.000326537 -0.982777 0.184795)
(-0.00020849 -0.983025 0.183468)
(-4.49108e-05 -0.983173 0.182672)
(9.16773e-05 -0.982656 0.185435)
(0.000336768 -0.981393 0.192002)
(-0.0248037 -0.971924 0.23393)
(-0.493456 0.57306 -0.653964)
(-0.0785745 0.777415 -0.62366)
(-0.00847853 -0.918764 0.394618)
(-0.00348675 -0.973867 0.227073)
(-0.00143491 -0.980553 0.196243)
(-0.000829815 -0.983241 0.182306)
(-0.00091729 -0.986045 0.166476)
(-0.00101569 -0.982804 0.184649)
(-0.000887411 -0.980754 0.195242)
(-0.000755012 -0.980829 0.194867)
(-0.000762853 -0.980783 0.195101)
(-0.000942711 -0.980777 0.195128)
(-0.00112248 -0.980781 0.195108)
(-0.00181934 -0.979778 0.200077)
(-0.00198005 -0.985011 0.172475)
(8.66903e-05 -0.987463 0.157842)
(0.00232497 -0.987357 0.158492)
(0.0030088 -0.985848 0.167607)
(0.000997533 -0.985724 0.168356)
(-0.00623741 -0.987242 0.159092)
(-0.0214058 -0.988779 0.147826)
(-0.119902 -0.979381 0.162581)
(-0.642109 -0.751554 0.1512)
(-0.75493 -0.649578 0.0901615)
(-0.373071 -0.927199 0.0334802)
(-0.113503 -0.990689 0.0751865)
(0.340183 -0.902456 0.264289)
(0.815798 -0.14392 0.560143)
(0.946129 0.076703 0.314571)
(0.996616 0.0256587 0.0779671)
(0.995194 0.00391993 -0.0100737)
(-0.187646 0.125869 -0.0929571)
(-0.0325233 0.00922461 -0.00481854)
(-0.0017689 0.000322318 -0.000130165)
(-4.72538e-05 6.64092e-06 -2.15395e-06)
(-7.26075e-07 8.32184e-08 -2.27574e-08)
(-6.73814e-09 6.5055e-10 -1.57042e-10)
(-3.89921e-11 3.18754e-12 -7.08352e-13)
(-1.41577e-13 1.00119e-14 -2.10656e-15)
(-3.27568e-16 1.98471e-17 -4.04698e-18)
(-4.80748e-19 2.46365e-20 -4.9321e-21)
(-4.3584e-22 1.73798e-23 -3.45167e-24)
(-2.29455e-25 5.48439e-27 -1.08552e-27)
(-0.488416 0.815724 0.177743)