/*--------------------------------*- C++ -*----------------------------------*\
| =========                 |                                                 |
| \\      /  F ield         | OpenFOAM: The Open Source CFD Toolbox           |
|  \\    /   O peration     | Version:  2.1.1                                 |
|   \\  /    A nd           | Web:      www.OpenFOAM.org                      |
|    \\/     M anipulation  |                                                 |
\*---------------------------------------------------------------------------*/
FoamFile
{
    version     2.0;
    format      ascii;
    class       volVectorField;
    location    "0.001";
    object      grad1Alpha;
}
// * * * * * * * * * * * * * * * * * * * * * * * * * * * * * * * * * * * * * //

dimensions      [0 -1 0 0 0 0 0];

internalField   nonuniform List<vector> 
36520
(
(1.06479e-09 -8.56659e-10 -6.69959e-09)
(9.91418e-10 -1.2259e-09 -6.54289e-09)
(-1.54288e-10 -1.84929e-09 -8.44424e-09)
(-1.94077e-10 -2.45675e-09 -1.04519e-08)
(-2.44856e-10 -3.2924e-09 -1.31489e-08)
(-2.88263e-10 -4.21575e-09 -1.56476e-08)
(-3.1414e-10 -5.23079e-09 -1.80159e-08)
(-3.13722e-10 -6.21184e-09 -1.97543e-08)
(-2.88052e-10 -7.14703e-09 -2.10482e-08)
(-2.47993e-10 -7.90724e-09 -2.18437e-08)
(-2.16299e-10 -8.57271e-09 -2.25295e-08)
(-2.09201e-10 -9.12804e-09 -2.32853e-08)
(-2.43545e-10 -9.73898e-09 -2.4382e-08)
(-3.09315e-10 -1.04611e-08 -2.58983e-08)
(-3.98565e-10 -1.13581e-08 -2.77506e-08)
(-5.09274e-10 -1.24349e-08 -3.01504e-08)
(-6.59938e-10 -1.37529e-08 -3.33076e-08)
(-8.82007e-10 -1.54794e-08 -3.78262e-08)
(-1.20684e-09 -1.78923e-08 -4.41972e-08)
(-1.64809e-09 -2.1337e-08 -5.30065e-08)
(-2.19933e-09 -2.60918e-08 -6.44155e-08)
(-2.83639e-09 -3.23251e-08 -7.84236e-08)
(-3.52043e-09 -4.00481e-08 -9.4558e-08)
(-4.20714e-09 -4.91557e-08 -1.11953e-07)
(-4.83721e-09 -5.94635e-08 -1.29206e-07)
(-5.30192e-09 -7.06961e-08 -1.4476e-07)
(-5.43424e-09 -8.23446e-08 -1.56795e-07)
(-5.06988e-09 -9.36283e-08 -1.63266e-07)
(-4.15914e-09 -1.03513e-07 -1.62122e-07)
(-2.83548e-09 -1.10815e-07 -1.51743e-07)
(-1.4571e-09 -1.14275e-07 -1.3067e-07)
(-6.77533e-10 -1.13343e-07 -9.89506e-08)
(-1.52891e-09 -1.1004e-07 -6.02117e-08)
(-5.30204e-09 -1.10867e-07 -2.32149e-08)
(-1.25678e-08 -1.25594e-07 3.16041e-09)
(-2.21921e-08 -1.60669e-07 1.93031e-08)
(-3.19067e-08 -2.14378e-07 3.51172e-08)
(-3.96185e-08 -2.78829e-07 6.34498e-08)
(-4.312e-08 -3.44422e-07 1.11879e-07)
(-3.85067e-08 -4.02178e-07 1.73098e-07)
(-2.19325e-08 -4.44298e-07 2.31372e-07)
(5.72523e-09 -4.77622e-07 2.6665e-07)
(3.7325e-08 -4.83106e-07 2.61892e-07)
(7.18442e-08 -4.2031e-07 2.02625e-07)
(9.45879e-08 -2.22916e-07 -2.46887e-07)
(5.37894e-08 -5.34966e-08 -1.24062e-07)
(4.63762e-09 -2.29539e-10 -9.40773e-10)
(2.82463e-11 -8.74507e-12 -4.22507e-11)
(6.78695e-13 -8.75027e-14 -4.51533e-13)
(4.42959e-15 -6.21532e-16 -3.08346e-15)
(2.1095e-17 -4.04813e-18 -1.70195e-17)
(8.987e-20 -2.3644e-20 -8.00727e-20)
(3.488e-22 -1.07045e-22 -3.27626e-22)
(1.26877e-24 -3.47384e-25 -9.31237e-25)
(3.36636e-27 -8.09766e-28 -1.91468e-27)
(6.50425e-30 -1.33339e-30 -2.68887e-30)
(8.68387e-33 -1.52335e-33 -2.69307e-33)
(8.15561e-36 -1.14937e-36 -1.67581e-36)
(4.889e-39 -5.26356e-40 -6.96208e-40)
(1.86727e-42 -1.0936e-43 -1.10974e-43)
(1.14224e-09 -9.45958e-09 -2.19979e-08)
(1.61663e-10 -1.49691e-08 -2.40225e-08)
(-2.01968e-09 -2.03153e-08 -2.88212e-08)
(-2.43908e-09 -2.64826e-08 -3.32543e-08)
(-2.72379e-09 -3.30459e-08 -3.86263e-08)
(-2.60974e-09 -3.92324e-08 -4.19991e-08)
(-2.27225e-09 -4.47189e-08 -4.40252e-08)
(-1.75864e-09 -4.88151e-08 -4.34442e-08)
(-1.2828e-09 -5.1798e-08 -4.14901e-08)
(-9.52619e-10 -5.37202e-08 -3.83283e-08)
(-9.02165e-10 -5.55725e-08 -3.48803e-08)
(-1.09126e-09 -5.75228e-08 -3.15384e-08)
(-1.48843e-09 -6.03227e-08 -2.84198e-08)
(-1.91457e-09 -6.37519e-08 -2.55388e-08)
(-2.4251e-09 -6.78639e-08 -2.27034e-08)
(-3.15819e-09 -7.30087e-08 -2.03229e-08)
(-4.31953e-09 -8.01909e-08 -1.86737e-08)
(-6.07447e-09 -9.10525e-08 -1.8155e-08)
(-8.44533e-09 -1.07116e-07 -1.86686e-08)
(-1.12884e-08 -1.2979e-07 -2.00891e-08)
(-1.43174e-08 -1.59491e-07 -2.20613e-08)
(-1.72058e-08 -1.9593e-07 -2.41013e-08)
(-1.95023e-08 -2.37909e-07 -2.5508e-08)
(-2.07184e-08 -2.83711e-07 -2.56907e-08)
(-2.0466e-08 -3.3158e-07 -2.42176e-08)
(-1.84369e-08 -3.8034e-07 -2.07816e-08)
(-1.42317e-08 -4.27512e-07 -1.53804e-08)
(-7.57718e-09 -4.68458e-07 -9.38079e-09)
(1.37315e-09 -4.97323e-07 3.10449e-09)
(1.22018e-08 -5.08629e-07 1.93065e-08)
(2.37557e-08 -4.96291e-07 3.81836e-08)
(3.2957e-08 -4.62973e-07 5.61945e-08)
(3.46232e-08 -4.27407e-07 6.60332e-08)
(2.49672e-08 -4.21286e-07 6.8538e-08)
(7.7855e-09 -4.68059e-07 7.83779e-08)
(-6.83811e-09 -5.66273e-07 9.90408e-08)
(-1.07083e-08 -6.69039e-07 1.30545e-07)
(-2.85205e-09 -7.02205e-07 1.69546e-07)
(9.32101e-09 -6.22016e-07 2.11823e-07)
(1.86007e-08 -4.83367e-07 2.52991e-07)
(2.34812e-08 8.4485e-06 4.57127e-05)
(2.2298e-08 2.43533e-05 0.00012721)
(9.24556e-09 3.18194e-05 0.000163759)
(-1.69865e-07 1.69121e-05 8.71368e-05)
(-6.16396e-08 2.50766e-07 1.25489e-06)
(1.70931e-07 -6.99773e-07 -4.92043e-07)
(6.37485e-08 -3.45998e-09 -6.76172e-09)
(4.76637e-10 -2.38628e-10 -5.62926e-10)
(2.08252e-11 -4.11934e-12 -1.01613e-11)
(2.19741e-13 -4.23354e-14 -9.94668e-14)
(1.49137e-15 -3.6145e-16 -7.1351e-16)
(8.20424e-18 -2.45976e-18 -4.2115e-18)
(3.85183e-20 -1.20262e-20 -1.80377e-20)
(1.57428e-22 -4.20204e-23 -5.36283e-23)
(4.47168e-25 -1.05113e-25 -1.13307e-25)
(9.1885e-28 -1.84549e-28 -1.62898e-28)
(1.28967e-30 -2.2632e-31 -1.65057e-31)
(1.29089e-33 -1.80238e-34 -1.0368e-34)
(8.02833e-37 -8.9643e-38 -4.30025e-38)
(3.33255e-40 -1.84901e-41 -6.78527e-42)
(2.69269e-11 -3.24078e-08 -3.65511e-08)
(-2.38603e-09 -4.43971e-08 -3.03566e-08)
(-4.67266e-09 -5.81917e-08 -2.9166e-08)
(-4.9999e-09 -7.22748e-08 -2.63277e-08)
(-4.54915e-09 -8.40054e-08 -2.32306e-08)
(-2.9964e-09 -9.19692e-08 -1.79255e-08)
(-1.12509e-09 -9.70718e-08 -1.18825e-08)
(7.9062e-10 -9.77401e-08 -5.22114e-09)
(2.06572e-09 -9.65006e-08 1.45159e-09)
(2.82735e-09 -9.40415e-08 7.98513e-09)
(2.94391e-09 -9.25356e-08 1.47709e-08)
(2.7825e-09 -9.24088e-08 2.22347e-08)
(2.51054e-09 -9.42287e-08 3.00906e-08)
(2.29351e-09 -9.83446e-08 3.61093e-08)
(1.94555e-09 -1.04844e-07 3.87714e-08)
(1.23467e-09 -1.13479e-07 4.22385e-08)
(1.29848e-10 -1.25598e-07 4.68376e-08)
(-1.23013e-09 -1.43342e-07 5.33733e-08)
(-2.62537e-09 -1.67419e-07 6.24722e-08)
(-3.93296e-09 -1.97439e-07 7.48031e-08)
(-4.95419e-09 -2.30004e-07 9.03941e-08)
(-5.47988e-09 -2.60367e-07 1.09003e-07)
(-5.40187e-09 -2.83113e-07 1.29835e-07)
(-4.79593e-09 -2.95728e-07 1.51879e-07)
(-3.74418e-09 -3.00602e-07 1.73902e-07)
(-2.3315e-09 -3.03855e-07 1.94722e-07)
(-1.13617e-09 -2.36573e-07 4.77229e-07)
(2.91912e-09 1.78858e-06 7.98783e-06)
(9.14788e-09 3.9914e-06 1.61469e-05)
(1.41483e-08 6.45805e-06 2.52636e-05)
(1.70868e-08 9.20184e-06 3.53759e-05)
(1.40129e-08 1.20084e-05 4.57236e-05)
(5.61109e-09 1.52644e-05 5.77957e-05)
(9.91269e-10 2.00374e-05 7.55946e-05)
(1.40365e-09 2.84889e-05 0.000107204)
(2.25715e-09 4.59461e-05 0.000172481)
(4.36594e-09 8.94843e-05 0.000334158)
(1.05307e-08 0.000216804 0.000805514)
(3.019e-08 0.000626066 0.0023179)
(2.16554e-05 0.00190231 0.00702922)
(6.04753e-05 0.0047786 0.0176971)
(5.64067e-05 0.00822873 0.0287615)
(-1.86127e-05 0.00907884 0.0301755)
(-7.68224e-05 0.0065774 0.020668)
(-4.14328e-05 0.00220738 0.00667746)
(-5.43953e-07 3.34333e-05 0.000138917)
(2.46183e-07 -2.37246e-08 -1.82143e-08)
(3.26178e-09 -2.50276e-09 -4.02732e-09)
(2.69572e-10 -8.27271e-11 -1.3836e-10)
(4.85638e-12 -1.2602e-12 -2.03565e-12)
(4.75465e-14 -1.40106e-14 -2.04241e-14)
(3.41829e-16 -1.06957e-16 -1.41014e-16)
(2.02211e-18 -5.6378e-19 -6.62337e-19)
(8.68149e-21 -2.08908e-21 -2.12702e-21)
(2.58993e-23 -5.45632e-24 -4.744e-24)
(5.49509e-26 -9.93065e-27 -7.15213e-27)
(7.94738e-29 -1.25229e-29 -7.45487e-30)
(8.1084e-32 -1.02286e-32 -4.81637e-33)
(5.14727e-35 -5.18773e-36 -2.00884e-36)
(2.15568e-38 -1.09821e-39 -3.19149e-40)
(3.62723e-09 -4.65808e-08 -2.30466e-08)
(2.74438e-09 -7.07692e-08 -6.62134e-09)
(-1.06732e-09 -8.68123e-08 7.64101e-09)
(-5.07629e-10 -9.79487e-08 2.34209e-08)
(5.89877e-10 -1.02692e-07 4.04345e-08)
(2.31304e-09 -1.00788e-07 5.37206e-08)
(3.53815e-09 -9.82855e-08 5.58724e-08)
(4.56129e-09 -9.18785e-08 5.50354e-08)
(5.08165e-09 -8.4999e-08 5.27752e-08)
(5.46808e-09 -7.86897e-08 4.93218e-08)
(5.8659e-09 -7.41753e-08 4.57511e-08)
(6.05528e-09 -7.08453e-08 5.79974e-08)
(4.8423e-09 -2.21112e-08 2.318e-07)
(1.84868e-09 1.41948e-07 7.82032e-07)
(1.43111e-11 4.08183e-07 1.68251e-06)
(2.34702e-11 8.13088e-07 3.06802e-06)
(4.04757e-11 1.56084e-06 5.60692e-06)
(7.31833e-11 3.01077e-06 1.0472e-05)
(1.38803e-10 5.97053e-06 2.0262e-05)
(2.71436e-10 1.20781e-05 4.01842e-05)
(5.30711e-10 2.42271e-05 7.93787e-05)
(1.00339e-09 4.65345e-05 0.000150929)
(1.82086e-09 8.52942e-05 0.000274791)
(3.10023e-09 0.00014608 0.000468719)
(4.81437e-09 0.0002275 0.000728532)
(1.32377e-07 0.000326402 0.00104458)
(3.68893e-06 0.000442541 0.00141672)
(7.43147e-06 0.000558001 0.00179478)
(8.20391e-06 0.000638901 0.00206756)
(9.14255e-06 0.000687607 0.00224318)
(9.7395e-06 0.000726029 0.00239111)
(1.06789e-05 0.000764684 0.00254455)
(1.4213e-05 0.000801229 0.00269926)
(2.34638e-05 0.000868968 0.00296727)
(4.5951e-05 0.00104105 0.00359249)
(0.000107592 0.00147314 0.00500308)
(0.000300075 0.00262624 0.00855461)
(0.000940315 0.00608376 0.0185208)
(0.00295 0.0175028 0.0483836)
(0.0072888 0.0552129 0.135881)
(0.0103149 0.153064 0.325147)
(0.00594406 0.282312 0.503029)
(-0.00381981 0.333738 0.530713)
(-0.0111581 0.317473 0.420178)
(-0.00976677 0.185539 0.193876)
(-0.00317855 0.0185868 0.0200756)
(-6.56318e-05 2.90544e-07 1.43012e-06)
(9.66589e-09 -1.37189e-08 -1.72289e-08)
(1.97527e-09 -1.0117e-09 -1.33484e-09)
(6.73094e-11 -2.40645e-11 -3.08657e-11)
(9.90314e-13 -3.29598e-13 -4.00364e-13)
(9.97807e-15 -2.91178e-15 -3.25713e-15)
(6.92322e-17 -1.72201e-17 -1.73747e-17)
(3.27298e-19 -7.02784e-20 -6.22008e-20)
(1.06071e-21 -1.98525e-22 -1.51095e-22)
(2.39341e-24 -3.87673e-25 -2.46185e-25)
(3.66752e-27 -5.1804e-28 -2.71876e-28)
(3.89823e-30 -4.48486e-31 -1.86705e-31)
(2.59286e-33 -2.37754e-34 -8.06711e-35)
(1.11332e-36 -5.38175e-38 -1.3114e-38)
(6.59892e-09 -5.19348e-08 1.42527e-08)
(1.01016e-08 -7.43693e-08 3.58643e-08)
(8.10304e-09 -8.6855e-08 5.10792e-08)
(9.64195e-09 -7.58955e-08 1.09848e-07)
(9.57194e-09 -5.6169e-08 2.27657e-07)
(4.5322e-09 -3.20684e-08 4.59439e-07)
(5.33412e-12 1.80266e-08 9.4653e-07)
(4.97657e-12 1.04815e-07 1.83419e-06)
(4.80126e-12 2.13887e-07 3.1823e-06)
(4.9231e-12 4.05687e-07 5.23277e-06)
(7.43384e-09 8.04826e-07 8.2845e-06)
(9.19203e-08 1.57229e-06 1.2658e-05)
(3.48792e-07 3.07344e-06 1.94319e-05)
(6.96005e-07 5.64204e-06 3.00651e-05)
(1.09487e-06 9.97042e-06 4.7212e-05)
(1.87709e-06 1.87011e-05 7.9201e-05)
(3.53893e-06 3.83916e-05 0.000146754)
(7.00349e-06 7.97283e-05 0.0002828)
(1.42003e-05 0.000165212 0.000556151)
(2.82577e-05 0.00035255 0.00114393)
(5.29413e-05 0.000742624 0.00235465)
(9.34224e-05 0.00144981 0.00453491)
(0.000151935 0.00263163 0.00816361)
(0.000216941 0.00425732 0.0131544)
(0.000275339 0.00606901 0.0187274)
(0.000329054 0.00789464 0.0243691)
(0.00035856 0.00970945 0.0299709)
(0.000310903 0.0111211 0.0343236)
(0.000214103 0.0118822 0.0366433)
(0.000154379 0.012408 0.03816)
(0.000143747 0.0120324 0.0368383)
(0.000146942 0.0116868 0.035627)
(0.00020155 0.0121291 0.0367972)
(0.000426078 0.0128933 0.0388528)
(0.000972842 0.0141301 0.041937)
(0.00237513 0.0182842 0.052353)
(0.00648127 0.0302846 0.0812142)
(0.0191525 0.0632549 0.154519)
(0.0566803 0.164951 0.36188)
(0.134641 0.511126 0.9902)
(0.180963 1.51718 2.37435)
(0.103954 2.87394 3.62822)
(-0.0366258 3.85553 4.24342)
(-0.163184 4.35643 4.04827)
(-0.199913 3.09272 2.48515)
(-0.0988713 0.443081 0.35373)
(-0.0102089 0.000386017 0.00034779)
(-6.73261e-07 -5.31939e-08 -4.89487e-08)
(8.87113e-09 -8.89001e-09 -9.7205e-09)
(6.71198e-10 -2.9939e-10 -3.22839e-10)
(1.55019e-11 -5.14793e-12 -5.29362e-12)
(2.0174e-13 -5.4317e-14 -5.17456e-14)
(1.65228e-15 -3.71903e-16 -3.20521e-16)
(8.89726e-18 -1.72265e-18 -1.30491e-18)
(3.22819e-20 -5.4214e-21 -3.5191e-21)
(7.98086e-23 -1.16907e-23 -6.30264e-24)
(1.33252e-25 -1.70205e-26 -7.48165e-27)
(1.51667e-28 -1.60583e-29 -5.5189e-30)
(1.08806e-31 -9.13872e-33 -2.48763e-33)
(4.92116e-35 -2.27455e-36 -4.23414e-37)
(1.23868e-08 -4.20753e-08 5.51337e-08)
(1.78601e-08 1.6435e-08 3.46771e-07)
(3.33352e-08 2.03229e-08 1.30381e-06)
(8.45712e-08 -4.55086e-08 3.94148e-06)
(1.70564e-07 6.33164e-07 1.23874e-05)
(3.527e-07 4.11457e-06 3.51917e-05)
(6.7348e-07 2.89754e-06 4.68059e-05)
(1.09341e-06 9.98982e-06 8.98771e-05)
(1.6594e-06 2.15979e-05 0.000151517)
(2.48828e-06 4.17136e-05 0.000246128)
(3.61817e-06 7.57251e-05 0.000389387)
(5.42422e-06 0.000125672 0.000586162)
(8.45284e-06 0.000200242 0.000865573)
(1.34749e-05 0.000305145 0.00125006)
(2.38405e-05 0.000445312 0.00175988)
(4.83263e-05 0.000674471 0.00256955)
(9.88852e-05 0.00109904 0.00402403)
(0.000198909 0.00181313 0.00640847)
(0.000418487 0.00302816 0.0103568)
(0.000874121 0.00519787 0.0171923)
(0.00164818 0.00855494 0.0274502)
(0.00282345 0.0121508 0.0379718)
(0.00418914 0.0151432 0.0464413)
(0.00513324 0.0173315 0.0521697)
(0.00544827 0.0205429 0.0607813)
(0.00546155 0.0253863 0.0738993)
(0.00483892 0.0318398 0.0898079)
(0.00325036 0.0393796 0.10652)
(0.00187895 0.0440922 0.113751)
(0.000115709 0.0529534 0.133146)
(-0.00120681 0.0576873 0.147724)
(9.39806e-06 0.0536558 0.137325)
(0.0016083 0.0535675 0.138497)
(0.00256155 0.0594891 0.158801)
(0.00669201 0.0733403 0.202065)
(0.0194288 0.103167 0.289957)
(0.0506668 0.188408 0.520397)
(0.139808 0.453971 1.17606)
(0.418933 1.20023 2.89881)
(1.02541 2.89935 6.12593)
(1.38078 7.52157 12.6752)
(1.01811 15.5705 20.8472)
(0.283445 25.7661 27.3432)
(-0.874656 29.7282 27.9465)
(-1.96906 19.9533 17.4672)
(-1.3499 2.6653 1.97001)
(-0.192047 0.00811117 0.0038204)
(-0.000185954 -2.66729e-07 -1.67916e-07)
(2.76541e-08 -6.15064e-08 -5.47754e-08)
(5.1257e-09 -2.66883e-09 -2.35786e-09)
(1.69508e-10 -5.66451e-11 -4.75738e-11)
(2.78971e-12 -7.17323e-13 -5.55351e-13)
(2.74985e-14 -5.771e-15 -4.01233e-15)
(1.72462e-16 -3.08889e-17 -1.87136e-17)
(7.14872e-19 -1.10521e-19 -5.66593e-20)
(1.97558e-21 -2.68285e-22 -1.12495e-22)
(3.66034e-24 -4.33659e-25 -1.4483e-25)
(4.53905e-27 -4.53329e-28 -1.15265e-28)
(3.56456e-30 -2.81272e-31 -5.42862e-32)
(1.72377e-33 -7.78488e-35 -9.87842e-36)
(1.52986e-07 -4.09148e-08 2.00898e-07)
(6.38618e-07 -5.10925e-07 1.82631e-06)
(1.82404e-06 -1.49505e-06 2.06364e-05)
(5.592e-06 3.18782e-05 0.000239046)
(1.56747e-05 0.000177359 0.000996685)
(1.72121e-05 0.000233533 0.0014648)
(2.73305e-05 0.00012516 0.00126703)
(5.23664e-05 0.000194407 0.00184679)
(7.81369e-05 0.0004494 0.00318467)
(0.000118942 0.000838814 0.00507079)
(0.000170027 0.00144357 0.0077655)
(0.000238175 0.00213909 0.0107936)
(0.000332247 0.00283702 0.0136859)
(0.0004477 0.00368747 0.0169095)
(0.000660558 0.0048533 0.0208471)
(0.00113355 0.00649316 0.0263586)
(0.00192256 0.00882761 0.0336466)
(0.00317348 0.0120692 0.0427151)
(0.00540729 0.0164462 0.0534147)
(0.00857537 0.0225377 0.0656365)
(0.0104314 0.0296928 0.0764084)
(0.00953373 0.0369675 0.0831963)
(0.00713124 0.0456731 0.0893673)
(0.00723577 0.0579508 0.09972)
(0.0110089 0.0721481 0.119215)
(0.0147916 0.0847824 0.146313)
(0.0167747 0.081637 0.176023)
(0.0125386 0.0865313 0.202642)
(0.0138998 0.146022 0.22301)
(0.017446 0.252784 0.239117)
(0.00231367 0.253485 0.249603)
(-0.00448998 0.249461 0.2347)
(0.01094 0.185849 0.197574)
(0.0323407 0.132 0.175482)
(0.0668839 0.111813 0.176542)
(0.16266 0.0862706 0.178387)
(0.454569 0.0512588 0.187457)
(1.22598 0.0821617 0.461054)
(2.58604 0.554493 1.73873)
(5.22886 5.28743 11.044)
(8.09233 31.0433 64.1829)
(8.42146 90.5638 134.448)
(4.39225 164.718 153.107)
(-5.28012 157.984 134.72)
(-14.5397 75.2536 54.7347)
(-9.8665 5.95557 3.35473)
(-1.14094 0.0245366 0.00827843)
(-0.00242219 -4.49249e-06 -1.91589e-06)
(1.06438e-07 -4.02575e-07 -2.47522e-07)
(3.11585e-08 -1.84335e-08 -1.18255e-08)
(1.33254e-09 -4.53813e-10 -2.7647e-10)
(2.70176e-11 -6.75168e-12 -3.73441e-12)
(3.19132e-13 -6.37387e-14 -3.09317e-14)
(2.34787e-15 -3.97318e-16 -1.63211e-16)
(1.12422e-17 -1.6386e-18 -5.48024e-19)
(3.52972e-20 -4.54559e-21 -1.18177e-21)
(7.37113e-23 -8.29738e-24 -1.59649e-24)
(1.01468e-25 -9.76496e-27 -1.28512e-27)
(8.88102e-29 -6.72419e-30 -5.65021e-31)
(4.68633e-32 -2.09526e-33 -7.89013e-35)
(8.60646e-07 -6.90256e-08 1.13967e-08)
(1.07955e-05 -2.82685e-06 -1.45736e-07)
(0.000125775 -3.24732e-05 2.80485e-07)
(0.000517768 -0.000151938 1.27698e-05)
(0.000649553 -0.000395073 5.69517e-05)
(0.000142616 -0.000803161 6.92024e-05)
(0.000200514 0.00159258 0.029797)
(0.00101346 0.00606378 0.0499)
(0.0017099 0.00178445 0.0323048)
(0.00243143 0.00138216 0.0362549)
(0.00303788 0.00246705 0.0514883)
(0.00314452 0.00306048 0.0614025)
(0.00325534 0.00365208 0.0716678)
(0.00382844 0.00399807 0.0800985)
(0.00506147 0.00353036 0.0809024)
(0.00686274 0.00451538 0.0836961)
(0.00880716 0.00872016 0.0988096)
(0.0107232 0.0161173 0.125079)
(0.0126053 0.0265985 0.158668)
(0.0130523 0.0398542 0.200831)
(0.0109902 0.0567205 0.261905)
(0.0100665 0.0759851 0.351743)
(0.0139863 0.0935103 0.464128)
(0.022258 0.11219 0.574089)
(0.0307711 0.124383 0.651837)
(0.0339415 0.116238 0.720458)
(0.0321281 0.123505 0.837686)
(0.032257 0.150819 1.02018)
(0.0352533 0.167188 1.17193)
(0.0224761 0.165339 1.22391)
(-0.00374183 0.157003 1.22555)
(-0.0322293 0.150139 1.25105)
(-0.0405083 0.143397 1.27912)
(-0.0177691 0.134388 1.24593)
(-0.00163672 0.132002 1.04518)
(0.00520395 0.12785 0.597193)
(0.153191 0.119904 0.148074)
(0.865198 0.0294313 -0.354964)
(6.08168 -0.3518 -1.4482)
(35.3528 -0.342518 -0.925394)
(71.8392 18.8788 31.4797)
(58.4408 237.486 252.542)
(6.28437 655.491 455.391)
(-59.4205 560.29 322.27)
(-82.3379 155.378 72.0726)
(-35.573 6.47592 1.69923)
(-2.36529 0.0166546 0.00148241)
(-0.00653194 -1.74092e-05 -3.69004e-06)
(1.42382e-06 -1.6491e-06 -8.05493e-07)
(1.67279e-07 -8.64077e-08 -4.40454e-08)
(7.85616e-09 -2.48116e-09 -1.13312e-09)
(1.85126e-10 -4.32517e-11 -1.65822e-11)
(2.55516e-12 -4.80175e-13 -1.42716e-13)
(2.18944e-14 -3.51225e-15 -7.18753e-16)
(1.21343e-16 -1.69063e-17 -1.90192e-18)
(4.36683e-19 -5.43852e-20 -1.5616e-21)
(1.03905e-21 -1.1405e-22 4.85687e-24)
(1.61127e-24 -1.53635e-25 1.56093e-26)
(1.59402e-27 -1.19737e-28 1.74737e-29)
(9.34526e-31 -4.2572e-32 7.86554e-33)
(-0.00302435 3.81033 1.61472)
(-0.0009429 1.18795 0.503123)
(-0.00194524 2.45075 1.03734)
(-0.00553452 6.97265 2.94947)
(-0.00875116 11.025 4.66031)
(0.00612536 11.9336 5.04092)
(0.0144185 15.2272 6.43332)
(-0.0179103 24.2827 10.2826)
(-0.0340986 33.4421 14.1739)
(-0.0173581 34.3951 14.5603)
(-0.010831 30.1931 12.7645)
(-0.00729112 22.5226 9.54015)
(-0.00347829 16.8365 7.15404)
(-0.00542327 13.1238 5.60067)
(-0.00255455 6.17319 2.67609)
(0.00858213 2.61645 1.18764)
(0.0221663 2.55181 1.18591)
(0.0332283 2.99563 1.41818)
(0.0435147 3.8865 1.85213)
(0.059997 5.72034 2.70759)
(0.0829195 10.9365 5.02238)
(0.0981489 23.927 10.6224)
(0.0866215 48.3332 21.0046)
(0.0474115 74.3552 32.0139)
(0.0185904 83.5497 35.8604)
(0.0420548 82.8297 35.5167)
(0.108537 80.8104 34.6686)
(0.122978 81.312 34.8892)
(0.0527278 82.3927 35.3737)
(-0.0212457 80.5887 34.6571)
(-0.0422603 74.6788 32.1925)
(-0.0260827 68.0825 29.4831)
(-0.0347066 62.4154 27.2243)
(-0.126982 57.4169 25.2167)
(-0.303955 55.639 24.5114)
(-0.3375 54.8892 24.2334)
(-0.0994472 52.8501 23.4624)
(0.223516 47.2861 21.0009)
(1.76818 38.5792 16.2622)
(22.4187 35.9182 7.65392)
(167.013 102.524 7.43688)
(312.826 687.232 387.622)
(85.8826 1139.01 837.118)
(-270.262 886.963 619.867)
(-253.197 176.201 105.946)
(-66.5829 5.89742 1.78271)
(-2.73747 0.0108166 -0.00197858)
(-0.00505161 -2.8987e-05 -1.67511e-05)
(4.46356e-06 -4.38222e-06 -2.74015e-06)
(6.74619e-07 -2.85123e-07 -1.70642e-07)
(3.60925e-08 -9.78006e-09 -5.52219e-09)
(9.6241e-10 -2.02835e-10 -1.07758e-10)
(1.50843e-11 -2.64336e-12 -1.32506e-12)
(1.45957e-13 -2.21881e-14 -1.05757e-14)
(9.01087e-16 -1.19644e-16 -5.47458e-17)
(3.54662e-18 -4.22142e-19 -1.8703e-19)
(9.10957e-21 -9.53177e-22 -4.12333e-22)
(1.50219e-23 -1.36688e-24 -5.80848e-25)
(1.57073e-26 -1.12123e-27 -4.70749e-28)
(9.60773e-30 -4.20302e-31 -1.74751e-31)
(-0.005809 8.37953 1.96412)
(-0.0101713 14.67 3.44965)
(-0.0135844 19.5915 4.61786)
(-0.0133107 19.1954 4.53429)
(-0.0152885 22.0437 5.22095)
(-0.0180005 31.6068 7.50649)
(-0.0109874 51.2119 12.1628)
(-0.00856948 72.6708 17.2958)
(-0.0402478 84.3942 20.1699)
(-0.0694999 84.1077 20.1637)
(-0.0535789 79.328 19.0647)
(-0.0300027 70.7227 17.0371)
(-0.0271245 66.3827 16.0307)
(-0.0322893 63.2396 15.3177)
(-0.0266095 52.2185 12.7063)
(0.00680965 31.2937 7.65805)
(0.0467568 13.4596 3.32545)
(0.0737869 9.70981 2.4296)
(0.10122 10.6975 2.68007)
(0.143766 14.2345 3.50722)
(0.183056 26.3826 6.43121)
(0.193011 57.3791 14.0008)
(0.148647 110.599 27.1074)
(0.0304579 153.764 37.8101)
(-0.0694546 160.182 39.4425)
(-0.0685346 157.356 38.7566)
(-0.0311895 155.054 38.1411)
(-0.00652402 155.744 38.2259)
(0.00353096 158.104 38.7978)
(-0.0440849 161.116 39.6302)
(-0.0779033 160.879 39.6622)
(-0.0472919 158.235 39.0687)
(-0.031016 149.644 36.9469)
(-0.0391797 132.884 32.7686)
(-0.0469052 119.54 29.5598)
(-0.0196593 118.027 29.558)
(0.0348349 117.284 29.642)
(0.0611554 110.576 27.9672)
(1.18761 88.4525 22.1934)
(18.8249 82.283 19.6767)
(159.444 206.628 34.6637)
(332.661 905.147 148.396)
(105.127 1216.23 375.104)
(-288.491 871.75 336.845)
(-265.29 146.294 79.4453)
(-65.2297 3.80613 3.788)
(-2.50335 0.00169878 0.0149307)
(-0.00402029 -2.3988e-05 -1.70193e-05)
(4.72424e-06 -4.78236e-06 -2.02359e-06)
(7.98779e-07 -3.10308e-07 -1.22048e-07)
(4.37694e-08 -1.0683e-08 -3.93087e-09)
(1.19116e-09 -2.22843e-10 -7.5616e-11)
(1.88519e-11 -2.88413e-12 -9.08898e-13)
(1.81487e-13 -2.36876e-14 -7.03185e-15)
(1.10032e-15 -1.23433e-16 -3.50964e-17)
(4.22169e-18 -4.1604e-19 -1.14673e-19)
(1.0411e-20 -8.90319e-22 -2.40706e-22)
(1.63396e-23 -1.20079e-24 -3.20677e-25)
(1.60358e-26 -9.23876e-28 -2.4532e-28)
(9.17995e-30 -3.21624e-31 -8.51465e-32)
(0.000176986 3.83203 0.739151)
(-0.000872262 7.70839 1.4989)
(-0.00514725 16.4347 3.20087)
(-0.00430745 13.3942 2.625)
(-0.00185261 7.60997 1.50546)
(-0.00348259 14.213 2.82901)
(-0.0054363 38.4619 7.67046)
(-0.00577458 68.9187 13.7672)
(-0.00563354 82.2952 16.4918)
(-0.00614565 80.0742 16.1438)
(-0.00539807 69.7765 14.1586)
(-0.00155364 55.2011 11.2391)
(0.00383812 51.4582 10.5167)
(0.0131373 49.7046 10.1971)
(0.0163148 39.1963 8.07019)
(0.0182474 19.8002 4.05762)
(0.0386535 4.14938 0.780338)
(0.0547934 0.141704 -0.0786098)
(0.0358604 0.419056 0.0272792)
(0.0155662 2.76082 0.486248)
(0.0166304 11.6156 2.15404)
(0.0237947 34.1984 6.79576)
(0.0325696 76.325 15.8655)
(0.0186418 121.496 25.7657)
(-0.0177762 135.621 28.7621)
(-0.0352066 132.379 27.9112)
(-0.0172064 121.017 25.4458)
(0.0124792 118.064 25.1139)
(0.0295298 119.105 26.2499)
(0.00708667 118.182 26.0464)
(-0.0214908 114.815 25.3243)
(-0.0205864 107.083 22.9176)
(-0.01891 89.8636 18.8035)
(-0.0312284 63.7384 12.9641)
(-0.0371987 37.9774 7.07278)
(-0.0160518 21.2711 3.11799)
(0.048415 15.9339 1.72752)
(0.1457 15.8974 1.57937)
(1.00758 16.6457 1.78719)
(13.7053 23.8749 2.94223)
(142.521 124.69 9.92777)
(403.466 854.77 2.25449)
(208.163 1362.39 127.894)
(-320.367 995.414 304.945)
(-347.742 131.24 209.293)
(-97.5445 -2.57359 23.4149)
(-4.56701 -0.0679461 0.214706)
(-0.0134335 -1.94587e-05 -5.51828e-05)
(1.09224e-05 -5.08608e-06 -3.13373e-06)
(1.19638e-06 -3.57519e-07 -1.29256e-07)
(6.39997e-08 -1.24141e-08 -3.553e-09)
(1.7325e-09 -2.52597e-10 -6.30135e-11)
(2.68037e-11 -3.14645e-12 -7.25899e-13)
(2.50129e-13 -2.46668e-14 -5.47827e-15)
(1.4584e-15 -1.22016e-16 -2.68593e-17)
(5.35202e-18 -3.87893e-19 -8.59829e-20)
(1.25316e-20 -7.80341e-22 -1.75798e-22)
(1.86204e-23 -9.83213e-25 -2.25736e-25)
(1.71092e-26 -7.06219e-28 -1.65121e-28)
(9.1384e-30 -2.2688e-31 -5.40963e-32)
(0.0020463 -0.0101433 0.000566933)
(2.32148e-05 -0.00380263 -0.00155659)
(-0.0015225 -0.00291856 0.000355624)
(0.00299132 -0.00409989 0.00503166)
(0.00576421 -0.0054578 0.0106204)
(0.00719968 0.0194836 0.0312139)
(0.00680437 0.175793 0.11529)
(0.00561159 0.402759 0.222353)
(0.00512104 0.556468 0.28344)
(0.00431179 0.541946 0.256551)
(0.00433541 0.47188 0.205889)
(0.00576068 0.364278 0.141224)
(0.00735475 0.267206 0.0813009)
(0.00854475 0.172407 0.00709785)
(0.0111415 0.0939945 -0.0683544)
(0.0226901 0.0684172 -0.0687138)
(0.0459485 0.0558293 -0.0461726)
(0.100728 0.111665 -0.08078)
(0.115294 0.300574 -0.0233249)
(0.0239059 0.45777 0.114044)
(-0.0214523 0.640435 0.253034)
(0.0806104 0.856281 0.311214)
(0.18252 0.974045 0.305589)
(0.0280932 0.961403 0.411004)
(-0.203216 1.02157 1.22632)
(-0.146291 1.06112 1.09073)
(0.121324 0.989598 0.408057)
(0.570567 0.8133 0.253131)
(0.433013 0.391204 0.0906534)
(-0.031019 0.418837 0.0107276)
(-0.382604 0.471702 0.65047)
(-0.459167 0.859158 0.857018)
(-0.0582219 1.05068 0.892978)
(0.0477336 1.16599 0.491914)
(-0.0552975 1.35036 0.392226)
(-0.0896668 1.40326 0.457106)
(-0.038441 1.32845 0.408536)
(0.0466939 0.90511 0.0685142)
(0.740302 0.018989 -0.220286)
(9.84673 -1.69671 -0.527938)
(79.8518 28.7244 4.8889)
(300.908 609.963 75.8784)
(262.184 1486.45 183.25)
(-149.816 1357.75 364.923)
(-328.535 354.676 233.387)
(-161.063 7.3203 22.5078)
(-14.421 -0.0795382 0.190116)
(-0.115961 -6.796e-05 -6.31538e-05)
(3.03277e-05 -5.99495e-06 -3.38138e-06)
(1.85861e-06 -3.26212e-07 -1.28369e-07)
(7.20448e-08 -9.66494e-09 -3.28389e-09)
(1.65897e-09 -1.6534e-10 -5.25266e-11)
(2.2721e-11 -1.71693e-12 -5.28791e-13)
(1.88733e-13 -1.12157e-14 -3.4267e-15)
(9.74516e-16 -4.64916e-17 -1.43967e-17)
(3.164e-18 -1.23855e-19 -3.93623e-20)
(6.50367e-21 -2.09585e-22 -6.88796e-23)
(8.48798e-24 -2.2046e-25 -7.50971e-26)
(6.74839e-27 -1.32386e-28 -4.64288e-29)
(3.11472e-30 -3.45273e-32 -1.25759e-32)
(0.000177652 -0.00467268 -0.00119614)
(0.000948634 -0.000616627 -0.00533425)
(0.00211039 5.33138e-05 0.00841831)
(0.00478624 -0.00444378 0.00827575)
(0.00704783 -0.00926859 0.00128714)
(0.00625708 0.0167521 -0.0216503)
(0.00537229 0.174595 -0.111061)
(0.00465037 0.399984 -0.227878)
(0.00151821 0.553579 -0.302039)
(-0.000712941 0.550346 -0.258793)
(0.00142065 0.490621 -0.184721)
(0.00385511 0.385201 -0.114619)
(0.00104135 0.288956 -0.0573881)
(0.000176686 0.190234 -0.0193493)
(0.0230896 0.100359 0.00692754)
(0.0540211 0.0480694 -0.000305105)
(0.0328341 0.00906855 -0.0275506)
(0.00860449 0.112728 0.0144384)
(0.0428162 0.351327 -0.208782)
(0.0717233 0.518598 -0.384543)
(0.0203029 0.648895 -0.417929)
(-0.0411543 0.884766 -0.496204)
(0.0644997 1.10666 -0.711348)
(0.577747 1.10126 -0.871184)
(0.414214 0.612757 -0.571051)
(-0.447208 0.59269 -0.24544)
(-0.414732 0.819654 -0.191126)
(-0.0419684 0.81963 -0.367009)
(-0.00191018 0.819931 -1.05383)
(0.375507 0.880416 -0.974073)
(0.457426 0.56123 -0.759464)
(0.0793723 0.576123 0.0240088)
(-0.272553 0.69072 0.226056)
(-0.401632 1.13014 -0.0457262)
(-0.120895 1.43289 -0.263175)
(0.00478336 1.41746 -0.233501)
(-0.0380228 1.28068 -0.112738)
(0.0347268 0.779792 0.200074)
(0.767822 -0.318469 0.684182)
(9.42062 -1.90069 1.78784)
(74.0613 34.5492 2.20818)
(277.647 640.925 -65.1939)
(242.877 1520.92 -302.968)
(-134.341 1388.3 -509.612)
(-303.673 359.177 -302.336)
(-152.755 7.1103 -27.0778)
(-14.1153 -0.0851774 -0.205613)
(-0.117698 -6.89975e-05 7.56162e-05)
(2.89566e-05 -6.04987e-06 4.14537e-06)
(1.80235e-06 -3.26701e-07 1.6849e-07)
(7.03794e-08 -9.68287e-09 4.38761e-09)
(1.62601e-09 -1.66103e-10 6.95885e-11)
(2.23306e-11 -1.73083e-12 6.87488e-13)
(1.85974e-13 -1.13478e-14 4.35438e-15)
(9.62573e-16 -4.7215e-17 1.7839e-17)
(3.13114e-18 -1.26254e-19 4.75191e-20)
(6.45043e-21 -2.1441e-22 8.11224e-23)
(8.44486e-24 -2.2632e-25 8.64523e-26)
(6.73971e-27 -1.36292e-28 5.25685e-29)
(3.12378e-30 -3.56622e-32 1.39613e-32)
(0.0024514 22.4218 -4.24322)
(0.0069738 25.7929 -4.88754)
(0.00557165 11.2523 -2.13756)
(-0.00101735 0.989748 -0.191363)
(-0.00234873 1.66425 -0.312259)
(-0.00147519 9.65411 -1.82633)
(0.00194879 29.8156 -5.66545)
(0.00775996 49.7742 -9.49156)
(0.0258104 64.9923 -12.4115)
(0.041909 73.2217 -13.9777)
(0.0340256 72.6417 -13.7859)
(0.0221617 66.7001 -12.5419)
(0.0117872 55.5765 -10.3726)
(0.00207442 45.4125 -8.43757)
(-0.00300542 32.214 -6.07903)
(-0.00484803 14.1279 -2.76401)
(0.0512413 2.00787 -0.483268)
(0.0617139 -0.0716696 0.0817878)
(0.0085318 -0.0844135 0.0677184)
(0.00597612 0.647594 -0.278148)
(0.022027 6.15226 -1.4345)
(0.0309307 21.1367 -4.2302)
(0.0357677 42.3809 -7.85801)
(0.0586741 63.072 -10.6486)
(0.073497 71.1176 -13.3615)
(0.0619963 68.5174 -13.64)
(0.0485161 63.0268 -12.5219)
(0.0480882 61.8258 -12.2986)
(0.0616711 64.1613 -12.7651)
(0.0741638 64.8013 -12.891)
(0.107424 57.8516 -11.8137)
(0.0887649 44.1577 -7.73202)
(-0.00295562 33.6666 -5.38149)
(-0.0645563 27.4154 -4.40077)
(-0.0657546 21.5448 -3.6629)
(-0.015656 15.4706 -2.6423)
(0.0724855 11.4728 -1.84883)
(0.231145 10.6771 -1.59626)
(1.40055 11.4399 -1.89908)
(16.734 19.5863 -3.94044)
(150.142 129.19 -17.9315)
(368.016 914.636 -33.0265)
(158.814 1386.18 -105.201)
(-310.035 822.478 -240.867)
(-307.723 54.2874 -211.289)
(-75.1298 -6.0908 -24.9793)
(-2.90481 -0.0747867 -0.227248)
(-0.00569602 -2.24358e-05 5.7657e-05)
(6.74643e-06 -4.52537e-06 3.34209e-06)
(9.14858e-07 -2.59482e-07 1.35542e-07)
(4.81455e-08 -8.77279e-09 3.5428e-09)
(1.28389e-09 -1.80434e-10 5.8523e-11)
(1.97266e-11 -2.26094e-12 6.18291e-13)
(1.83067e-13 -1.76746e-14 4.26664e-15)
(1.05937e-15 -8.66015e-17 1.9245e-17)
(3.84647e-18 -2.7201e-19 5.72325e-20)
(8.89961e-21 -5.39222e-22 1.09951e-22)
(1.30613e-23 -6.69343e-25 1.33999e-25)
(1.18412e-26 -4.72188e-28 9.37776e-29)
(6.234e-30 -1.49004e-31 2.94921e-32)
(0.000405027 -0.000676453 -0.000147397)
(0.000564092 -0.0024621 -1.1451e-05)
(0.00138752 -0.00536212 -0.00728317)
(0.00806063 -0.00873112 -0.007203)
(0.0147489 -0.0201286 0.00142312)
(0.0133004 -0.0235462 0.019424)
(0.00261743 -0.0190612 0.032756)