/*--------------------------------*- C++ -*----------------------------------*\
| =========                 |                                                 |
| \\      /  F ield         | OpenFOAM: The Open Source CFD Toolbox           |
|  \\    /   O peration     | Version:  2.1.1                                 |
|   \\  /    A nd           | Web:      www.OpenFOAM.org                      |
|    \\/     M anipulation  |                                                 |
\*---------------------------------------------------------------------------*/
FoamFile
{
    version     2.0;
    format      ascii;
    class       volScalarField;
    location    "0.001";
    object      k;
}
// * * * * * * * * * * * * * * * * * * * * * * * * * * * * * * * * * * * * * //

dimensions      [0 2 -2 0 0 0 0];

internalField   nonuniform List<scalar> 
36520
(
0.0454752
0.0771006
0.120946
0.131133
0.144543
0.147931
0.150933
0.150689
0.148327
0.144842
0.139554
0.134258
0.127838
0.121797
0.115069
0.108531
0.101419
0.0941476
0.0864058
0.0785061
0.0704169
0.0625038
0.054837
0.0476593
0.04103
0.0350567
0.029724
0.0250559
0.0210372
0.0176377
0.0147835
0.0124138
0.0104554
0.00884018
0.00749871
0.00636499
0.00538083
0.00449715
0.00367822
0.00291181
0.00220382
0.00158115
0.00110811
0.000742207
0.000430789
0.000254448
0.000209263
0.000191057
0.000181243
0.00017447
0.000173026
0.000170241
0.000171661
0.000169875
0.000172234
0.000170407
0.000173248
0.000171058
0.000175389
0.000189947
0.0225842
0.0193007
0.0225754
0.0198079
0.0182412
0.0160703
0.0150193
0.0140165
0.0133095
0.0126696
0.0122387
0.0119626
0.0117777
0.0116038
0.0113707
0.0109887
0.0103584
0.00953246
0.00851445
0.0073926
0.00626246
0.00523347
0.00433522
0.0036021
0.00303338
0.00259237
0.00223385
0.00195671
0.00176661
0.00164504
0.00157438
0.0015387
0.00152604
0.00152628
0.00153687
0.00156171
0.00160633
0.00168191
0.00180179
0.00197988
0.00219171
0.00241446
0.00259291
0.00218279
0.0010973
0.00017299
2.81848e-05
2.80863e-05
3.04095e-05
3.16506e-05
3.26259e-05
3.28375e-05
3.32721e-05
3.31071e-05
3.34329e-05
3.31007e-05
3.34954e-05
3.31469e-05
3.81837e-05
0.000126762
0.0088204
0.00445598
0.00420639
0.00305228
0.0024183
0.00189375
0.00165183
0.00149151
0.00139362
0.00133672
0.00132669
0.00133808
0.00138298
0.00142124
0.00145711
0.00145967
0.00141997
0.00134375
0.0012403
0.00112791
0.0010307
0.000967267
0.000939273
0.0009478
0.000987895
0.00105188
0.00113317
0.00123211
0.00134818
0.00148004
0.00162809
0.00179701
0.00199646
0.00224337
0.00256536
0.00299734
0.00358437
0.00437356
0.0054041
0.00667671
0.00808254
0.00922224
0.00977546
0.00825437
0.00455113
0.000935621
3.2461e-05
4.04422e-06
3.57312e-06
3.54994e-06
3.51937e-06
3.46107e-06
3.43266e-06
3.37399e-06
3.36454e-06
3.30941e-06
3.32742e-06
3.3891e-06
8.32684e-06
0.00010706
0.00390598
0.00119219
0.000888708
0.000548405
0.000402876
0.000312832
0.000286119
0.000280516
0.000291472
0.000314802
0.000351114
0.000397119
0.000456036
0.000523425
0.000600921
0.000687428
0.000784663
0.000900231
0.00103994
0.00121521
0.00143268
0.00169449
0.0019977
0.0023356
0.00269353
0.00306546
0.00345669
0.003871
0.00428675
0.0046855
0.00508948
0.00552871
0.00603856
0.00666902
0.00750617
0.00866289
0.0103046
0.0126182
0.0157815
0.01988
0.0245068
0.0279177
0.0280839
0.0227926
0.0131157
0.00360384
0.000178223
5.18608e-06
4.58118e-07
3.19018e-07
2.76034e-07
2.51739e-07
2.3583e-07
2.25261e-07
2.19126e-07
2.13032e-07
2.13574e-07
3.27485e-07
5.25274e-06
0.000104064
0.00173004
0.000372377
0.000242785
0.000161653
0.000152975
0.00016808
0.000206578
0.000260287
0.000331869
0.00042157
0.000533348
0.000669642
0.000834288
0.00103761
0.00128594
0.0016015
0.00200799
0.00254369
0.0032448
0.00417036
0.00537133
0.00686747
0.00867755
0.0107606
0.0129862
0.015285
0.0178114
0.0208056
0.0243675
0.0256552
0.0248597
0.023417
0.022812
0.0237133
0.0252136
0.0275887
0.0314081
0.0372037
0.0456582
0.0577939
0.0716406
0.0776113
0.069766
0.0527143
0.0306187
0.0100538
0.000787936
3.0375e-05
8.3317e-07
4.98731e-08
2.41467e-08
1.86234e-08
1.54141e-08
1.39184e-08
1.29899e-08
1.24482e-08
1.41279e-08
1.32051e-07
5.0635e-06
0.000103774
0.00108942
0.000201351
0.000215109
0.000277087
0.000378883
0.000499193
0.00064896
0.00083927
0.00107967
0.00138894
0.00178517
0.00228885
0.00292133
0.00375909
0.00485261
0.00634904
0.00843596
0.011396
0.0156009
0.0216256
0.0300877
0.0413695
0.0566906
0.0771343
0.101829
0.129887
0.162478
0.19788
0.218479
0.216821
0.195421
0.163263
0.131925
0.11147
0.105628
0.105359
0.110162
0.122107
0.140739
0.167358
0.190662
0.183241
0.146656
0.104613
0.0611714
0.0224512
0.00265851
0.000151607
5.97185e-06
1.49698e-07
6.13103e-09
3.53151e-09
3.34766e-09
3.24349e-09
3.2335e-09
3.19408e-09
5.12968e-09
1.23264e-07
5.05734e-06
0.00010381
0.00160702
0.000902125
0.00176551
0.00285343
0.0040174
0.00500777
0.00599399
0.00717474
0.00850389
0.0101991
0.0123725
0.015068
0.01852
0.023268
0.0292737
0.0381818
0.0517383
0.0710138
0.0984152
0.139276
0.199319
0.273106
0.367744
0.500242
0.620237
0.69168
0.745447
0.798431
0.836245
0.839251
0.795389
0.702909
0.575529
0.442935
0.335016
0.275535
0.253744
0.255824
0.276365
0.307187
0.318923
0.285682
0.22083
0.157762
0.103959
0.0436173
0.00713787
0.000608425
3.0732e-05
9.25574e-07
2.02312e-08
3.10348e-09
2.91105e-09
2.87464e-09
2.90778e-09
2.88783e-09
4.8301e-09
1.22836e-07
5.05559e-06
0.000103834
0.0160263
0.00869662
0.0176457
0.0324503
0.0518638
0.0693243
0.0857618
0.104902
0.121678
0.141642
0.164705
0.188559
0.229729
0.272654
0.298952
0.354006
0.485751
0.654873
0.848654
1.08537
1.36977
1.62904
1.80155
1.89687
1.93803
1.94204
1.91288
1.8562
1.77768
1.68309
1.57609
1.45155
1.29991
1.11835
0.91745
0.721353
0.573441
0.486191
0.434743
0.398583
0.356549
0.297839
0.231333
0.172173
0.124418
0.0646723
0.0157086
0.00171659
0.000107953
4.00166e-06
9.39682e-08
4.19876e-09
2.91131e-09
2.86539e-09
2.90067e-09
2.88077e-09
4.81994e-09
1.22653e-07
5.05318e-06
0.000103847
0.0509305
0.03906
0.104272
0.221708
0.347433
0.504413
0.649527
0.887983
1.07194
1.23818
1.42734
1.58035
1.66015
1.71846
1.7399
1.70107
1.698
1.77212
1.87117
1.96426
2.05354
2.12724
2.16334
2.16322
2.12867
2.06351
1.9753
1.86743
1.73924
1.59737
1.44587
1.29734
1.17097
1.07242
0.991745
0.900259
0.772294
0.627725
0.501357
0.397578
0.310893
0.238281
0.184174
0.146498
0.118637
0.0739098
0.0247803
0.00385584
0.000317446
1.46634e-05
4.0478e-07
9.70565e-09
2.97358e-09
2.8649e-09
2.90004e-09
2.87895e-09
4.81627e-09
1.22525e-07
5.04984e-06
0.000103798
0.0517118
0.0410027
0.121209
0.241549
0.386072
0.509406
0.615063
0.735721
0.868914
1.01129
1.16559
1.32921
1.48607
1.6025
1.61902
1.58499
1.57491
1.58913
1.59818
1.61148
1.65229
1.71913
1.80635
1.87907
1.89157
1.83045
1.7234
1.59679
1.45644
1.31471
1.18043
1.05012
0.903268
0.732521
0.565799
0.431915
0.345935
0.284165
0.230243
0.188579
0.159325
0.138521
0.124055
0.114938
0.105876
0.072855
0.0264503
0.00441888
0.000386856
1.87022e-05
5.29877e-07
1.19136e-08
2.99294e-09
2.86144e-09
2.8969e-09
2.87601e-09
4.81474e-09
1.22582e-07
5.05045e-06
0.000103774
0.0390785
0.0381268
0.250349
0.674188
1.01016
1.32861
1.65116
2.0416
2.4322
2.81848
3.27207
3.77748
4.29283
4.71163
4.92775
4.94947
4.94263
4.96725
5.07117
5.282
5.59183
5.94208
6.25398
6.41679
6.35245
6.08983
5.70236
5.22946
4.68334
4.0981
3.50101
2.91957
2.31009
1.63479
1.06762
0.692541
0.462913
0.336618
0.269699
0.226046
0.192742
0.167732
0.14673
0.129358
0.114014
0.0821642
0.0334731
0.00599951
0.000534569
2.57491e-05
7.1869e-07
1.49039e-08
3.01545e-09
2.85543e-09
2.89048e-09
2.87008e-09
4.80764e-09
1.22517e-07
5.04619e-06
0.000103647
0.0433558
0.0535748
0.271982
0.474595
0.692607
1.33357
2.25987
3.4738
4.86023
6.41181
7.93599
9.04034
9.67692
9.85711
9.41501
8.29161
6.98781
6.50374
6.7832
7.6449
8.87421
10.2023
11.2966
11.8453
11.8108
11.3698
10.7062
9.87842
8.93688
7.92237
6.72372
5.38959
4.08447
2.92672
1.90037
1.14439
0.688084
0.477266
0.408555
0.401223
0.40052
0.360143
0.296722
0.228059
0.165106
0.104966
0.0417652
0.00707329
0.000546278
2.28158e-05
5.60637e-07
1.11962e-08
2.96196e-09
2.85002e-09
2.8832e-09
2.86321e-09
4.79779e-09
1.22415e-07
5.03964e-06
0.000103443
0.0628769
0.104848
0.314575
0.45748
0.776874
1.65956
2.79684
4.17377
5.71709
7.39966
8.94791
9.95041
10.526
10.6449
10.0455
8.67812
7.26297
6.77406
6.9902
7.69814
8.74565
9.87501
10.6629
10.8234
10.4754
9.8639
9.25112
8.66017
7.96672
7.06633
5.92885
4.70354
3.56635
2.56716
1.70484
1.05404
0.655938
0.49104
0.480921
0.551136
0.554988
0.474648
0.366719
0.261927
0.177442
0.107738
0.0422066
0.00707089
0.000544278
2.26862e-05
5.56731e-07
1.11294e-08
2.95966e-09
2.84856e-09
2.88145e-09
2.86157e-09
4.7953e-09
1.2235e-07
5.03692e-06
0.000103386
0.0493721
0.079746
0.414982
0.865414
1.30707
1.91254
2.55418
3.12749
3.56604
3.91181
4.24632
4.58377
4.86176
4.99902
4.91646
4.59117
4.1934
3.84969
3.61053
3.56613
3.71854
3.99347
4.2935
4.49155
4.52137
4.37871
4.15598
3.89284
3.58053
3.224
2.79623
2.27469
1.70909
1.19724
0.806497
0.54087
0.374993
0.28852
0.256758
0.24626
0.221001
0.188146
0.159473
0.137601
0.119082
0.0817212
0.0308325
0.00528295
0.000458912
2.17738e-05
6.01357e-07
1.28283e-08
2.99114e-09
2.85446e-09
2.88769e-09
2.8679e-09
4.803e-09
1.22433e-07
5.04157e-06
0.000103538
0.0606569
0.0853094
0.264346
0.584181
1.09376
1.75679
2.05706
2.29348
2.48085
2.62457
2.75106
2.81909
2.85211
2.83803
2.78181
2.68243
2.55747
2.43906
2.3632
2.32133
2.30917
2.28273
2.24292
2.2068
2.14118
2.0321
1.9018
1.76472
1.60903
1.4275
1.21899
0.98815
0.765171
0.57226
0.416769
0.300043
0.221684
0.175732
0.151849
0.140462
0.130274
0.119767
0.111044
0.104843
0.0973239
0.0639386
0.0209593
0.00325818
0.000267643
1.23e-05
3.34477e-07
8.33818e-09
2.95189e-09
2.86192e-09
2.89519e-09
2.87526e-09
4.8116e-09
1.2254e-07
5.04769e-06
0.000103696
0.0530343
0.060879
0.144792
0.265979
0.437094
0.776216
1.09857
1.48488
1.78827
2.0538
2.26172
2.38218
2.45849
2.50278
2.50228
2.46765
2.41986
2.36794
2.30381
2.20684
2.11222
2.0158
1.89519
1.76858
1.64504
1.51445
1.37183
1.22681
1.09718
0.985624
0.88163
0.777458
0.67568
0.581896
0.500848
0.435409
0.383997
0.344816
0.309549
0.261575
0.211321
0.168354
0.13599
0.115353
0.100826
0.0645157
0.0202855
0.00291272
0.000220337
9.51311e-06
2.48888e-07
6.83904e-09
2.93856e-09
2.86391e-09
2.89844e-09
2.87846e-09
4.81416e-09
1.22489e-07
5.0481e-06
0.000103763
0.0158566
0.00647911
0.0122012
0.0210579
0.0335875
0.0492014
0.0666631
0.0884901
0.110962
0.140114
0.185115
0.24673
0.315429
0.378678
0.446197
0.512473
0.55055
0.598699
0.660787
0.762159
0.896938
0.989498
1.03414
1.07708
1.1247
1.14988
1.14014
1.11168
1.07927
1.02917
0.95036
0.835324
0.696965
0.579381
0.493775
0.433862
0.397796
0.381459
0.371241
0.347949
0.302701
0.249348
0.194994
0.147755
0.11051
0.0586188
0.0139552
0.00146412
8.65571e-05
3.03945e-06
6.89708e-08
3.77757e-09
2.88644e-09
2.84627e-09
2.88577e-09
2.86711e-09
4.80766e-09
1.22538e-07
5.04893e-06
0.000103758
0.00163308
0.000710311
0.00131369
0.00203235
0.00287923
0.00375578
0.00476394
0.00599346
0.00741501
0.00921508
0.011569
0.0145989
0.0183191
0.0231406
0.0281916
0.0339302
0.0405943
0.0490672
0.0597797
0.0739453
0.0909305
0.107364
0.123276
0.141094
0.16141
0.185365
0.205429
0.216256
0.213516
0.194084
0.165367
0.143291
0.1368
0.138579
0.148498
0.167276
0.199385
0.245364
0.313012
0.372218
0.383141
0.337741
0.252857
0.170202
0.103854
0.0400562
0.00573264
0.000463138
2.19888e-05
6.31246e-07
1.52121e-08
3.71159e-09
3.2906e-09
3.10725e-09
3.02252e-09
2.95875e-09
4.86055e-09
1.22873e-07
5.05559e-06
0.000103822
0.00131108
0.000170811
0.000169714
0.00022287
0.000312082
0.000422256
0.000564913
0.000739256
0.000954588
0.00121812
0.00154137
0.00194153
0.00241704
0.00298791
0.00365369
0.00444608
0.00538371
0.00652726
0.00791158
0.00961249
0.011604
0.0137976
0.0161823
0.0188094
0.0216325
0.0245035
0.0270444
0.0290787
0.0305946
0.0318375
0.0332935
0.035453
0.0388919
0.0443311
0.0525956
0.0647374
0.0826774
0.107148
0.140284
0.176846
0.197245
0.186613
0.152103
0.107448
0.0598438
0.0201777
0.00204617
0.000110723
4.12718e-06
1.07048e-07
1.03699e-08
7.02103e-09
5.43068e-09
4.59496e-09
3.97477e-09
3.68508e-09
5.38399e-09
1.23456e-07
5.05608e-06
0.000103735
0.00240235
0.000354352
0.000171164
0.000113609
0.000127679
0.000160912
0.000214027
0.000281718
0.000367718
0.000471537
0.000597141
0.000746948
0.000922576
0.00112953
0.00137082
0.00165826
0.00199813
0.00241299
0.00291398
0.00353262
0.00427625
0.0051464
0.0061384
0.00726153
0.00850144
0.00983308
0.0111939
0.0125535
0.0139297
0.0153676
0.0169593
0.018905
0.0214992
0.0250988
0.030162
0.0371807
0.0469766
0.0587615
0.0704723
0.0804353
0.0850865
0.0830571
0.0737031
0.0555975
0.0311515
0.00945392
0.000665177
2.53818e-05
6.60659e-07
4.99526e-08
3.31747e-08
2.78846e-08
2.31368e-08
2.02293e-08
1.78151e-08
1.64766e-08
1.73677e-08
1.34954e-07
5.0614e-06
0.000103575
0.00569277
0.00129561
0.00067451
0.000292595
0.00021127
0.000169795
0.000177008
0.00019937
0.000236878
0.000286181
0.000348088
0.00042118
0.000507522
0.000608127
0.000723762
0.000860342
0.00101889
0.00120994
0.00143737
0.00171529
0.00204651
0.00243582
0.00287945
0.00337691
0.00392099
0.00450378
0.00510296
0.00571416
0.00634271
0.00700695
0.00774517
0.00863645
0.00980084
0.0113916
0.0135941
0.016593
0.0206251
0.0257815
0.0318153
0.037501
0.0416483
0.0421326
0.0375474
0.0279959
0.0150586
0.00373834
0.000184252
5.38887e-06
3.01431e-07
2.31652e-07
2.41324e-07
2.43573e-07
2.45328e-07
2.42967e-07
2.43012e-07
2.39587e-07
2.42265e-07
3.57133e-07
5.27279e-06
0.00010373
0.0112074
0.0048443
0.0034597
0.00181211
0.00133664
0.000929719
0.0007799
0.000687547
0.000645116
0.000634734
0.000656359
0.000685559
0.000737413
0.000792809
0.000857887
0.000920091
0.000975519
0.00102352
0.00106582
0.00110965
0.00116558
0.00124414
0.00134227
0.0014596
0.00159369
0.00174739
0.0019209
0.00211751
0.0023398
0.00259454
0.00289092
0.00324676
0.00368701
0.00424694
0.00497304
0.00591368
0.00713955
0.00850548
0.00985996
0.0109419
0.0114175
0.011146
0.0104111
0.00818674
0.0042208
0.000757893
2.60907e-05
2.48617e-06
2.4243e-06
2.68724e-06
2.8903e-06
2.98292e-06
3.07231e-06
3.08983e-06
3.13769e-06
3.12328e-06
3.16312e-06
3.24872e-06
8.17329e-06
0.000106359
0.0239988
0.0198248
0.019853
0.0147973
0.0131616
0.0109251
0.00995183
0.0090752
0.00851447
0.00802678
0.00779165
0.00754985
0.00744513
0.00730846
0.00721934
0.00704022
0.00677029
0.00638838
0.0059113
0.00536668
0.00481955
0.00432483
0.00387932
0.00348247
0.00312498
0.00281564
0.00256792
0.00238538
0.00226517
0.00219753
0.00216815
0.00216244
0.00216578
0.00217258
0.00218723
0.00221494
0.00223265
0.00224004
0.00223317
0.00219551
0.00211305
0.00198407
0.00184418
0.00143967
0.000660936
9.41922e-05
2.19971e-05
2.3295e-05
2.58331e-05
2.74014e-05
2.87234e-05
2.92546e-05
2.99314e-05
3.00062e-05
3.04299e-05
3.03051e-05
3.06648e-05
3.05383e-05
3.53549e-05
0.000122856
0.0606293
0.0808308
0.117918
0.124797
0.133131
0.134859
0.135384
0.133891
0.130623
0.126822
0.121617
0.116566
0.110554
0.104959
0.09874
0.0927077
0.0861894
0.0796393
0.0727554
0.0658677
0.0589461
0.052297
0.0459339
0.0400272
0.034576
0.0296672
0.0253164
0.0215608
0.018361
0.0156645
0.0133947
0.0114905
0.0098709
0.00846108
0.00719567
0.00603474
0.00496593
0.00396028
0.00304378
0.00224768
0.00159358
0.00109161
0.000736707
0.000493046
0.000316702
0.000229218
0.000201922
0.000188599
0.000180855
0.000174707
0.000172834
0.000169526
0.000170221
0.000167873
0.00016974
0.000167476
0.000170094
0.000167515
0.000171537
0.00018141
0.0496122
0.0708649
0.106319
0.115972
0.126848
0.1303
0.132388
0.132036
0.129367
0.125967
0.120822
0.115665
0.109393
0.103422
0.0968874
0.0906279
0.0839319
0.077174
0.0701106
0.0630621
0.0560517
0.0493667
0.0430422
0.0372391
0.0319794
0.0273512
0.0233172
0.0198562
0.0169104
0.0144297
0.0123453
0.0106015
0.00912686
0.00785609
0.00672778
0.00569609
0.00474181
0.00385253
0.00301842
0.00227808
0.00165426
0.00115895
0.000791327
0.000526426
0.000331068
0.000230334
0.000199813
0.000186372
0.000178957
0.000173324
0.000171757
0.000168759
0.000169542
0.00016737
0.000169226
0.00016708
0.000169623
0.00016719
0.000171956
0.000192966
0.0206197
0.0169673
0.0186081
0.0151403
0.0139731
0.0120653
0.0110378
0.0100586
0.00932607
0.00857421
0.00814458
0.007642
0.00730685
0.00701951
0.00685085
0.00666151
0.00636734
0.0059352
0.00538666
0.00477594
0.00417169
0.00364072
0.00318995
0.00281472
0.00250466
0.00226837
0.0020928
0.00196601
0.001883
0.00183954
0.00182927
0.00184341
0.00187406
0.00191499
0.00196797
0.00203448
0.00211417
0.00220077
0.00229062
0.00234487
0.00230763
0.00213899
0.00184438
0.00137745
0.000645221
0.000103781
2.27886e-05
2.35807e-05
2.59125e-05
2.73097e-05
2.84996e-05
2.89172e-05
2.95498e-05
2.95389e-05
2.99872e-05
2.97723e-05
3.01971e-05
2.9962e-05
3.50965e-05
0.000125948
0.0082115
0.00409544
0.00335424
0.0020122
0.00157697
0.00114822
0.000961586
0.000820421
0.000740785
0.000683619
0.000673533
0.000661699
0.000682001
0.000709771
0.000758586
0.000809423
0.000850286
0.000877796
0.000896112
0.000915566
0.000947914
0.00100289
0.00107928
0.00117656
0.00129223
0.00142838
0.0015853
0.00176707
0.00197777
0.0022238
0.0025151
0.0028703
0.00331323
0.00387993
0.00462082
0.00559571
0.00688935
0.00839714
0.00979622
0.0107822
0.0108859
0.0100086
0.00855784
0.00668298
0.00356335
0.000717467
2.58034e-05
2.37309e-06
2.26904e-06
2.47712e-06
2.64739e-06
2.72391e-06
2.81069e-06
2.8239e-06
2.87783e-06
2.86297e-06
2.90922e-06
2.99791e-06
7.9652e-06
0.000106907
0.00431258
0.00110664
0.000681659
0.000326927
0.00025017
0.0002007
0.000205087
0.000225514
0.000265102
0.000318421
0.000387036
0.000468841
0.000565737
0.000678377
0.000807468
0.000956073
0.00112693
0.00132951
0.00156643
0.00185073
0.00218242
0.00256249
0.00298442
0.00344603
0.00393694
0.00445074
0.00498994
0.00557383
0.00621333
0.00692644
0.0077534
0.00877961
0.0101293
0.0119872
0.0146119
0.0183416
0.0236284
0.0309498
0.0407105
0.0486382
0.0491233
0.0422841
0.0327768
0.0244325
0.013919
0.0037612
0.000199379
5.08853e-06
2.27714e-07
1.60607e-07
1.7453e-07
1.81958e-07
1.89545e-07
1.9127e-07
1.95675e-07
1.94945e-07
2.00256e-07
3.17128e-07
5.24606e-06
0.00010398
0.00245319
0.00035738
0.000202585
0.000141812
0.000169989
0.00022325
0.000307162
0.000417169
0.000560285
0.000735865
0.000950389
0.00120694
0.00150702
0.00185624
0.00225578
0.00272561
0.00329412
0.00400186
0.00486814
0.00595396
0.00726546
0.00878805
0.0104767
0.0122787
0.0141133
0.0159394
0.017773
0.019654
0.0216255
0.0236732
0.0258551
0.0284983
0.0321388
0.037717
0.0464777
0.0601391
0.0809772
0.110318
0.145458
0.172026
0.160228
0.127611
0.0964042
0.0709163
0.0411878
0.0132624
0.00112626
3.92509e-05
1.0039e-06
2.9569e-08
1.22439e-08
1.24623e-08
1.29253e-08
1.30002e-08
1.32619e-08
1.31986e-08
1.53349e-08
1.33435e-07
5.05996e-06
0.000103586
0.00158873
0.00017598
0.000160795
0.000204827
0.000297218
0.0004284
0.000608804
0.000843082
0.00114701
0.00152113
0.00198462
0.00254688
0.00319894
0.00395823
0.00478414
0.00572728
0.00693312
0.00849394
0.0104263
0.0128605
0.0158014
0.0191404
0.0227304
0.0263618
0.0297783
0.0328664
0.0358007
0.0388662
0.042163
0.045549
0.0491065
0.0534631
0.0599397
0.0706101
0.0883262
0.117723
0.166507
0.241133
0.335264
0.419015
0.376133
0.282164
0.205904
0.146935
0.0871293
0.0317071
0.00406229
0.000194422
6.96027e-06
1.54556e-07
5.46181e-09
3.35938e-09
3.36277e-09
3.32527e-09
3.3556e-09
3.3296e-09
5.27298e-09
1.23197e-07
5.04352e-06
0.000103422
0.00130916
0.000327648
0.000550682
0.000862813
0.00123957
0.00176421
0.00249587
0.00349095
0.00482267
0.00648717
0.00856558
0.0110792
0.0138298
0.0169122
0.0200291
0.023723
0.0295132
0.0379394
0.0491051
0.0643692
0.0842892
0.10759
0.13241
0.154752
0.170503
0.177749
0.179638
0.179334
0.178055
0.173442
0.164953
0.158041
0.158432
0.170191
0.198166
0.25272
0.354517
0.505656
0.677696
0.786224
0.698159
0.533625
0.381586
0.247953
0.144372
0.0584535
0.0100761
0.000684939
2.98524e-05
7.57294e-07
1.48113e-08
3.02452e-09
2.91304e-09
2.87442e-09
2.90165e-09
2.88123e-09
4.81685e-09
1.22614e-07
5.04174e-06
0.000103469
0.00267647
0.00235101
0.00488195
0.00822874
0.01101
0.0148369
0.020263
0.0280268
0.0389206
0.053198
0.0722321
0.096842
0.123704
0.154765
0.180119
0.213712
0.275726
0.37761
0.512984
0.702309
0.962195
1.27425
1.61179
1.91966
2.15747
2.28626
2.33783
2.33458
2.26603
2.08336
1.75555
1.36705
1.01509
0.765377
0.640322
0.642404
0.72857
0.858496
0.962548
0.949133
0.812555
0.628162
0.436776
0.274301
0.161049
0.0763001
0.0190714
0.00186518
9.93987e-05
3.06787e-06
6.10732e-08
3.58335e-09
2.89863e-09
2.8577e-09
2.89054e-09
2.87062e-09
4.80735e-09
1.22541e-07
5.04407e-06
0.000103596
0.0223971
0.0170896
0.0373019
0.075559
0.109513
0.156232
0.21564
0.301221
0.408379
0.535315
0.709597
0.960906
1.21705
1.49988
1.66581
1.70938
1.9196
2.48523
3.15996
3.8755
4.67978
5.44575
6.03711
6.39972
6.52182
6.46722
6.29002
6.00985
5.61791
5.10478
4.51785
3.89328
3.25538
2.62697
2.05705
1.60678
1.30872
1.12631
0.996359
0.830148
0.625786
0.438075
0.295606
0.197126
0.133516
0.0765937
0.0244645
0.0032778
0.000224083
8.69013e-06
2.06721e-07
5.88686e-09
2.92123e-09
2.85812e-09
2.89443e-09
2.87402e-09
4.81007e-09
1.22425e-07
5.04507e-06
0.000103687
0.0566041
0.104166
0.262998
0.613563
0.926849
1.22468
1.47651
1.75103
2.05177
2.2972
2.48691
2.67622
2.83867
2.9482
3.04636
3.06618
3.05051
3.1048
3.24988
3.38693
3.45208
3.42388
3.32893
3.1907
3.01155
2.79833
2.56107
2.3156
2.06911
1.82898
1.60247
1.38809
1.18414
0.999848
0.839482
0.700721
0.594187
0.527447
0.486858
0.429346
0.343293
0.257236
0.187996
0.141801
0.112906
0.0747962
0.0278839
0.00468834
0.000401632
1.9118e-05
5.3878e-07
1.21193e-08
2.99607e-09
2.86049e-09
2.89614e-09
2.87526e-09
4.80911e-09
1.22327e-07
5.04401e-06
0.000103704
0.0510329
0.0497908
0.299189
0.834545
1.0174
1.1837
1.31782
1.42019
1.49424
1.54844
1.5898
1.61321
1.60795
1.57712
1.54045
1.51342
1.42587
1.31649
1.24939
1.21842
1.21934
1.25133
1.29252
1.32278
1.3291
1.31393
1.28425
1.23826
1.16587
1.0667
0.944028
0.799618
0.648536
0.509508
0.390924
0.295035
0.225771
0.18199
0.156919
0.141262
0.125801
0.112178
0.103986
0.100631
0.0969476
0.0675721
0.0243395
0.00410419
0.000362171
1.77843e-05
5.12654e-07
1.17515e-08
2.98888e-09
2.85843e-09
2.89358e-09
2.87327e-09
4.80926e-09
1.22445e-07
5.04586e-06
0.000103671
0.0502052
0.0224214
0.337276
1.37543
1.86716
2.27641
2.52919
2.69787
2.81083
2.85394
2.84695
2.81059
2.73875
2.63756
2.50128
2.34098
2.20069
2.08807
2.02677
2.01624
2.04626
2.09959
2.14389
2.15112
2.11861
2.06744
1.99926
1.89651
1.7465
1.54746
1.31102
1.06163
0.81974
0.605803
0.431136
0.29985
0.211636
0.159714
0.132902
0.118155
0.10813
0.1021
0.0993867
0.101104
0.0991092
0.0643015
0.0209392
0.00350904
0.000315203
1.57542e-05
4.5956e-07
1.08532e-08
2.97465e-09
2.85464e-09
2.88983e-09
2.86998e-09
4.80501e-09
1.22395e-07
5.04306e-06
0.000103599
0.0492586
0.0207801
0.48509
1.61977
2.09311
2.4354
2.56004
2.62019
2.68019
2.70839
2.72169
2.77061
2.82826
2.85734
2.84326
2.76781
2.64695
2.53015
2.46499
2.46206
2.50795
2.56413
2.63046
2.69426
2.70787
2.67215
2.61319
2.53896
2.4147
2.21124
1.93255
1.58281
1.19503
0.843047
0.571284
0.381629
0.262213
0.193182
0.15637
0.135389
0.121105
0.111158
0.104572
0.102669
0.0995105
0.067049
0.0227595
0.00383018
0.000343553
1.71165e-05
4.97181e-07
1.14773e-08
2.97932e-09
2.85258e-09
2.88749e-09
2.86729e-09
4.80158e-09
1.22329e-07
5.03998e-06
0.000103521
0.0474926
0.0612424
0.231318
0.638413
0.755679
0.856468
0.924919
1.01282
1.10099
1.19103
1.29848
1.44004
1.58363
1.69482
1.74131
1.72769
1.68809
1.6569
1.65559
1.69633
1.79054
1.91824
2.05763
2.18828
2.2966
2.40321
2.53173
2.6378
2.65549
2.62949
2.582
2.43967
2.11614
1.62848
1.13226
0.745184
0.489057
0.336656
0.258082
0.214452
0.180571
0.152822
0.132611
0.118481
0.106749
0.0750181
0.0287564
0.00494759
0.000439401
2.14659e-05
6.12009e-07
1.33479e-08
3.00022e-09
2.8541e-09
2.88893e-09
2.86869e-09
4.80283e-09
1.22344e-07
5.04029e-06
0.000103541
0.06377
0.10141
0.306471
0.477288
0.536752
0.695811
0.834124
0.987101
1.17704
1.41057
1.6781
1.97156
2.30782
2.57716
2.66711
2.647
2.66384
2.75304
2.91683
3.15153
3.49647
3.99194
4.59439
5.18604
5.69537
6.13564
6.36232
6.05897
5.08335
3.7627
2.62492
1.83511
1.27514
0.857072
0.562124
0.37226
0.264443
0.218645
0.2126
0.215089
0.206606
0.188181
0.166208
0.142983
0.120348
0.0849446
0.034982
0.00601169
0.000502505
2.29157e-05
6.15432e-07
1.29388e-08
2.9988e-09
2.86028e-09
2.89437e-09
2.87417e-09
4.8123e-09
1.22575e-07
5.04842e-06
0.000103692
0.0926676
0.0925119
0.118738
0.161669
0.283443
0.465777
0.800221
1.18984
1.76693
2.38424
2.85686
3.154
3.27565
3.08898
2.60098
2.26843
2.3534
2.63537
3.0755
3.60708
4.17284
4.73079
5.10953
5.17647
4.99706
4.55206
3.80575
2.87011
1.96916
1.28329
0.857038
0.604192
0.439846
0.328941
0.259389
0.223794
0.222379
0.261315
0.340734
0.41683
0.394305
0.322793
0.255166
0.196087
0.146224
0.091038
0.0310988
0.00402504
0.000259723
9.46551e-06
2.11642e-07
5.76985e-09
2.91837e-09
2.85953e-09
2.89398e-09
2.87454e-09
4.81398e-09
1.22671e-07
5.05146e-06
0.000103723
0.0221818
0.0416676
0.0887053
0.190989
0.382289
0.754228
1.27463
1.9843
2.8361
3.65345
4.28721
4.68699
4.77571
4.53548
4.0288
3.66924
3.83734
4.30111
4.96161
5.77586
6.65201
7.38769
7.77366
7.77076
7.39431
6.70444
5.78213
4.7224
3.3837
2.04763
1.06877
0.56668
0.435927
0.397602
0.399051
0.431536
0.485353
0.535699
0.54167
0.508006
0.447542
0.380864
0.311228
0.239433
0.172389
0.0983887
0.0295946
0.00343351
0.000208455
7.25191e-06
1.57401e-07
4.98074e-09
2.91634e-09
2.86334e-09
2.89663e-09
2.87643e-09
4.81283e-09
1.22539e-07
5.04745e-06
0.000103703
0.00586979
0.00600227
0.0135483
0.0271455
0.0483967
0.0837235
0.134148
0.194939
0.252161
0.294745
0.321895
0.367742
0.425381
0.431731
0.4031
0.407434
0.468074
0.58916
0.758391
0.996389
1.3372
1.70015
1.85591
1.79928
1.65862
1.48546
1.26176
0.994191
0.686648
0.460146
0.341689
0.291579
0.271236
0.265267
0.269365
0.280737
0.296914
0.315104
0.335929
0.348226
0.3372
0.30677
0.261745
0.200605
0.125414
0.0494205
0.00887975
0.000802183
4.38002e-05
1.43902e-06
3.2546e-08
3.29119e-09
2.91343e-09
2.87406e-09
2.90785e-09
2.88725e-09
4.82552e-09
1.22598e-07
5.04895e-06
0.000103751
0.00309526
0.000508386
0.000812051
0.00142055
0.00230434
0.00355241
0.00516356
0.00684869
0.0082511
0.00903758
0.00939929
0.0106915
0.013115
0.0147282
0.0151302
0.0179708
0.0225498
0.0289957
0.0380425
0.0515155
0.0710602
0.094925
0.118607
0.140749
0.157108
0.166452
0.163581
0.151143
0.132966
0.121737
0.11906
0.120776
0.12643
0.13647
0.153177
0.184304
0.237289
0.310474
0.393136
0.431421
0.408356
0.331046
0.227527
0.133716
0.0653618
0.02268
0.00280186
0.00017289
7.37119e-06
2.01995e-07
7.13416e-09
3.58832e-09
3.43625e-09
3.33327e-09
3.31295e-09
3.2672e-09
5.19404e-09
1.23276e-07
5.05775e-06
0.000103856
0.00505289
0.000606747
0.000312063
0.000232473
0.000285744
0.000376606
0.000506649
0.000647783
0.000787307
0.000900607
0.00100093
0.00115807
0.00137742
0.00164361
0.00195833
0.00235208
0.00283775
0.00345525
0.0042311
0.0052273
0.00646342
0.00787756
0.009345
0.0108241
0.0123977
0.0140451
0.0156771
0.017397
0.0188449
0.0205205
0.0225162
0.025017
0.0283185
0.0329451
0.0395642
0.049093
0.0623419
0.0796279
0.101311
0.124799
0.134147
0.124
0.0967892
0.0621583
0.0318704
0.00979959
0.00081245
3.48355e-05
1.00985e-06
3.71868e-08
1.58751e-08
1.46515e-08
1.39146e-08
1.33428e-08
1.30276e-08
1.26985e-08
1.45677e-08
1.3254e-07
5.06422e-06
0.000103791
0.00780751
0.00184046
0.00100743
0.000457562
0.000328388
0.000253697
0.000243677
0.000255173
0.000287153
0.000333082
0.000392509
0.000464576
0.000550103
0.0006486
0.000760846
0.00089229
0.00104278
0.00122217
0.00143363
0.00169011
0.00199624
0.00235303
0.00275197
0.0031925
0.00367701
0.00420848
0.00477781
0.00538423
0.00602687
0.00672233
0.00750854
0.00844402
0.00961586
0.0111474
0.0131883
0.0159207
0.0195495
0.0242086
0.029951
0.0362182
0.0403904
0.0420005
0.0375985
0.0266182
0.0137215
0.00344126
0.000187569
5.73006e-06
2.91008e-07
2.03518e-07
2.11818e-07
2.13236e-07
2.14368e-07
2.1155e-07
2.11553e-07
2.08091e-07
2.11171e-07
3.26153e-07
5.25337e-06
0.000104044
0.0138389
0.00626668
0.00457573
0.00258081
0.00193058
0.00138888
0.00111138
0.000922878
0.000816809
0.000775823
0.000786279
0.000818167
0.00087494
0.000930735
0.000990174
0.00104291
0.00107196
0.00108203
0.00108013
0.00107758
0.00108703
0.00112666
0.00119827
0.00129763
0.00141911
0.00156331
0.00172976
0.00191893
0.0021321
0.00236882
0.00263524
0.00295473
0.00334282
0.00382733
0.00444514
0.0052352
0.00623636
0.00747021
0.00885212
0.0102041
0.0113473
0.0120701
0.0115452
0.00859768
0.00424707
0.00078842
2.97062e-05
2.75767e-06
2.57682e-06
2.79888e-06
2.96309e-06
3.02122e-06
3.08571e-06
3.07893e-06
3.11542e-06
3.0839e-06
3.12374e-06
3.19737e-06
8.16284e-06
0.000107101
0.0270388
0.0225643
0.0229167
0.0177146
0.0158172
0.0134675
0.0119432
0.0106273
0.00965731
0.00898261
0.00865822
0.00845766
0.0083515
0.00823415
0.00810189
0.00790754
0.00753279
0.00699784
0.00632878
0.00557512
0.00479772
0.00410886
0.00354535
0.00309513
0.00272309
0.0024235
0.0022028
0.00205346
0.00195929
0.00190428
0.0018743
0.00185941
0.00185181
0.00184459
0.00183889
0.00184309
0.00187294
0.00193978
0.00202983
0.00215416
0.00229707
0.00242168
0.00240023
0.0017877
0.000798234
0.000119063
2.37583e-05
2.44569e-05
2.70198e-05
2.85431e-05
2.9809e-05
3.02409e-05
3.088e-05
3.08457e-05
3.12921e-05
3.103e-05
3.14794e-05
3.11815e-05
3.63782e-05
0.00012734
0.0570152
0.0814035
0.117521
0.125742
0.13578
0.138486
0.139646
0.137798
0.134085
0.129629
0.124039
0.118661
0.112419
0.106626
0.100264
0.0941873
0.087676
0.081049
0.0740499
0.0669721
0.0597602
0.0527814
0.0461289
0.0400036
0.0343943
0.029373
0.0249521
0.0211683
0.0179732
0.0153052
0.013075
0.0112048
0.00961153
0.00822365
0.00698281
0.00585281
0.00482001
0.00387774
0.00303023
0.00227847
0.00165558
0.00117173
0.000825113
0.00055294
0.000340105
0.000231385
0.000200042
0.000186435
0.000178922
0.00017329
0.000171997
0.000169178
0.000170306
0.000168309
0.000170424
0.000168421
0.000171094
0.000168794
0.000173614
0.000195686
0.0535083
0.0674357
0.104461
0.113653
0.122351
0.124092
0.124406
0.122713