/*--------------------------------*- C++ -*----------------------------------*\
| =========                 |                                                 |
| \\      /  F ield         | OpenFOAM: The Open Source CFD Toolbox           |
|  \\    /   O peration     | Version:  2.1.1                                 |
|   \\  /    A nd           | Web:      www.OpenFOAM.org                      |
|    \\/     M anipulation  |                                                 |
\*---------------------------------------------------------------------------*/
FoamFile
{
    version     2.0;
    format      ascii;
    class       volScalarField;
    location    "0.001";
    object      Lzero;
}
// * * * * * * * * * * * * * * * * * * * * * * * * * * * * * * * * * * * * * //

dimensions      [0 1 0 0 0 0 0];

internalField   nonuniform List<scalar> 
36520
(
9.27988e-05
9.2874e-05
9.29627e-05
9.29829e-05
9.30128e-05
9.30345e-05
9.30604e-05
9.30762e-05
9.30911e-05
9.30964e-05
9.31031e-05
9.31011e-05
9.31036e-05
9.31034e-05
9.31077e-05
9.31211e-05
9.31442e-05
9.31776e-05
9.32195e-05
9.32668e-05
9.33153e-05
9.33602e-05
9.33988e-05
9.34301e-05
9.3455e-05
9.34766e-05
9.34963e-05
9.35138e-05
9.35277e-05
9.35378e-05
9.35457e-05
9.35546e-05
9.35689e-05
9.35935e-05
9.3635e-05
9.37022e-05
9.38034e-05
9.39465e-05
9.41378e-05
9.43576e-05
9.46841e-05
9.49083e-05
9.49431e-05
9.54418e-05
9.61637e-05
9.41459e-05
9.28318e-05
9.25633e-05
9.23691e-05
9.22444e-05
9.21687e-05
9.21191e-05
9.21045e-05
9.20839e-05
9.20898e-05
9.20798e-05
9.20893e-05
9.20828e-05
9.20929e-05
9.2116e-05
0.000195135
5.71801e-05
5.35396e-05
4.92529e-05
4.6359e-05
4.43005e-05
4.32666e-05
4.26569e-05
4.24489e-05
4.23531e-05
4.24396e-05
4.24632e-05
4.24955e-05
4.24115e-05
4.22213e-05
4.18735e-05
4.13369e-05
4.06055e-05
3.96491e-05
3.84758e-05
3.71249e-05
3.56147e-05
3.39135e-05
3.20176e-05
2.99342e-05
2.76234e-05
2.50514e-05
2.24302e-05
2.0088e-05
1.81124e-05
1.64834e-05
1.50848e-05
1.37864e-05
1.24628e-05
1.10805e-05
9.70195e-06
8.41279e-06
7.32572e-06
6.51816e-06
6.0133e-06
5.74416e-06
5.65154e-06
5.60993e-06
5.08674e-06
3.93724e-06
2.11426e-06
4.56027e-06
8.98004e-06
9.47221e-06
9.6614e-06
9.85727e-06
9.87489e-06
9.99651e-06
9.92465e-06
1.00429e-05
9.89733e-06
1.00585e-05
9.85248e-06
1.12335e-05
0.000193737
0.000195368
3.38226e-05
2.93127e-05
2.50875e-05
2.25287e-05
2.0819e-05
1.99856e-05
1.94914e-05
1.91943e-05
1.89576e-05
1.88055e-05
1.86138e-05
1.84737e-05
1.82523e-05
1.7972e-05
1.75056e-05
1.68031e-05
1.58265e-05
1.45646e-05
1.30638e-05
1.15093e-05
1.01269e-05
9.03015e-06
8.27341e-06
7.81527e-06
7.55735e-06
7.4131e-06
7.35767e-06
7.3748e-06
7.43336e-06
7.51136e-06
7.60023e-06
7.70268e-06
7.8315e-06
8.01392e-06
8.2812e-06
8.669e-06
9.20396e-06
9.89561e-06
1.07093e-05
1.15105e-05
1.20056e-05
1.198e-05
1.06222e-05
8.18112e-06
4.39129e-06
1.08954e-06
1.35169e-06
1.99273e-06
1.94811e-06
1.92005e-06
1.8849e-06
1.88107e-06
1.84844e-06
1.85872e-06
1.81972e-06
1.84595e-06
1.83199e-06
3.95294e-06
0.000193704
0.000195279
2.07237e-05
1.62397e-05
1.28103e-05
1.08304e-05
9.31544e-06
8.40806e-06
7.75203e-06
7.32062e-06
7.07089e-06
6.99133e-06
7.00291e-06
7.12127e-06
7.24684e-06
7.38924e-06
7.49711e-06
7.58226e-06
7.68042e-06
7.82039e-06
8.03486e-06
8.33483e-06
8.7078e-06
9.12073e-06
9.54347e-06
9.94472e-06
1.03139e-05
1.06571e-05
1.09758e-05
1.12615e-05
1.15442e-05
1.17999e-05
1.20172e-05
1.22211e-05
1.24686e-05
1.28281e-05
1.33612e-05
1.41377e-05
1.52055e-05
1.65822e-05
1.82161e-05
1.98404e-05
2.07988e-05
2.07783e-05
1.91338e-05
1.48142e-05
8.80109e-06
2.36731e-06
4.81174e-07
3.69724e-07
4.47871e-07
3.96523e-07
3.65838e-07
3.49034e-07
3.36193e-07
3.32003e-07
3.22911e-07
3.26132e-07
4.41206e-07
3.84242e-06
0.000193692
0.000195324
1.10216e-05
7.01713e-06
4.43445e-06
3.58763e-06
3.37093e-06
3.56132e-06
3.88424e-06
4.29783e-06
4.75279e-06
5.23913e-06
5.7416e-06
6.25063e-06
6.7683e-06
7.29153e-06
7.84353e-06
8.4374e-06
9.09693e-06
9.8306e-06
1.06568e-05
1.15567e-05
1.24823e-05
1.33946e-05
1.42445e-05
1.49802e-05
1.55982e-05
1.6151e-05
1.66424e-05
1.69839e-05
1.73026e-05
1.76927e-05
1.81949e-05
1.85976e-05
1.88168e-05
1.91546e-05
1.97421e-05
2.07065e-05
2.21331e-05
2.40895e-05
2.65956e-05
2.91395e-05
3.03379e-05
2.98548e-05
2.79251e-05
2.37892e-05
1.52909e-05
5.03863e-06
1.10382e-06
1.96707e-07
9.12325e-08
9.21191e-08
7.30185e-08
6.10932e-08
5.54423e-08
5.23088e-08
5.00762e-08
5.54799e-08
3.06996e-07
4.03846e-06
0.000193688
0.0001953
2.13673e-06
1.47701e-06
1.41308e-06
1.59901e-06
1.89064e-06
2.27274e-06
2.74282e-06
3.31058e-06
3.96512e-06
4.69344e-06
5.50407e-06
6.39016e-06
7.30311e-06
8.25165e-06
9.27812e-06
1.04169e-05
1.17111e-05
1.31947e-05
1.49171e-05
1.68789e-05
1.9012e-05
2.13178e-05
2.3712e-05
2.59971e-05
2.80305e-05
2.99642e-05
3.17771e-05
3.25974e-05
3.23646e-05
3.13464e-05
3.0022e-05
2.89457e-05
2.8327e-05
2.81434e-05
2.83539e-05
2.92053e-05
3.08915e-05
3.33708e-05
3.65384e-05
3.93556e-05
4.00638e-05
3.88018e-05
3.64646e-05
3.19357e-05
2.3404e-05
9.45747e-06
2.4985e-06
5.11874e-07
8.3607e-08
2.15457e-08
1.84354e-08
1.75698e-08
1.70104e-08
1.69875e-08
1.67067e-08
2.59741e-08
3.0804e-07
4.06094e-06
0.000193687
0.000195301
1.87979e-06
2.29312e-06
2.72966e-06
3.12546e-06
3.51208e-06
3.92379e-06
4.41952e-06
5.0131e-06
5.76903e-06
6.67925e-06
7.77272e-06
9.0703e-06
1.05644e-05
1.22122e-05
1.40882e-05
1.62623e-05
1.87417e-05
2.16342e-05
2.51253e-05
2.91628e-05
3.31907e-05
3.75486e-05
4.21908e-05
4.57298e-05
4.78552e-05
4.94501e-05
5.09674e-05
5.20098e-05
5.21722e-05
5.11871e-05
4.89951e-05
4.58977e-05
4.25875e-05
3.99291e-05
3.86931e-05
3.87585e-05
3.99389e-05
4.19843e-05
4.45094e-05
4.63836e-05
4.63508e-05
4.47397e-05
4.2736e-05
3.95657e-05
3.15165e-05
1.58784e-05
5.11392e-06
1.20449e-06
2.155e-07
3.34577e-08
1.57376e-08
1.55481e-08
1.53453e-08
1.55402e-08
1.53584e-08
2.48846e-08
3.08068e-07
4.05976e-06
0.000193686
0.000194472
5.66645e-06
7.07324e-06
8.88926e-06
1.07123e-05
1.22325e-05
1.35633e-05
1.50381e-05
1.6397e-05
1.80137e-05
1.9811e-05
2.16578e-05
2.39867e-05
2.62417e-05
2.82494e-05
3.13069e-05
3.58348e-05
4.01506e-05
4.42438e-05
4.87259e-05
5.34485e-05
5.7383e-05
6.02258e-05
6.22199e-05
6.35944e-05
6.4505e-05
6.49974e-05
6.5134e-05
6.49153e-05
6.4379e-05
6.34822e-05
6.20469e-05
5.99125e-05
5.71138e-05
5.38642e-05
5.06705e-05
4.8627e-05
4.82117e-05
4.88635e-05
4.97649e-05
4.99099e-05
4.89593e-05
4.7583e-05
4.66516e-05
4.54526e-05
3.96124e-05
2.41688e-05
9.16063e-06
2.45531e-06
4.91606e-07
7.74667e-08
1.7895e-08
1.55281e-08
1.52888e-08
1.55086e-08
1.53209e-08
2.48413e-08
3.07718e-07
4.05708e-06
0.000193669
0.000194223
1.10671e-05
1.53736e-05
2.05251e-05
2.4487e-05
2.8658e-05
3.22519e-05
3.6641e-05
3.95432e-05
4.24507e-05
4.5567e-05
4.80753e-05
4.97488e-05
5.08577e-05
5.12442e-05
5.13763e-05
5.24048e-05
5.43372e-05
5.65206e-05
5.87637e-05
6.101e-05
6.29946e-05
6.4578e-05
6.57342e-05
6.64116e-05
6.66382e-05
6.64938e-05
6.59467e-05
6.49346e-05
6.35671e-05
6.19794e-05
6.03195e-05
5.87112e-05
5.72155e-05
5.58008e-05
5.41613e-05
5.19775e-05
4.97925e-05
4.81896e-05
4.70825e-05
4.63994e-05
4.65761e-05
4.85542e-05
5.26434e-05
5.66023e-05
5.39774e-05
3.73702e-05
1.63955e-05
4.97265e-06
1.10764e-06
1.88436e-07
2.92363e-08
1.57184e-08
1.52733e-08
1.55072e-08
1.52961e-08
2.48308e-08
3.07148e-07
4.05648e-06
0.000193651
0.000193981
1.15417e-05
1.71199e-05
2.27045e-05
2.78873e-05
3.17595e-05
3.50275e-05
3.86553e-05
4.22978e-05
4.58507e-05
4.94765e-05
5.31454e-05
5.62367e-05
5.8523e-05
5.93215e-05
5.9592e-05
6.03352e-05
6.15074e-05
6.27604e-05
6.42274e-05
6.61336e-05
6.83694e-05
7.06935e-05
7.26049e-05
7.36129e-05
7.36153e-05
7.28802e-05
7.16242e-05
6.99187e-05
6.78034e-05
6.52409e-05
6.22348e-05
5.8591e-05
5.43891e-05
5.02836e-05
4.69603e-05
4.4702e-05
4.32731e-05
4.2593e-05
4.28157e-05
4.45562e-05
4.84967e-05
5.46972e-05
6.16797e-05
6.55924e-05
6.10768e-05
4.17685e-05
1.85879e-05
5.75557e-06
1.30402e-06
2.23877e-07
3.33456e-08
1.5796e-08
1.52512e-08
1.55014e-08
1.52793e-08
2.48358e-08
3.07185e-07
4.05801e-06
0.000193644
0.000194042
1.3369e-05
2.94525e-05
3.94461e-05
4.57199e-05
5.10864e-05
5.60898e-05
6.12829e-05
6.61679e-05
7.1028e-05
7.62054e-05
8.10985e-05
8.54487e-05
8.88006e-05
9.09209e-05
9.20301e-05
9.31396e-05
9.45321e-05
9.65668e-05
9.94346e-05
0.000102936
0.000106541
0.000109668
0.00011174
0.000112363
0.000111645
0.000109875
0.000107195
0.000103621
9.91149e-05
9.34125e-05
8.62364e-05
7.72929e-05
6.67611e-05
5.68895e-05
4.92593e-05
4.41192e-05
4.16437e-05
4.10721e-05
4.15261e-05
4.29388e-05
4.55224e-05
4.89983e-05
5.28799e-05
5.55359e-05
5.28491e-05
3.84247e-05
1.80632e-05
5.77387e-06
1.33004e-06
2.30011e-07
3.41645e-08
1.58009e-08
1.52371e-08
1.54845e-08
1.52673e-08
2.48276e-08
3.07578e-07
4.06217e-06
0.000193659
0.000193904
1.72498e-05
3.24825e-05
3.44131e-05
3.89565e-05
4.91777e-05
6.08687e-05
7.23631e-05
8.29415e-05
9.27844e-05
0.000101167
0.000106451
0.000109456
0.000110825
0.000110557
0.000108775
0.000106138
0.000105472
0.000107481
0.0001118
0.000117688
0.000123992
0.000129247
0.000132411
0.000133229
0.000132164
0.000130155
0.000127669
0.000124823
0.00012138
0.000115791
0.000107624
9.75973e-05
8.61147e-05
7.23406e-05
5.88194e-05
4.85451e-05
4.38323e-05
4.41792e-05
4.68736e-05
4.90373e-05
4.92069e-05
4.77596e-05
4.53568e-05
4.22813e-05
3.72514e-05
2.68397e-05
1.24837e-05
3.82735e-06
8.43633e-07
1.40227e-07
2.25119e-08
1.54922e-08
1.52632e-08
1.54617e-08
1.52779e-08
2.4814e-08
3.0845e-07
4.06966e-06
0.000193691
0.000193574
2.12983e-05
3.19857e-05
3.4252e-05
4.10901e-05
5.44218e-05
6.66333e-05
7.81096e-05
8.86592e-05
9.81507e-05
0.000105782
0.000110285
0.00011281
0.000113697
0.000112664
0.000110119
0.000107368
0.000106421
0.000107779
0.000111229
0.000116528
0.00012217
0.000126048
0.00012757
0.00012751
0.000126587
0.00012556
0.000124164
0.000121643
0.000117464
0.000111269
0.00010308
9.32484e-05
8.20198e-05
6.94667e-05
5.73728e-05
4.8598e-05
4.56128e-05
4.79637e-05
5.2945e-05
5.51483e-05
5.39401e-05
5.07196e-05
4.66439e-05
4.25149e-05
3.7025e-05
2.64439e-05
1.22379e-05
3.74761e-06
8.25758e-07
1.37261e-07
2.21412e-08
1.54783e-08
1.52613e-08
1.54578e-08
1.52708e-08
2.48078e-08
3.08196e-07
4.0664e-06
0.00019369
0.0001946
1.73051e-05
3.48935e-05
4.51644e-05
5.34865e-05
6.21609e-05
6.94997e-05
7.52577e-05
7.96868e-05
8.33397e-05
8.68202e-05
8.9884e-05
9.21366e-05
9.34653e-05
9.36983e-05
9.29404e-05
9.18738e-05
9.0935e-05
9.07036e-05
9.20515e-05
9.48635e-05
9.8264e-05
0.0001011
0.000102756
0.000103218
0.00010247
0.000101131
9.91993e-05
9.64063e-05
9.23817e-05
8.66098e-05
7.91211e-05
7.03103e-05
6.11713e-05
5.28919e-05
4.62453e-05
4.18546e-05
4.03765e-05
4.1546e-05
4.40939e-05
4.56935e-05
4.69444e-05
4.8694e-05
5.09446e-05
5.23901e-05
4.91565e-05
3.47777e-05
1.60989e-05
5.114e-06
1.17435e-06
2.02676e-07
3.08646e-08
1.57157e-08
1.52712e-08
1.54736e-08
1.52894e-08
2.48148e-08
3.07929e-07
4.05961e-06
0.000193685
0.000194276
1.56837e-05
2.42456e-05
3.36557e-05
4.44508e-05
5.46813e-05
5.9407e-05
6.32552e-05
6.62145e-05
6.88018e-05
7.10673e-05
7.27998e-05
7.41231e-05
7.48312e-05
7.47832e-05
7.39318e-05
7.27087e-05
7.16799e-05
7.13146e-05
7.14784e-05
7.20689e-05
7.27161e-05
7.3454e-05
7.40578e-05
7.40263e-05
7.32062e-05
7.18821e-05
7.02176e-05
6.80583e-05
6.52567e-05
6.1604e-05
5.69352e-05
5.17964e-05
4.68005e-05
4.23315e-05
3.88011e-05
3.6672e-05
3.61039e-05
3.68996e-05
3.8926e-05
4.14942e-05
4.46156e-05
4.86991e-05
5.331e-05
5.59156e-05
5.10595e-05
3.29403e-05
1.4168e-05
4.28888e-06
9.54257e-07
1.61455e-07
2.60405e-08
1.56355e-08
1.53066e-08
1.54904e-08
1.53251e-08
2.48241e-08
3.08051e-07
4.05789e-06
0.000193708
0.000194157
1.40986e-05
1.89131e-05
2.41947e-05
2.98986e-05
3.8062e-05
4.40034e-05
5.00502e-05
5.45508e-05
5.84594e-05
6.14888e-05
6.36056e-05
6.52539e-05
6.63556e-05
6.67909e-05
6.68162e-05
6.66388e-05
6.6381e-05
6.60721e-05
6.58199e-05
6.57461e-05
6.5492e-05
6.49358e-05
6.42622e-05
6.34639e-05
6.23783e-05
6.09945e-05
5.94231e-05
5.77511e-05
5.59085e-05
5.37972e-05
5.14015e-05
4.89111e-05
4.65495e-05
4.45227e-05
4.30983e-05
4.24728e-05
4.26395e-05
4.31797e-05
4.36163e-05
4.39779e-05
4.47256e-05
4.65416e-05
4.96787e-05
5.18968e-05
4.73572e-05
3.02211e-05
1.25987e-05
3.69061e-06
8.01258e-07
1.33722e-07
2.30808e-08
1.55947e-08
1.52972e-08
1.55008e-08
1.53193e-08
2.48221e-08
3.07532e-07
4.0543e-06
0.000193707
0.00019434
5.62243e-06
6.74077e-06
8.3021e-06
1.01056e-05
1.20501e-05
1.39102e-05
1.59197e-05
1.78894e-05
2.02219e-05
2.31075e-05
2.62745e-05
2.94823e-05
3.22789e-05
3.51701e-05
3.76553e-05
3.90786e-05
4.06531e-05
4.25801e-05
4.54899e-05
4.88565e-05
5.10176e-05
5.22434e-05
5.35104e-05
5.48643e-05
5.57375e-05
5.58788e-05
5.54605e-05
5.4699e-05
5.35007e-05
5.16928e-05
4.9149e-05
4.60789e-05
4.35311e-05
4.19483e-05
4.13971e-05
4.19868e-05
4.35635e-05
4.53975e-05
4.65675e-05
4.65805e-05
4.57237e-05
4.45302e-05
4.36996e-05
4.25466e-05
3.65808e-05
2.12428e-05
7.76551e-06
2.02785e-06
3.98776e-07
6.25566e-08
1.68117e-08
1.54278e-08
1.51686e-08
1.54472e-08
1.52347e-08
2.48028e-08
3.07118e-07
4.0564e-06
0.00019368
0.00019521
1.87576e-06
2.21806e-06
2.60428e-06
3.0247e-06
3.47601e-06
3.98664e-06
4.56904e-06
5.25206e-06
6.0809e-06
7.04597e-06
8.15345e-06
9.36378e-06
1.06464e-05
1.18909e-05
1.31118e-05
1.4356e-05
1.57146e-05
1.72204e-05
1.89111e-05
2.06426e-05
2.21578e-05
2.35346e-05
2.4914e-05
2.62785e-05
2.76174e-05
2.86087e-05
2.90849e-05
2.8981e-05
2.82742e-05
2.73221e-05
2.67562e-05
2.67941e-05
2.73181e-05
2.83723e-05
3.00257e-05
3.24872e-05
3.55905e-05
3.93867e-05
4.28535e-05
4.43942e-05
4.38056e-05
4.15776e-05
3.90689e-05
3.59764e-05
2.85473e-05
1.37169e-05
4.32548e-06
9.99099e-07
1.76768e-07
3.08011e-08
1.9276e-08
1.76143e-08
1.65842e-08
1.61553e-08
1.572e-08
2.50271e-08
3.07987e-07
4.06251e-06
0.000193687
0.000195345
2.34845e-06
1.5273e-06
1.56061e-06
1.82089e-06
2.17714e-06
2.61168e-06
3.10351e-06
3.67179e-06
4.29901e-06
4.96955e-06
5.67616e-06
6.38821e-06
7.09452e-06
7.79281e-06
8.50323e-06
9.2336e-06
1.00094e-05
1.08412e-05
1.17484e-05
1.27203e-05
1.37271e-05
1.47544e-05
1.57792e-05
1.67604e-05
1.76513e-05
1.84254e-05
1.91008e-05
1.96971e-05
2.02117e-05
2.06286e-05
2.09968e-05
2.14567e-05
2.21273e-05
2.30802e-05
2.43739e-05
2.61073e-05
2.82724e-05
3.08929e-05
3.406e-05
3.63093e-05
3.6623e-05
3.56121e-05
3.34881e-05
2.94121e-05
2.14384e-05
8.26748e-06
2.15462e-06
4.36423e-07
7.71914e-08
4.2e-08
3.59106e-08
2.82401e-08
2.39479e-08
2.07665e-08
1.91579e-08
2.70204e-08
3.08073e-07
4.06693e-06
0.000193692
0.000195346
1.07285e-05
5.52576e-06
3.37229e-06
3.13222e-06
3.32234e-06
3.74704e-06
4.23874e-06
4.78095e-06
5.3417e-06
5.91758e-06
6.50053e-06
7.08278e-06
7.67063e-06
8.26261e-06
8.87662e-06
9.51272e-06
1.01953e-05
1.09227e-05
1.17149e-05
1.25471e-05
1.33944e-05
1.42323e-05
1.50486e-05
1.58171e-05
1.65126e-05
1.70972e-05
1.75586e-05
1.79056e-05
1.81528e-05
1.83427e-05
1.85622e-05
1.8906e-05
1.94465e-05
2.02383e-05
2.13015e-05
2.26664e-05
2.42859e-05
2.60337e-05
2.773e-05
2.87801e-05
2.90425e-05
2.84824e-05
2.67222e-05
2.27261e-05
1.45635e-05
4.7469e-06
1.04732e-06
1.84447e-07
1.01117e-07
1.11204e-07
9.68623e-08
8.27836e-08
7.3679e-08
6.62033e-08
6.15821e-08
6.3852e-08
3.07661e-07
4.04316e-06
0.000193698
0.000195335
2.09088e-05
1.38267e-05
9.13924e-06
7.14716e-06
5.73121e-06
5.27338e-06
5.1423e-06
5.25302e-06
5.49366e-06
5.81795e-06
6.17286e-06
6.56398e-06
6.97207e-06
7.38797e-06
7.8199e-06
8.25673e-06
8.71989e-06
9.20673e-06
9.7398e-06
1.03055e-05
1.08956e-05
1.14815e-05
1.20475e-05
1.25734e-05
1.30419e-05
1.34241e-05
1.37163e-05
1.39269e-05
1.40746e-05
1.4193e-05
1.43418e-05
1.4591e-05
1.50005e-05
1.56129e-05
1.64401e-05
1.74908e-05
1.86915e-05
1.9883e-05
2.09533e-05
2.18312e-05
2.22115e-05
2.16488e-05
1.93032e-05
1.52256e-05
9.30974e-06
2.62093e-06
5.19029e-07
2.45864e-07
3.68008e-07
3.75395e-07
3.71666e-07
3.69804e-07
3.63839e-07
3.63233e-07
3.56286e-07
3.59884e-07
4.70556e-07
3.84985e-06
0.000193704
0.000195285
3.47438e-05
2.68998e-05
2.05722e-05
1.78217e-05
1.58079e-05
1.48914e-05
1.43172e-05
1.39299e-05
1.36347e-05
1.34728e-05
1.32991e-05
1.32577e-05
1.32051e-05
1.31855e-05
1.30863e-05
1.28789e-05
1.25349e-05
1.20738e-05
1.15416e-05
1.1045e-05
1.06666e-05
1.03791e-05
1.01677e-05
1.00082e-05
9.9044e-06
9.85198e-06
9.84107e-06
9.8579e-06
9.89327e-06
9.93679e-06
9.98962e-06
1.00607e-05
1.01658e-05
1.03265e-05
1.05541e-05
1.08546e-05
1.11691e-05
1.15203e-05
1.1862e-05
1.20798e-05
1.19954e-05
1.14415e-05
1.01578e-05
8.07245e-06
4.32491e-06
1.06736e-06
9.75206e-07
1.65305e-06
1.74813e-06
1.80923e-06
1.8263e-06
1.85094e-06
1.84312e-06
1.86031e-06
1.83814e-06
1.86053e-06
1.85969e-06
4.02556e-06
0.000193713
0.00019521
5.8818e-05
5.22253e-05
4.58838e-05
4.28187e-05
4.04057e-05
3.93922e-05
3.88898e-05
3.88401e-05
3.89194e-05
3.91376e-05
3.92557e-05
3.94009e-05
3.94497e-05
3.94602e-05
3.93905e-05
3.92523e-05
3.89971e-05
3.86178e-05
3.80822e-05
3.74021e-05
3.65287e-05
3.53536e-05
3.3785e-05
3.17782e-05
2.94118e-05
2.69036e-05
2.44547e-05
2.22286e-05
2.02597e-05
1.84902e-05
1.67965e-05
1.50696e-05
1.32979e-05
1.15607e-05
9.97997e-06
8.63528e-06
7.5707e-06
6.769e-06
6.1502e-06
5.62591e-06
5.10595e-06
4.75872e-06
4.29866e-06
3.36946e-06
1.90438e-06
5.28747e-06
8.66172e-06
9.20455e-06
9.44736e-06
9.6709e-06
9.70864e-06
9.82572e-06
9.77571e-06
9.86857e-06
9.76549e-06
9.87935e-06
9.74265e-06
1.10652e-05
0.000193723
9.71668e-05
9.72095e-05
9.72822e-05
9.73018e-05
9.73317e-05
9.73569e-05
9.73858e-05
9.74036e-05
9.74192e-05
9.74234e-05
9.74293e-05
9.74253e-05
9.74277e-05
9.7429e-05
9.74381e-05
9.74581e-05
9.74884e-05
9.7529e-05
9.75768e-05
9.76283e-05
9.76777e-05
9.77208e-05
9.77554e-05
9.77825e-05
9.78044e-05
9.78241e-05
9.78429e-05
9.78612e-05
9.78773e-05
9.78919e-05
9.79099e-05
9.79377e-05
9.79808e-05
9.80442e-05
9.81337e-05
9.82561e-05
9.84283e-05
9.86498e-05
9.88685e-05
9.90899e-05
9.92836e-05
9.94067e-05
9.93288e-05
9.95052e-05
9.94239e-05
9.77341e-05
9.70396e-05
9.68565e-05
9.67197e-05
9.66317e-05
9.65701e-05
9.65234e-05
9.65045e-05
9.64805e-05
9.64806e-05
9.6468e-05
9.64749e-05
9.64686e-05
9.64778e-05
9.64903e-05
9.74867e-05
9.75445e-05
9.7628e-05
9.76501e-05
9.76803e-05
9.77031e-05
9.77277e-05
9.77426e-05
9.7757e-05
9.7765e-05
9.77755e-05
9.77795e-05
9.77857e-05
9.77881e-05
9.77954e-05
9.78116e-05
9.78414e-05
9.7886e-05
9.79397e-05
9.79959e-05
9.80463e-05
9.80879e-05
9.81197e-05
9.81431e-05
9.81604e-05
9.81746e-05
9.8188e-05
9.82015e-05
9.82147e-05
9.82287e-05
9.82466e-05
9.82735e-05
9.83136e-05
9.8374e-05
9.8463e-05
9.85865e-05
9.87412e-05
9.896e-05
9.91806e-05
9.93948e-05
9.95935e-05
9.97463e-05
9.97694e-05
0.000100036
0.000100066
9.82868e-05
9.74155e-05
9.72008e-05
9.70569e-05
9.69719e-05
9.69151e-05
9.68742e-05
9.68588e-05
9.68378e-05
9.68398e-05
9.68287e-05
9.68359e-05
9.68295e-05
9.68396e-05
9.6851e-05
0.000195352
5.84742e-05
5.35244e-05
4.79771e-05
4.50362e-05
4.25755e-05
4.11636e-05
4.01566e-05
3.95784e-05
3.91356e-05
3.89838e-05
3.88383e-05
3.88154e-05
3.87174e-05
3.85983e-05
3.83563e-05
3.79867e-05
3.74629e-05
3.67652e-05
3.58591e-05
3.47339e-05
3.33722e-05
3.17105e-05
2.9699e-05
2.73627e-05
2.48952e-05
2.24376e-05
2.00871e-05
1.79573e-05
1.60947e-05
1.44761e-05
1.30132e-05
1.16409e-05
1.03125e-05
9.03883e-06
7.90064e-06
6.96266e-06
6.24435e-06
5.72324e-06
5.3189e-06
4.93232e-06
4.46864e-06
4.00293e-06
3.54324e-06
2.87307e-06
1.79055e-06
4.85843e-06
8.4064e-06
8.95888e-06
9.20673e-06
9.45583e-06
9.49494e-06
9.65085e-06
9.58508e-06
9.7269e-06
9.59234e-06
9.75728e-06
9.57364e-06
1.10065e-05
0.000193725
0.000195252
3.45145e-05
2.81393e-05
2.24242e-05
1.97386e-05
1.75384e-05
1.63236e-05
1.53711e-05
1.46788e-05
1.40488e-05
1.36258e-05
1.3123e-05
1.28162e-05
1.25194e-05
1.23635e-05
1.21667e-05
1.18307e-05
1.13127e-05
1.06536e-05
9.93747e-06
9.29379e-06
8.81112e-06
8.47264e-06
8.24868e-06
8.10006e-06
8.01499e-06
7.96739e-06
7.94553e-06
7.9423e-06
7.95488e-06
7.98077e-06
8.02359e-06
8.09046e-06
8.19417e-06
8.35389e-06
8.58389e-06
8.89503e-06
9.22874e-06
9.50022e-06
9.67169e-06
9.63712e-06
9.3038e-06
8.55384e-06
7.71547e-06
6.46258e-06
3.85993e-06
1.01767e-06
9.31975e-07
1.5358e-06
1.62223e-06
1.68699e-06
1.70721e-06
1.74304e-06
1.73631e-06
1.76467e-06
1.74218e-06
1.77309e-06
1.77412e-06
4.00918e-06
0.000193709
0.000195267
2.07303e-05
1.4712e-05
1.00698e-05
8.09296e-06
6.45696e-06
5.80994e-06
5.49846e-06
5.49761e-06
5.64786e-06
5.90877e-06
6.20347e-06
6.53908e-06
6.88279e-06
7.23927e-06
7.58495e-06
7.9134e-06
8.24452e-06
8.57755e-06
8.93244e-06
9.2962e-06
9.65957e-06
1.00027e-05
1.03163e-05
1.05828e-05
1.07939e-05
1.09549e-05
1.10873e-05
1.11982e-05
1.1294e-05
1.13874e-05
1.1505e-05
1.16774e-05
1.19427e-05
1.23416e-05
1.28971e-05
1.36127e-05
1.44377e-05
1.52423e-05
1.58999e-05
1.63134e-05
1.63959e-05
1.61072e-05
1.51701e-05
1.2895e-05
8.66078e-06
2.63577e-06
4.9865e-07
1.88188e-07
2.84198e-07
3.03423e-07
3.09393e-07
3.1765e-07
3.17124e-07
3.23062e-07
3.19101e-07
3.26601e-07
4.48653e-07
3.88309e-06
0.000193698
0.000195282
1.14299e-05
6.44142e-06
4.00733e-06
3.78764e-06
3.94227e-06
4.34786e-06
4.816e-06
5.33608e-06
5.87465e-06
6.43265e-06
7.00306e-06
7.57694e-06
8.14999e-06
8.71474e-06
9.28646e-06
9.86797e-06
1.04844e-05
1.11294e-05
1.18257e-05
1.2541e-05
1.32377e-05
1.38812e-05
1.44465e-05
1.48992e-05
1.52188e-05
1.5423e-05
1.55503e-05
1.56308e-05
1.56733e-05
1.56983e-05
1.5763e-05
1.59351e-05
1.63055e-05
1.69548e-05
1.79447e-05
1.92974e-05
2.08715e-05
2.23396e-05
2.31679e-05
2.35622e-05
2.40155e-05
2.46859e-05
2.47476e-05
2.26444e-05
1.60904e-05
5.99519e-06
1.32137e-06
2.25445e-07
4.85086e-08
4.96582e-08
5.13767e-08
5.28159e-08
5.28373e-08
5.37304e-08
5.31758e-08
5.98236e-08
3.10199e-07
4.04422e-06
0.0001937
0.000195303
3.47868e-06
2.17406e-06
2.10289e-06
2.43783e-06
2.83138e-06
3.26333e-06
3.71272e-06
4.18796e-06
4.6819e-06
5.2001e-06
5.74755e-06
6.31991e-06
6.92331e-06
7.62093e-06
8.3768e-06
9.08709e-06
9.85556e-06
1.06927e-05
1.16496e-05
1.27118e-05
1.38121e-05
1.49051e-05
1.59609e-05
1.69359e-05
1.77587e-05
1.83824e-05
1.88445e-05
1.91805e-05
1.93945e-05
1.95103e-05
1.96041e-05
1.98141e-05
2.03226e-05
2.12969e-05
2.29004e-05
2.53276e-05
2.85648e-05
3.20193e-05
3.45188e-05
3.51864e-05
3.53143e-05
3.52469e-05
3.37923e-05
3.03405e-05
2.33507e-05
1.05495e-05
2.70026e-06
5.41609e-07
8.45553e-08
1.95337e-08
1.75099e-08
1.76073e-08
1.74344e-08
1.7576e-08
1.74e-08
2.65855e-08
3.09135e-07
4.0674e-06
0.0001937
0.00019533
1.47826e-06
1.63318e-06
1.91088e-06
2.27147e-06
2.69245e-06
3.1689e-06
3.69532e-06
4.27401e-06
4.88916e-06
5.54829e-06
6.26053e-06
7.00017e-06
7.79718e-06
8.65809e-06
9.62967e-06
1.07314e-05
1.20111e-05
1.3468e-05
1.52329e-05
1.72457e-05
1.92854e-05
2.11814e-05
2.27482e-05
2.38933e-05
2.46314e-05
2.51535e-05
2.56148e-05
2.60428e-05
2.62988e-05
2.63839e-05
2.6441e-05
2.65992e-05
2.70958e-05
2.82235e-05
3.03592e-05
3.39622e-05
3.86308e-05
4.33909e-05
4.65663e-05
4.61691e-05
4.41603e-05
4.16723e-05
3.839e-05
3.43863e-05
2.7619e-05
1.49451e-05
4.60358e-06
1.03767e-06
1.74345e-07
2.67427e-08
1.56184e-08
1.55805e-08
1.53938e-08
1.55382e-08
1.5379e-08
2.48756e-08
3.08876e-07
4.06419e-06
0.000193695
0.000195338
2.8462e-06
3.54398e-06
4.2392e-06
4.93662e-06
5.80876e-06
6.87653e-06
8.15662e-06
9.63971e-06
1.12935e-05
1.31665e-05
1.52217e-05
1.72375e-05
1.93126e-05
2.11352e-05
2.32787e-05
2.62743e-05
2.9999e-05
3.39869e-05
3.86869e-05
4.40015e-05
4.91866e-05
5.38034e-05
5.73211e-05
5.96342e-05
6.05478e-05
6.05961e-05
6.02836e-05
5.95094e-05
5.75916e-05
5.40282e-05
4.94377e-05
4.48848e-05
4.16066e-05
4.04632e-05
4.17693e-05
4.49621e-05
4.91816e-05
5.30099e-05
5.46562e-05
5.35949e-05
5.06494e-05
4.62157e-05
4.14632e-05
3.75403e-05
3.22172e-05
2.0334e-05
7.5272e-06
1.91537e-06
3.59287e-07
5.36511e-08
1.62251e-08
1.54994e-08
1.52833e-08
1.54854e-08
1.52977e-08
2.48304e-08
3.07991e-07
4.05997e-06
0.000193668
0.000194593
7.59711e-06
9.56082e-06
1.23163e-05
1.45031e-05
1.7088e-05
1.98923e-05
2.32357e-05
2.67845e-05
3.0523e-05
3.4877e-05
3.99924e-05
4.46034e-05
4.8751e-05
5.07185e-05
5.18938e-05
5.52855e-05
6.06364e-05
6.57693e-05
7.0886e-05
7.64545e-05
8.15573e-05
8.55184e-05
8.81054e-05
8.95264e-05
9.01143e-05
8.99225e-05
8.88239e-05
8.67363e-05
8.36196e-05
7.97693e-05
7.54389e-05
7.07189e-05
6.5732e-05
6.10174e-05
5.73887e-05
5.56005e-05
5.54746e-05
5.59367e-05
5.50449e-05
5.23415e-05
4.87342e-05
4.53464e-05
4.32919e-05
4.28224e-05
3.9827e-05
2.71727e-05
1.13897e-05
3.2384e-06
6.75345e-07
1.08612e-07
2.02372e-08
1.55414e-08
1.52396e-08
1.54942e-08
1.52796e-08
2.48213e-08
3.07259e-07
4.05715e-06
0.000193653
0.000194428
1.49031e-05
2.07331e-05
2.94389e-05
3.41889e-05
3.87985e-05
4.26828e-05
4.65161e-05
5.00665e-05
5.28938e-05
5.55294e-05
5.79507e-05
5.9928e-05
6.15868e-05
6.29735e-05
6.37966e-05
6.48269e-05
6.66214e-05
6.89773e-05
7.13961e-05
7.35047e-05
7.51239e-05
7.62922e-05
7.7005e-05
7.72674e-05
7.70583e-05
7.63762e-05
7.51903e-05
7.34222e-05
7.1145e-05
6.84013e-05
6.52211e-05
6.17491e-05
5.82982e-05
5.50939e-05
5.23374e-05
5.04462e-05
4.97204e-05
4.98318e-05
4.93876e-05
4.78307e-05
4.63034e-05
4.63691e-05
4.94397e-05
5.41719e-05
5.32106e-05
3.75827e-05
1.70061e-05
5.29037e-06
1.20367e-06
2.08075e-07
3.18026e-08
1.57681e-08
1.52533e-08
1.54969e-08
1.52827e-08
2.48111e-08
3.07129e-07
4.05739e-06
0.000193686
0.000194232
1.21202e-05
2.36674e-05
3.60745e-05
4.03202e-05
4.41725e-05
4.75398e-05
5.01011e-05
5.21077e-05
5.3946e-05
5.56119e-05
5.69134e-05
5.75717e-05
5.77554e-05
5.75231e-05
5.71005e-05
5.66862e-05
5.6681e-05
5.74338e-05
5.89413e-05
6.09779e-05
6.31395e-05
6.517e-05
6.68734e-05
6.80988e-05
6.87975e-05
6.90873e-05
6.87615e-05
6.74891e-05
6.52899e-05
6.21477e-05
5.81496e-05
5.36626e-05
4.91478e-05
4.49704e-05
4.1469e-05
3.91182e-05
3.8143e-05
3.83555e-05
3.93018e-05
4.14528e-05
4.59998e-05
5.28092e-05
6.0244e-05
6.44478e-05
5.97181e-05
3.97178e-05
1.75263e-05
5.44125e-06
1.24236e-06
2.1522e-07
3.25637e-08
1.57696e-08
1.52701e-08
1.54883e-08
1.52957e-08
2.48196e-08
3.0775e-07
4.06002e-06
0.000193697
0.000193918
1.05712e-05
2.65213e-05
4.27278e-05
5.02736e-05
5.60523e-05
5.96799e-05
6.24656e-05
6.47026e-05
6.62973e-05
6.7491e-05
6.8425e-05
6.88962e-05
6.89593e-05
6.85947e-05
6.78884e-05
6.73891e-05
6.74212e-05
6.83301e-05
6.99377e-05
7.19071e-05
7.39162e-05
7.56597e-05
7.7038e-05
7.80212e-05
7.86211e-05
7.87008e-05
7.78091e-05
7.55508e-05
7.18831e-05
6.70763e-05
6.14502e-05
5.52814e-05
4.90876e-05
4.33916e-05
3.87779e-05
3.58142e-05
3.46887e-05
3.51508e-05
3.68968e-05
4.01063e-05
4.51413e-05
5.17888e-05
5.8912e-05
6.29376e-05
5.72339e-05
3.67002e-05
1.61764e-05
5.06527e-06
1.1649e-06
2.0262e-07
3.1085e-08
1.57255e-08
1.52593e-08
1.54788e-08
1.52877e-08
2.48136e-08
3.07816e-07
4.06022e-06
0.000193711
0.000193811
1.24488e-05
3.02962e-05
4.58298e-05
5.29619e-05
5.78032e-05
6.01573e-05
6.2075e-05
6.39454e-05
6.56466e-05
6.73719e-05
6.93651e-05
7.12014e-05
7.24979e-05
7.31482e-05
7.3232e-05
7.3069e-05
7.32719e-05
7.4289e-05
7.6148e-05
7.85351e-05
8.09409e-05
8.32616e-05
8.53295e-05
8.68961e-05
8.80164e-05
8.87099e-05
8.85644e-05
8.69674e-05
8.3517e-05
7.82484e-05
7.12552e-05
6.29826e-05
5.44445e-05
4.67894e-05
4.07728e-05
3.69715e-05
3.53571e-05
3.54361e-05
3.68576e-05
3.96821e-05
4.42596e-05
5.05036e-05
5.74524e-05
6.16143e-05
5.68233e-05
3.715e-05
1.645e-05
5.15446e-06
1.1848e-06
2.05854e-07
3.14544e-08
1.57293e-08
1.52536e-08
1.54729e-08
1.52762e-08
2.48082e-08
3.07718e-07
4.06048e-06
0.000193704
0.000194371
1.2441e-05
2.15559e-05
3.23781e-05
3.57146e-05
3.89717e-05
4.15826e-05
4.47148e-05
4.77974e-05
5.09258e-05
5.43796e-05
5.82093e-05
6.18704e-05
6.48196e-05
6.65486e-05
6.7302e-05
6.80599e-05
6.92645e-05
7.11676e-05
7.38871e-05
7.72832e-05
8.08805e-05
8.43224e-05
8.73321e-05
8.97856e-05
9.17323e-05
9.28941e-05
9.36012e-05
9.44479e-05
9.51158e-05
9.39101e-05
8.98264e-05
8.26463e-05
7.2817e-05
6.21211e-05
5.25693e-05
4.56011e-05
4.19919e-05
4.17368e-05
4.32819e-05
4.53383e-05
4.80071e-05
5.16218e-05
5.57855e-05
5.83666e-05
5.46175e-05
3.82283e-05
1.73956e-05
5.48653e-06
1.26043e-06
2.18597e-07
3.29618e-08
1.57695e-08
1.52534e-08
1.54767e-08
1.52806e-08
2.48099e-08
3.07639e-07
4.06005e-06
0.00019369
0.000194548
2.01296e-05
3.15856e-05
3.38929e-05
3.83379e-05
4.30993e-05
4.70683e-05
5.08922e-05
5.48216e-05
5.90281e-05
6.3475e-05
6.79684e-05
7.2657e-05
7.59098e-05
7.68537e-05
7.67718e-05
7.73054e-05
7.85715e-05
8.07073e-05
8.37761e-05
8.76224e-05
9.18799e-05
9.5934e-05
9.90464e-05
0.000101
0.000101858
0.000100954
9.72582e-05
9.03875e-05
8.16767e-05
7.3757e-05
6.70789e-05
6.01832e-05
5.27507e-05
4.60722e-05
4.14283e-05
3.96624e-05
4.06058e-05
4.29917e-05
4.54645e-05
4.73647e-05
4.85965e-05
4.95359e-05
5.03621e-05
5.03671e-05
4.64306e-05
3.35304e-05
1.55109e-05
4.84892e-06
1.09747e-06
1.87889e-07
2.90346e-08
1.56893e-08
1.52829e-08
1.54899e-08
1.53076e-08
2.48304e-08
3.07944e-07
4.05842e-06
0.000193671
0.000194253
2.3054e-05
2.51419e-05
2.72127e-05
3.30135e-05
3.92918e-05
4.83445e-05
5.56283e-05
6.45216e-05
7.15464e-05
7.56528e-05
7.77973e-05
7.86211e-05
7.76114e-05
7.55893e-05
7.48466e-05
7.58997e-05
7.85718e-05
8.24705e-05
8.69605e-05
9.16171e-05
9.60362e-05
9.88427e-05
9.92548e-05
9.75923e-05
9.34485e-05
8.65089e-05
7.71002e-05
6.66864e-05
5.72872e-05
5.03131e-05
4.5377e-05
4.15831e-05
3.88411e-05
3.74954e-05
3.78053e-05
3.97785e-05
4.33202e-05
4.81602e-05
5.27672e-05
5.34713e-05
5.17123e-05
4.9337e-05
4.66994e-05
4.33607e-05
3.7041e-05
2.43496e-05
9.87033e-06
2.7308e-06
5.55973e-07
8.75745e-08
1.77019e-08
1.5494e-08
1.52928e-08
1.54883e-08
1.53239e-08
2.48374e-08
3.0856e-07
4.06168e-06
0.000193703
0.000195081
1.558e-05
2.02772e-05
2.71153e-05
3.53016e-05
4.61212e-05
5.6086e-05
6.63141e-05
7.54322e-05
8.26739e-05
8.76036e-05
9.07113e-05
9.16239e-05
9.0983e-05
8.97296e-05
8.96788e-05
9.18469e-05
9.53881e-05
9.98278e-05
0.00010522
0.000110882
0.000115058
0.000116935
0.000116638
0.000114164
0.000109523
0.000102634
9.34728e-05
8.05573e-05
6.55447e-05
5.22251e-05
4.49574e-05
4.29946e-05
4.22029e-05
4.23001e-05
4.34655e-05
4.57078e-05
4.86535e-05
5.13721e-05
5.35913e-05
5.41716e-05
5.31537e-05
5.0805e-05
4.72671e-05
4.24579e-05
3.4798e-05
2.1922e-05
8.55342e-06
2.32134e-06
4.66294e-07
7.30931e-08