/*--------------------------------*- C++ -*----------------------------------*\
| =========                 |                                                 |
| \\      /  F ield         | OpenFOAM: The Open Source CFD Toolbox           |
|  \\    /   O peration     | Version:  2.1.1                                 |
|   \\  /    A nd           | Web:      www.OpenFOAM.org                      |
|    \\/     M anipulation  |                                                 |
\*---------------------------------------------------------------------------*/
FoamFile
{
    version     2.0;
    format      ascii;
    class       volScalarField;
    location    "0.001";
    object      MassAlSu;
}
// * * * * * * * * * * * * * * * * * * * * * * * * * * * * * * * * * * * * * //

dimensions      [1 0 -1 0 0 0 0];

internalField   nonuniform List<scalar> 
36520
(
-1.34922e-05
-1.3492e-05
-1.34919e-05
-1.34917e-05
-1.34915e-05
-1.34913e-05
-1.34911e-05
-1.3491e-05
-1.34908e-05
-1.34906e-05
-1.34904e-05
-1.34903e-05
-1.34901e-05
-1.34899e-05
-1.34897e-05
-1.34896e-05
-1.34894e-05
-1.34892e-05
-1.3489e-05
-1.34888e-05
-1.34887e-05
-1.34885e-05
-1.34883e-05
-1.34881e-05
-1.3488e-05
-1.34878e-05
-1.34876e-05
-1.34874e-05
-1.34872e-05
-1.34871e-05
-1.34869e-05
-1.34867e-05
-1.34865e-05
-1.34864e-05
-1.34862e-05
-1.3486e-05
-1.34858e-05
-1.34857e-05
-1.34855e-05
-1.34853e-05
-1.34851e-05
-1.34849e-05
-1.34848e-05
-1.34846e-05
-1.34844e-05
-1.34842e-05
-1.34841e-05
-1.34839e-05
-1.34837e-05
-1.34835e-05
-1.34834e-05
-1.34832e-05
-1.3483e-05
-1.34828e-05
-1.34826e-05
-1.34825e-05
-1.34823e-05
-1.34821e-05
-1.34819e-05
-1.34818e-05
-1.36388e-05
-1.36391e-05
-1.36395e-05
-1.36398e-05
-1.36401e-05
-1.36405e-05
-1.36408e-05
-1.36412e-05
-1.36415e-05
-1.36419e-05
-1.36422e-05
-1.36426e-05
-1.36429e-05
-1.36432e-05
-1.36436e-05
-1.36439e-05
-1.36443e-05
-1.36446e-05
-1.3645e-05
-1.36453e-05
-1.36457e-05
-1.3646e-05
-1.36463e-05
-1.36467e-05
-1.3647e-05
-1.36474e-05
-1.36477e-05
-1.36481e-05
-1.36484e-05
-1.36488e-05
-1.36491e-05
-1.36494e-05
-1.36498e-05
-1.36501e-05
-1.36505e-05
-1.36508e-05
-1.36512e-05
-1.36515e-05
-1.36519e-05
-1.36522e-05
-1.36525e-05
-1.36529e-05
-1.36532e-05
-1.36536e-05
-1.36539e-05
-1.36543e-05
-1.36546e-05
-1.3655e-05
-1.36553e-05
-1.36556e-05
-1.3656e-05
-1.36563e-05
-1.36567e-05
-1.3657e-05
-1.36574e-05
-1.36577e-05
-1.36581e-05
-1.36584e-05
-1.36588e-05
-1.36591e-05
-1.43711e-05
-1.4372e-05
-1.43728e-05
-1.43737e-05
-1.43745e-05
-1.43754e-05
-1.43763e-05
-1.43771e-05
-1.4378e-05
-1.43789e-05
-1.43797e-05
-1.43806e-05
-1.43815e-05
-1.43823e-05
-1.43832e-05
-1.4384e-05
-1.43849e-05
-1.43858e-05
-1.43866e-05
-1.43875e-05
-1.43884e-05
-1.43892e-05
-1.43901e-05
-1.4391e-05
-1.43918e-05
-1.43927e-05
-1.43936e-05
-1.43944e-05
-1.43953e-05
-1.43961e-05
-1.4397e-05
-1.43979e-05
-1.43987e-05
-1.43996e-05
-1.44005e-05
-1.44013e-05
-1.44022e-05
-1.44031e-05
-1.44039e-05
-1.44048e-05
-1.44057e-05
-1.44065e-05
-1.44074e-05
-1.44083e-05
-1.44091e-05
-1.441e-05
-1.44108e-05
-1.44117e-05
-1.44126e-05
-1.44134e-05
-1.44143e-05
-1.44152e-05
-1.4416e-05
-1.44169e-05
-1.44178e-05
-1.44186e-05
-1.44195e-05
-1.44204e-05
-1.44212e-05
-1.44221e-05
-1.57194e-05
-1.57208e-05
-1.57221e-05
-1.57234e-05
-1.57248e-05
-1.57261e-05
-1.57274e-05
-1.57288e-05
-1.57301e-05
-1.57314e-05
-1.57328e-05
-1.57341e-05
-1.57355e-05
-1.57368e-05
-1.57381e-05
-1.57395e-05
-1.57408e-05
-1.57421e-05
-1.57435e-05
-1.57448e-05
-1.57462e-05
-1.57475e-05
-1.57488e-05
-1.57502e-05
-1.57515e-05
-1.57528e-05
-1.57542e-05
-1.57555e-05
-1.57569e-05
-1.57582e-05
-1.57595e-05
-1.57609e-05
-1.57622e-05
-1.57635e-05
-1.57649e-05
-1.57662e-05
-1.57676e-05
-1.57689e-05
-1.57702e-05
-1.57716e-05
-1.57729e-05
-1.57742e-05
-1.57756e-05
-1.57769e-05
-1.57783e-05
-1.57796e-05
-1.57809e-05
-1.57823e-05
-1.57836e-05
-1.57849e-05
-1.57863e-05
-1.57876e-05
-1.5789e-05
-1.57903e-05
-1.57916e-05
-1.5793e-05
-1.57943e-05
-1.57957e-05
-1.5797e-05
-1.57983e-05
-1.75804e-05
-1.7582e-05
-1.75836e-05
-1.75852e-05
-1.75868e-05
-1.75884e-05
-1.759e-05
-1.75916e-05
-1.75931e-05
-1.75947e-05
-1.75963e-05
-1.75979e-05
-1.75995e-05
-1.76011e-05
-1.76027e-05
-1.76043e-05
-1.76059e-05
-1.76074e-05
-1.7609e-05
-1.76106e-05
-1.76122e-05
-1.76138e-05
-1.76154e-05
-1.7617e-05
-1.76186e-05
-1.76202e-05
-1.76218e-05
-1.76233e-05
-1.76249e-05
-1.76265e-05
-1.76281e-05
-1.76297e-05
-1.76313e-05
-1.76329e-05
-1.76345e-05
-1.76361e-05
-1.76377e-05
-1.76393e-05
-1.76408e-05
-1.76424e-05
-1.7644e-05
-1.76456e-05
-1.76472e-05
-1.76488e-05
-1.76504e-05
-1.7652e-05
-1.76536e-05
-1.76552e-05
-1.76567e-05
-1.76583e-05
-1.76599e-05
-1.76615e-05
-1.76631e-05
-1.76647e-05
-1.76663e-05
-1.76679e-05
-1.76695e-05
-1.76711e-05
-1.76727e-05
-1.76743e-05
-1.99972e-05
-1.99988e-05
-2.00003e-05
-2.00019e-05
-2.00034e-05
-2.00049e-05
-2.00065e-05
-2.0008e-05
-2.00096e-05
-2.00111e-05
-2.00126e-05
-2.00142e-05
-2.00157e-05
-2.00173e-05
-2.00188e-05
-2.00203e-05
-2.00219e-05
-2.00234e-05
-2.0025e-05
-2.00265e-05
-2.0028e-05
-2.00296e-05
-2.00311e-05
-2.00327e-05
-2.00342e-05
-2.00357e-05
-2.00373e-05
-2.00388e-05
-2.00403e-05
-2.00419e-05
-2.00434e-05
-2.0045e-05
-2.00465e-05
-2.0048e-05
-2.00496e-05
-2.00511e-05
-2.00527e-05
-2.00542e-05
-2.00557e-05
-2.00573e-05
-2.00588e-05
-2.00604e-05
-2.00619e-05
-2.00634e-05
-2.0065e-05
-2.00665e-05
-2.00681e-05
-2.00696e-05
-2.00711e-05
-2.00727e-05
-2.00742e-05
-2.00758e-05
-2.00773e-05
-2.00788e-05
-2.00804e-05
-2.00819e-05
-2.00835e-05
-2.0085e-05
-2.00865e-05
-2.00881e-05
-2.33787e-05
-2.33799e-05
-2.33812e-05
-2.33824e-05
-2.33836e-05
-2.33849e-05
-2.33861e-05
-2.33873e-05
-2.33885e-05
-2.33898e-05
-2.3391e-05
-2.33922e-05
-2.33935e-05
-2.33947e-05
-2.33959e-05
-2.33972e-05
-2.33984e-05
-2.33996e-05
-2.34009e-05
-2.34021e-05
-2.34033e-05
-2.34045e-05
-2.34058e-05
-2.3407e-05
-2.34082e-05
-2.34095e-05
-2.34107e-05
-2.34119e-05
-2.34132e-05
-2.34144e-05
-2.34156e-05
-2.34168e-05
-2.34181e-05
-2.34193e-05
-2.34205e-05
-2.34218e-05
-2.3423e-05
-2.34242e-05
-2.34255e-05
-2.34267e-05
-2.34279e-05
-2.34292e-05
-2.34304e-05
-2.34316e-05
-2.34328e-05
-2.34341e-05
-2.34353e-05
-2.34365e-05
-2.34378e-05
-2.3439e-05
-2.34402e-05
-2.34415e-05
-2.34427e-05
-2.34439e-05
-2.34452e-05
-2.34464e-05
-2.34476e-05
-2.34488e-05
-2.34501e-05
-2.34513e-05
-2.91618e-05
-2.91766e-05
-2.91914e-05
-2.92062e-05
-2.92211e-05
-2.92359e-05
-2.92507e-05
-2.92655e-05
-2.92803e-05
-2.92951e-05
-2.93099e-05
-2.93248e-05
-2.93396e-05
-2.93544e-05
-2.93692e-05
-2.9384e-05
-2.93988e-05
-2.94137e-05
-2.94285e-05
-2.94433e-05
-2.94581e-05
-2.94729e-05
-2.94877e-05
-2.95025e-05
-2.95174e-05
-2.95322e-05
-2.9547e-05
-2.95618e-05
-2.95766e-05
-2.95914e-05
-2.96063e-05
-2.96211e-05
-2.96359e-05
-2.96507e-05
-2.96655e-05
-2.96804e-05
-2.96952e-05
-2.971e-05
-2.97248e-05
-2.97396e-05
-2.97544e-05
-2.97693e-05
-2.97841e-05
-2.97989e-05
-2.98137e-05
-2.98285e-05
-2.98434e-05
-2.98582e-05
-2.9873e-05
-2.98878e-05
-2.99026e-05
-2.99175e-05
-2.99323e-05
-2.99471e-05
-2.99619e-05
-2.99767e-05
-2.99916e-05
-3.00064e-05
-3.00212e-05
-3.0036e-05
-2.79348e-05
-2.79628e-05
-2.79908e-05
-2.80188e-05
-2.80468e-05
-2.80749e-05
-2.81029e-05
-2.81309e-05
-2.81589e-05
-2.81869e-05
-2.8215e-05
-2.8243e-05
-2.8271e-05
-2.82991e-05
-2.83271e-05
-2.83551e-05
-2.83832e-05
-2.84112e-05
-2.84393e-05
-2.84673e-05
-2.84954e-05
-2.85234e-05
-2.85515e-05
-2.85795e-05
-2.86076e-05
-2.86357e-05
-2.86637e-05
-2.86918e-05
-2.87199e-05
-2.8748e-05
-2.87761e-05
-2.88041e-05
-2.88322e-05
-2.88603e-05
-2.88884e-05
-2.89165e-05
-2.89446e-05
-2.89727e-05
-2.90008e-05
-2.90289e-05
-2.9057e-05
-2.90852e-05
-2.91133e-05
-2.91414e-05
-2.91695e-05
-2.91976e-05
-2.92258e-05
-2.92539e-05
-2.9282e-05
-2.93102e-05
-2.93383e-05
-2.93664e-05
-2.93946e-05
-2.94227e-05
-2.94509e-05
-2.9479e-05
-2.95072e-05
-2.95353e-05
-2.95635e-05
-2.95917e-05
-1.92987e-05
-1.93205e-05
-1.93424e-05
-1.93643e-05
-1.93862e-05
-1.9408e-05
-1.94299e-05
-1.94518e-05
-1.94737e-05
-1.94956e-05
-1.95175e-05
-1.95394e-05
-1.95613e-05
-1.95832e-05
-1.96051e-05
-1.9627e-05
-1.96489e-05
-1.96708e-05
-1.96927e-05
-1.97146e-05
-1.97365e-05
-1.97585e-05
-1.97804e-05
-1.98023e-05
-1.98242e-05
-1.98462e-05
-1.98681e-05
-1.989e-05
-1.9912e-05
-1.99339e-05
-1.99558e-05
-1.99778e-05
-1.99997e-05
-2.00217e-05
-2.00436e-05
-2.00656e-05
-2.00875e-05
-2.01095e-05
-2.01315e-05
-2.01534e-05
-2.01754e-05
-2.01974e-05
-2.02193e-05
-2.02413e-05
-2.02633e-05
-2.02852e-05
-2.03072e-05
-2.03292e-05
-2.03512e-05
-2.03732e-05
-2.03952e-05
-2.04171e-05
-2.04391e-05
-2.04611e-05
-2.04831e-05
-2.05051e-05
-2.05271e-05
-2.05491e-05
-2.05711e-05
-2.05932e-05
-1.49216e-05
-1.49315e-05
-1.49413e-05
-1.49512e-05
-1.49611e-05
-1.49709e-05
-1.49808e-05
-1.49907e-05
-1.50006e-05
-1.50105e-05
-1.50204e-05
-1.50303e-05
-1.50403e-05
-1.50502e-05
-1.50601e-05
-1.507e-05
-1.508e-05
-1.50899e-05
-1.50999e-05
-1.51098e-05
-1.51198e-05
-1.51298e-05
-1.51397e-05
-1.51497e-05
-1.51597e-05
-1.51697e-05
-1.51797e-05
-1.51897e-05
-1.51997e-05
-1.52097e-05
-1.52197e-05
-1.52297e-05
-1.52397e-05
-1.52498e-05
-1.52598e-05
-1.52698e-05
-1.52799e-05
-1.52899e-05
-1.53e-05
-1.531e-05
-1.53201e-05
-1.53302e-05
-1.53403e-05
-1.53503e-05
-1.53604e-05
-1.53705e-05
-1.53806e-05
-1.53907e-05
-1.54008e-05
-1.54109e-05
-1.54211e-05
-1.54312e-05
-1.54413e-05
-1.54514e-05
-1.54616e-05
-1.54717e-05
-1.54819e-05
-1.5492e-05
-1.55022e-05
-1.55124e-05
-9.54604e-06
-9.54401e-06
-9.54198e-06
-9.53994e-06
-9.53791e-06
-9.53588e-06
-9.53385e-06
-9.53182e-06
-9.52979e-06
-9.52776e-06
-9.52572e-06
-9.52369e-06
-9.52166e-06
-9.51963e-06
-9.5176e-06
-9.51557e-06
-9.51353e-06
-9.5115e-06
-9.50947e-06
-9.50744e-06
-9.50541e-06
-9.50338e-06
-9.50134e-06
-9.49931e-06
-9.49728e-06
-9.49525e-06
-9.49322e-06
-9.49118e-06
-9.48915e-06
-9.48712e-06
-9.48509e-06
-9.48306e-06
-9.48103e-06
-9.47899e-06
-9.47696e-06
-9.47493e-06
-9.4729e-06
-9.47087e-06
-9.46883e-06
-9.4668e-06
-9.46477e-06
-9.46274e-06
-9.4607e-06
-9.45867e-06
-9.45664e-06
-9.45461e-06
-9.45258e-06
-9.45054e-06
-9.44851e-06
-9.44648e-06
-9.44445e-06
-9.44241e-06
-9.44038e-06
-9.43835e-06
-9.43632e-06
-9.43429e-06
-9.43225e-06
-9.43022e-06
-9.42819e-06
-9.42616e-06
-9.54148e-06
-9.5396e-06
-9.53773e-06
-9.53586e-06
-9.53398e-06
-9.53211e-06
-9.53024e-06
-9.52836e-06
-9.52649e-06
-9.52462e-06
-9.52275e-06
-9.52088e-06
-9.51901e-06
-9.51713e-06
-9.51526e-06
-9.51339e-06
-9.51152e-06
-9.50965e-06
-9.50778e-06
-9.50591e-06
-9.50404e-06
-9.50217e-06
-9.5003e-06
-9.49843e-06
-9.49656e-06
-9.49469e-06
-9.49283e-06
-9.49096e-06
-9.48909e-06
-9.48722e-06
-9.48535e-06
-9.48349e-06
-9.48162e-06
-9.47975e-06
-9.47788e-06
-9.47602e-06
-9.47415e-06
-9.47228e-06
-9.47042e-06
-9.46855e-06
-9.46669e-06
-9.46482e-06
-9.46296e-06
-9.46109e-06
-9.45922e-06
-9.45736e-06
-9.4555e-06
-9.45363e-06
-9.45177e-06
-9.4499e-06
-9.44804e-06
-9.44617e-06
-9.44431e-06
-9.44245e-06
-9.44059e-06
-9.43872e-06
-9.43686e-06
-9.435e-06
-9.43313e-06
-9.43127e-06
-1.49059e-05
-1.49066e-05
-1.49073e-05
-1.4908e-05
-1.49087e-05
-1.49094e-05
-1.49101e-05
-1.49108e-05
-1.49115e-05
-1.49122e-05
-1.49129e-05
-1.49136e-05
-1.49143e-05
-1.4915e-05
-1.49157e-05
-1.49164e-05
-1.49171e-05
-1.49178e-05
-1.49184e-05
-1.49191e-05
-1.49198e-05
-1.49205e-05
-1.49211e-05
-1.49218e-05
-1.49225e-05
-1.49231e-05
-1.49238e-05
-1.49245e-05
-1.49251e-05
-1.49258e-05
-1.49264e-05
-1.49271e-05
-1.49277e-05
-1.49284e-05
-1.4929e-05
-1.49296e-05
-1.49303e-05
-1.49309e-05
-1.49315e-05
-1.49322e-05
-1.49328e-05
-1.49334e-05
-1.49341e-05
-1.49347e-05
-1.49353e-05
-1.49359e-05
-1.49365e-05
-1.49371e-05
-1.49377e-05
-1.49384e-05
-1.4939e-05
-1.49396e-05
-1.49402e-05
-1.49408e-05
-1.49414e-05
-1.49419e-05
-1.49425e-05
-1.49431e-05
-1.49437e-05
-1.49443e-05
-1.92303e-05
-1.92189e-05
-1.92074e-05
-1.91959e-05
-1.91845e-05
-1.9173e-05
-1.91615e-05
-1.91501e-05
-1.91386e-05
-1.91272e-05
-1.91158e-05
-1.91043e-05
-1.90929e-05
-1.90815e-05
-1.90701e-05
-1.90587e-05
-1.90473e-05
-1.90359e-05
-1.90245e-05
-1.90131e-05
-1.90017e-05
-1.89903e-05
-1.89789e-05
-1.89676e-05
-1.89562e-05
-1.89448e-05
-1.89335e-05
-1.89221e-05
-1.89108e-05
-1.88995e-05
-1.88881e-05
-1.88768e-05
-1.88655e-05
-1.88541e-05
-1.88428e-05
-1.88315e-05
-1.88202e-05
-1.88089e-05
-1.87976e-05
-1.87863e-05
-1.8775e-05
-1.87637e-05
-1.87525e-05
-1.87412e-05
-1.87299e-05
-1.87187e-05
-1.87074e-05
-1.86961e-05
-1.86849e-05
-1.86737e-05
-1.86624e-05
-1.86512e-05
-1.864e-05
-1.86287e-05
-1.86175e-05
-1.86063e-05
-1.85951e-05
-1.85839e-05
-1.85727e-05
-1.85615e-05
-2.77235e-05
-2.77042e-05
-2.76849e-05
-2.76656e-05
-2.76464e-05
-2.76271e-05
-2.76079e-05
-2.75886e-05
-2.75694e-05
-2.75501e-05
-2.75309e-05
-2.75117e-05
-2.74925e-05
-2.74733e-05
-2.74541e-05
-2.74349e-05
-2.74157e-05
-2.73965e-05
-2.73774e-05
-2.73582e-05
-2.7339e-05
-2.73199e-05
-2.73007e-05
-2.72816e-05
-2.72625e-05
-2.72434e-05
-2.72242e-05
-2.72051e-05
-2.7186e-05
-2.71669e-05
-2.71478e-05
-2.71288e-05
-2.71097e-05
-2.70906e-05
-2.70716e-05
-2.70525e-05
-2.70335e-05
-2.70144e-05
-2.69954e-05
-2.69764e-05
-2.69574e-05
-2.69383e-05
-2.69193e-05
-2.69003e-05
-2.68813e-05
-2.68624e-05
-2.68434e-05
-2.68244e-05
-2.68055e-05
-2.67865e-05
-2.67675e-05
-2.67486e-05
-2.67297e-05
-2.67107e-05
-2.66918e-05
-2.66729e-05
-2.6654e-05
-2.66351e-05
-2.66162e-05
-2.65973e-05
-2.89407e-05
-2.89415e-05
-2.89424e-05
-2.89433e-05
-2.89441e-05
-2.8945e-05
-2.89459e-05
-2.89467e-05
-2.89476e-05
-2.89485e-05
-2.89493e-05
-2.89502e-05
-2.89511e-05
-2.89519e-05
-2.89528e-05
-2.89536e-05
-2.89545e-05
-2.89554e-05
-2.89562e-05
-2.89571e-05
-2.8958e-05
-2.89588e-05
-2.89597e-05
-2.89605e-05
-2.89614e-05
-2.89623e-05
-2.89631e-05
-2.8964e-05
-2.89648e-05
-2.89657e-05
-2.89665e-05
-2.89674e-05
-2.89683e-05
-2.89691e-05
-2.897e-05
-2.89708e-05
-2.89717e-05
-2.89725e-05
-2.89734e-05
-2.89742e-05
-2.89751e-05
-2.89759e-05
-2.89768e-05
-2.89776e-05
-2.89785e-05
-2.89793e-05
-2.89802e-05
-2.8981e-05
-2.89819e-05
-2.89827e-05
-2.89836e-05
-2.89844e-05
-2.89853e-05
-2.89861e-05
-2.8987e-05
-2.89878e-05
-2.89886e-05
-2.89895e-05
-2.89903e-05
-2.89912e-05
-2.16421e-05
-2.16414e-05
-2.16407e-05
-2.164e-05
-2.16392e-05
-2.16385e-05
-2.16378e-05
-2.16371e-05
-2.16364e-05
-2.16356e-05
-2.16349e-05
-2.16342e-05
-2.16335e-05
-2.16327e-05
-2.1632e-05
-2.16313e-05
-2.16306e-05
-2.16299e-05
-2.16291e-05
-2.16284e-05
-2.16277e-05
-2.1627e-05
-2.16263e-05
-2.16255e-05
-2.16248e-05
-2.16241e-05
-2.16234e-05
-2.16227e-05
-2.16219e-05
-2.16212e-05
-2.16205e-05
-2.16198e-05
-2.16191e-05
-2.16183e-05
-2.16176e-05
-2.16169e-05
-2.16162e-05
-2.16155e-05
-2.16147e-05
-2.1614e-05
-2.16133e-05
-2.16126e-05
-2.16119e-05
-2.16111e-05
-2.16104e-05
-2.16097e-05
-2.1609e-05
-2.16082e-05
-2.16075e-05
-2.16068e-05
-2.16061e-05
-2.16054e-05
-2.16046e-05
-2.16039e-05
-2.16032e-05
-2.16025e-05
-2.16018e-05
-2.1601e-05
-2.16003e-05
-2.15996e-05
-1.62322e-05
-1.62311e-05
-1.623e-05
-1.62289e-05
-1.62279e-05
-1.62268e-05
-1.62257e-05
-1.62246e-05
-1.62236e-05
-1.62225e-05
-1.62214e-05
-1.62204e-05
-1.62193e-05
-1.62182e-05
-1.62171e-05
-1.62161e-05
-1.6215e-05
-1.62139e-05
-1.62128e-05
-1.62118e-05
-1.62107e-05
-1.62096e-05
-1.62085e-05
-1.62075e-05
-1.62064e-05
-1.62053e-05
-1.62042e-05
-1.62032e-05
-1.62021e-05
-1.6201e-05
-1.61999e-05
-1.61989e-05
-1.61978e-05
-1.61967e-05
-1.61956e-05
-1.61946e-05
-1.61935e-05
-1.61924e-05
-1.61913e-05
-1.61903e-05
-1.61892e-05
-1.61881e-05
-1.6187e-05
-1.6186e-05
-1.61849e-05
-1.61838e-05
-1.61827e-05
-1.61817e-05
-1.61806e-05
-1.61795e-05
-1.61784e-05
-1.61774e-05
-1.61763e-05
-1.61752e-05
-1.61741e-05
-1.61731e-05
-1.6172e-05
-1.61709e-05
-1.61699e-05
-1.61688e-05
-1.17809e-05
-1.17797e-05
-1.17785e-05
-1.17772e-05
-1.1776e-05
-1.17748e-05
-1.17736e-05
-1.17724e-05
-1.17712e-05
-1.177e-05
-1.17687e-05
-1.17675e-05
-1.17663e-05
-1.17651e-05
-1.17639e-05
-1.17627e-05
-1.17614e-05
-1.17602e-05
-1.1759e-05
-1.17578e-05
-1.17566e-05
-1.17554e-05
-1.17542e-05
-1.17529e-05
-1.17517e-05
-1.17505e-05
-1.17493e-05
-1.17481e-05
-1.17469e-05
-1.17457e-05
-1.17444e-05
-1.17432e-05
-1.1742e-05
-1.17408e-05
-1.17396e-05
-1.17384e-05
-1.17371e-05
-1.17359e-05
-1.17347e-05
-1.17335e-05
-1.17323e-05
-1.17311e-05
-1.17299e-05
-1.17286e-05
-1.17274e-05
-1.17262e-05
-1.1725e-05
-1.17238e-05
-1.17226e-05
-1.17214e-05
-1.17201e-05
-1.17189e-05
-1.17177e-05
-1.17165e-05
-1.17153e-05
-1.17141e-05
-1.17129e-05
-1.17116e-05
-1.17104e-05
-1.17092e-05
-1.01104e-05
-1.01093e-05
-1.01082e-05
-1.01072e-05
-1.01061e-05
-1.0105e-05
-1.0104e-05
-1.01029e-05
-1.01018e-05
-1.01008e-05
-1.00997e-05
-1.00986e-05
-1.00976e-05
-1.00965e-05
-1.00954e-05
-1.00944e-05
-1.00933e-05
-1.00922e-05
-1.00912e-05
-1.00901e-05
-1.0089e-05
-1.0088e-05
-1.00869e-05
-1.00858e-05
-1.00848e-05
-1.00837e-05
-1.00826e-05
-1.00816e-05
-1.00805e-05
-1.00794e-05
-1.00783e-05
-1.00773e-05
-1.00762e-05
-1.00751e-05
-1.00741e-05
-1.0073e-05
-1.00719e-05
-1.00709e-05
-1.00698e-05
-1.00687e-05
-1.00677e-05
-1.00666e-05
-1.00655e-05
-1.00645e-05
-1.00634e-05
-1.00623e-05
-1.00613e-05
-1.00602e-05
-1.00591e-05
-1.00581e-05
-1.0057e-05
-1.00559e-05
-1.00549e-05
-1.00538e-05
-1.00527e-05
-1.00517e-05
-1.00506e-05
-1.00495e-05
-1.00485e-05
-1.00474e-05
-1.12286e-05
-1.12279e-05
-1.12272e-05
-1.12265e-05
-1.12257e-05
-1.1225e-05
-1.12243e-05
-1.12236e-05
-1.12228e-05
-1.12221e-05
-1.12214e-05
-1.12207e-05
-1.12199e-05
-1.12192e-05
-1.12185e-05
-1.12178e-05
-1.12171e-05
-1.12163e-05
-1.12156e-05
-1.12149e-05
-1.12142e-05
-1.12134e-05
-1.12127e-05
-1.1212e-05
-1.12113e-05
-1.12106e-05
-1.12098e-05
-1.12091e-05
-1.12084e-05
-1.12077e-05
-1.12069e-05
-1.12062e-05
-1.12055e-05
-1.12048e-05
-1.1204e-05
-1.12033e-05
-1.12026e-05
-1.12019e-05
-1.12012e-05
-1.12004e-05
-1.11997e-05
-1.1199e-05
-1.11983e-05
-1.11975e-05
-1.11968e-05
-1.11961e-05
-1.11954e-05
-1.11947e-05
-1.11939e-05
-1.11932e-05
-1.11925e-05
-1.11918e-05
-1.1191e-05
-1.11903e-05
-1.11896e-05
-1.11889e-05
-1.11882e-05
-1.11874e-05
-1.11867e-05
-1.1186e-05
-1.26358e-05
-1.26354e-05
-1.2635e-05
-1.26346e-05
-1.26342e-05
-1.26338e-05
-1.26334e-05
-1.2633e-05
-1.26326e-05
-1.26322e-05
-1.26318e-05
-1.26314e-05
-1.2631e-05
-1.26306e-05
-1.26302e-05
-1.26298e-05
-1.26294e-05
-1.2629e-05
-1.26286e-05
-1.26282e-05
-1.26278e-05
-1.26274e-05
-1.2627e-05
-1.26266e-05
-1.26262e-05
-1.26258e-05
-1.26254e-05
-1.2625e-05
-1.26246e-05
-1.26242e-05
-1.26238e-05
-1.26234e-05
-1.2623e-05
-1.26226e-05
-1.26222e-05
-1.26218e-05
-1.26214e-05
-1.2621e-05
-1.26206e-05
-1.26202e-05
-1.26198e-05
-1.26194e-05
-1.2619e-05
-1.26186e-05
-1.26182e-05
-1.26178e-05
-1.26174e-05
-1.2617e-05
-1.26166e-05
-1.26162e-05
-1.26158e-05
-1.26154e-05
-1.2615e-05
-1.26146e-05
-1.26142e-05
-1.26138e-05
-1.26134e-05
-1.2613e-05
-1.26126e-05
-1.26122e-05
-1.38215e-05
-1.38214e-05
-1.38214e-05
-1.38213e-05
-1.38212e-05
-1.38211e-05
-1.3821e-05
-1.3821e-05
-1.38209e-05
-1.38208e-05
-1.38207e-05
-1.38206e-05
-1.38206e-05
-1.38205e-05
-1.38204e-05
-1.38203e-05
-1.38202e-05
-1.38202e-05
-1.38201e-05
-1.382e-05
-1.38199e-05
-1.38198e-05
-1.38198e-05
-1.38197e-05
-1.38196e-05
-1.38195e-05
-1.38194e-05
-1.38194e-05
-1.38193e-05
-1.38192e-05
-1.38191e-05
-1.3819e-05
-1.3819e-05
-1.38189e-05
-1.38188e-05
-1.38187e-05
-1.38186e-05
-1.38186e-05
-1.38185e-05
-1.38184e-05
-1.38183e-05
-1.38182e-05
-1.38182e-05
-1.38181e-05
-1.3818e-05
-1.38179e-05
-1.38178e-05
-1.38178e-05
-1.38177e-05
-1.38176e-05
-1.38175e-05
-1.38174e-05
-1.38174e-05
-1.38173e-05
-1.38172e-05
-1.38171e-05
-1.38171e-05
-1.3817e-05
-1.38169e-05
-1.38168e-05
-1.41659e-05
-1.4166e-05
-1.4166e-05
-1.41661e-05
-1.41661e-05
-1.41661e-05
-1.41662e-05
-1.41662e-05
-1.41662e-05
-1.41663e-05
-1.41663e-05
-1.41663e-05
-1.41664e-05
-1.41664e-05
-1.41664e-05
-1.41665e-05
-1.41665e-05
-1.41665e-05
-1.41666e-05
-1.41666e-05
-1.41666e-05
-1.41667e-05
-1.41667e-05
-1.41668e-05
-1.41668e-05
-1.41668e-05
-1.41669e-05
-1.41669e-05
-1.41669e-05
-1.4167e-05
-1.4167e-05
-1.4167e-05
-1.41671e-05
-1.41671e-05
-1.41671e-05
-1.41672e-05
-1.41672e-05
-1.41672e-05
-1.41673e-05
-1.41673e-05
-1.41673e-05
-1.41674e-05
-1.41674e-05
-1.41675e-05
-1.41675e-05
-1.41675e-05
-1.41676e-05
-1.41676e-05
-1.41676e-05
-1.41677e-05
-1.41677e-05
-1.41677e-05
-1.41678e-05
-1.41678e-05
-1.41678e-05
-1.41679e-05
-1.41679e-05
-1.41679e-05
-1.4168e-05
-1.4168e-05
-1.40441e-05
-1.40439e-05
-1.40437e-05
-1.40435e-05
-1.40434e-05
-1.40432e-05
-1.4043e-05
-1.40429e-05
-1.40427e-05
-1.40425e-05
-1.40424e-05
-1.40422e-05
-1.4042e-05
-1.40419e-05
-1.40417e-05
-1.40415e-05
-1.40413e-05
-1.40412e-05
-1.4041e-05
-1.40408e-05
-1.40407e-05
-1.40405e-05
-1.40403e-05
-1.40402e-05
-1.404e-05
-1.40398e-05
-1.40396e-05
-1.40395e-05
-1.40393e-05
-1.40391e-05
-1.4039e-05
-1.40388e-05
-1.40386e-05
-1.40385e-05
-1.40383e-05
-1.40381e-05
-1.4038e-05
-1.40378e-05
-1.40376e-05
-1.40374e-05
-1.40373e-05
-1.40371e-05
-1.40369e-05
-1.40368e-05
-1.40366e-05
-1.40364e-05
-1.40363e-05
-1.40361e-05
-1.40359e-05
-1.40357e-05
-1.40356e-05
-1.40354e-05
-1.40352e-05
-1.40351e-05
-1.40349e-05
-1.40347e-05
-1.40346e-05
-1.40344e-05
-1.40342e-05
-1.40341e-05
-1.37345e-05
-1.37341e-05
-1.37338e-05
-1.37334e-05
-1.3733e-05
-1.37327e-05
-1.37323e-05
-1.37319e-05
-1.37316e-05
-1.37312e-05
-1.37309e-05
-1.37305e-05
-1.37301e-05
-1.37298e-05
-1.37294e-05
-1.3729e-05
-1.37287e-05
-1.37283e-05
-1.37279e-05
-1.37276e-05
-1.37272e-05
-1.37268e-05
-1.37265e-05
-1.37261e-05
-1.37258e-05
-1.37254e-05
-1.3725e-05
-1.37247e-05
-1.37243e-05
-1.37239e-05
-1.37236e-05
-1.37232e-05
-1.37228e-05
-1.37225e-05
-1.37221e-05
-1.37217e-05
-1.37214e-05
-1.3721e-05
-1.37207e-05
-1.37203e-05
-1.37199e-05
-1.37196e-05
-1.37192e-05
-1.37188e-05
-1.37185e-05
-1.37181e-05
-1.37177e-05
-1.37174e-05
-1.3717e-05
-1.37166e-05
-1.37163e-05
-1.37159e-05
-1.37156e-05
-1.37152e-05
-1.37148e-05
-1.37145e-05
-1.37141e-05
-1.37137e-05
-1.37134e-05
-1.3713e-05
-1.30168e-05
-1.30163e-05
-1.30158e-05
-1.30153e-05
-1.30148e-05
-1.30142e-05
-1.30137e-05
-1.30132e-05
-1.30127e-05
-1.30122e-05
-1.30116e-05
-1.30111e-05
-1.30106e-05
-1.30101e-05
-1.30096e-05
-1.30091e-05
-1.30085e-05
-1.3008e-05
-1.30075e-05
-1.3007e-05
-1.30065e-05
-1.30059e-05
-1.30054e-05
-1.30049e-05
-1.30044e-05
-1.30039e-05
-1.30033e-05
-1.30028e-05
-1.30023e-05
-1.30018e-05
-1.30013e-05
-1.30008e-05
-1.30002e-05
-1.29997e-05
-1.29992e-05
-1.29987e-05
-1.29982e-05
-1.29976e-05
-1.29971e-05
-1.29966e-05
-1.29961e-05
-1.29956e-05
-1.29951e-05
-1.29945e-05
-1.2994e-05
-1.29935e-05
-1.2993e-05
-1.29925e-05
-1.29919e-05
-1.29914e-05
-1.29909e-05
-1.29904e-05
-1.29899e-05
-1.29893e-05
-1.29888e-05
-1.29883e-05
-1.29878e-05
-1.29873e-05
-1.29868e-05
-1.29862e-05
-1.17757e-05
-1.17752e-05
-1.17746e-05
-1.1774e-05
-1.17734e-05
-1.17728e-05
-1.17722e-05
-1.17716e-05
-1.1771e-05
-1.17704e-05
-1.17698e-05
-1.17692e-05
-1.17686e-05
-1.17681e-05
-1.17675e-05
-1.17669e-05
-1.17663e-05
-1.17657e-05
-1.17651e-05
-1.17645e-05
-1.17639e-05
-1.17633e-05
-1.17627e-05
-1.17621e-05
-1.17616e-05
-1.1761e-05
-1.17604e-05
-1.17598e-05
-1.17592e-05
-1.17586e-05
-1.1758e-05
-1.17574e-05
-1.17568e-05
-1.17562e-05
-1.17556e-05
-1.17551e-05
-1.17545e-05
-1.17539e-05
-1.17533e-05
-1.17527e-05
-1.17521e-05
-1.17515e-05
-1.17509e-05
-1.17503e-05
-1.17497e-05
-1.17491e-05
-1.17486e-05
-1.1748e-05
-1.17474e-05
-1.17468e-05
-1.17462e-05
-1.17456e-05
-1.1745e-05
-1.17444e-05
-1.17438e-05
-1.17432e-05
-1.17426e-05
-1.17421e-05
-1.17415e-05
-1.17409e-05
-1.07814e-05
-1.07808e-05
-1.07802e-05
-1.07797e-05
-1.07791e-05
-1.07785e-05
-1.07779e-05
-1.07773e-05
-1.07768e-05
-1.07762e-05
-1.07756e-05
-1.0775e-05
-1.07744e-05
-1.07738e-05
-1.07733e-05
-1.07727e-05
-1.07721e-05
-1.07715e-05
-1.07709e-05
-1.07703e-05
-1.07698e-05
-1.07692e-05
-1.07686e-05
-1.0768e-05
-1.07674e-05
-1.07668e-05
-1.07663e-05
-1.07657e-05
-1.07651e-05
-1.07645e-05
-1.07639e-05
-1.07634e-05
-1.07628e-05
-1.07622e-05
-1.07616e-05
-1.0761e-05
-1.07604e-05
-1.07599e-05
-1.07593e-05
-1.07587e-05
-1.07581e-05
-1.07575e-05
-1.07569e-05
-1.07564e-05
-1.07558e-05
-1.07552e-05
-1.07546e-05
-1.0754e-05
-1.07534e-05
-1.07529e-05
-1.07523e-05
-1.07517e-05
-1.07511e-05
-1.07505e-05
-1.075e-05
-1.07494e-05
-1.07488e-05
-1.07482e-05
-1.07476e-05
-1.0747e-05
-1.26807e-05
-1.26802e-05
-1.26797e-05
-1.26792e-05
-1.26787e-05
-1.26782e-05
-1.26777e-05
-1.26772e-05
-1.26767e-05
-1.26762e-05
-1.26757e-05
-1.26752e-05
-1.26747e-05
-1.26742e-05
-1.26737e-05
-1.26732e-05
-1.26727e-05
-1.26722e-05
-1.26717e-05
-1.26712e-05
-1.26707e-05
-1.26702e-05
-1.26697e-05
-1.26692e-05
-1.26688e-05
-1.26683e-05
-1.26678e-05
-1.26673e-05
-1.26668e-05
-1.26663e-05
-1.26658e-05
-1.26653e-05
-1.26648e-05
-1.26643e-05
-1.26638e-05
-1.26633e-05
-1.26628e-05
-1.26623e-05
-1.26618e-05
-1.26613e-05
-1.26608e-05
-1.26603e-05
-1.26598e-05
-1.26593e-05
-1.26588e-05
-1.26583e-05
-1.26578e-05
-1.26573e-05
-1.26568e-05
-1.26563e-05
-1.26558e-05
-1.26553e-05
-1.26549e-05
-1.26544e-05
-1.26539e-05
-1.26534e-05
-1.26529e-05
-1.26524e-05
-1.26519e-05
-1.26514e-05
-1.76909e-05
-1.77015e-05
-1.7712e-05
-1.77226e-05
-1.77331e-05
-1.77437e-05
-1.77542e-05
-1.77647e-05
-1.77753e-05
-1.77858e-05
-1.77964e-05
-1.78069e-05
-1.78174e-05
-1.7828e-05
-1.78385e-05
-1.7849e-05
-1.78596e-05
-1.78701e-05
-1.78806e-05
-1.78912e-05
-1.79017e-05
-1.79122e-05
-1.79227e-05
-1.79333e-05
-1.79438e-05
-1.79543e-05
-1.79648e-05
-1.79754e-05
-1.79859e-05
-1.79964e-05
-1.80069e-05
-1.80174e-05
-1.8028e-05
-1.80385e-05
-1.8049e-05
-1.80595e-05
-1.807e-05
-1.80805e-05
-1.80911e-05
-1.81016e-05
-1.81121e-05
-1.81226e-05
-1.81331e-05
-1.81436e-05
-1.81541e-05
-1.81646e-05
-1.81751e-05
-1.81856e-05
-1.81961e-05
-1.82067e-05
-1.82172e-05
-1.82277e-05
-1.82382e-05
-1.82487e-05
-1.82592e-05
-1.82697e-05
-1.82802e-05
-1.82907e-05
-1.83012e-05
-1.83116e-05
-2.49002e-05
-2.49233e-05
-2.49464e-05
-2.49694e-05
-2.49925e-05
-2.50155e-05
-2.50385e-05
-2.50615e-05
-2.50845e-05
-2.51075e-05
-2.51305e-05
-2.51535e-05
-2.51764e-05
-2.51993e-05
-2.52223e-05
-2.52452e-05
-2.52681e-05
-2.5291e-05
-2.53139e-05
-2.53367e-05
-2.53596e-05
-2.53824e-05
-2.54053e-05
-2.54281e-05
-2.54509e-05
-2.54737e-05
-2.54965e-05
-2.55193e-05
-2.5542e-05
-2.55648e-05
-2.55875e-05
-2.56103e-05
-2.5633e-05
-2.56557e-05
-2.56784e-05
-2.57011e-05
-2.57237e-05
-2.57464e-05
-2.57691e-05
-2.57917e-05
-2.58143e-05
-2.58369e-05
-2.58595e-05
-2.58821e-05
-2.59047e-05
-2.59273e-05
-2.59498e-05
-2.59724e-05
-2.59949e-05
-2.60174e-05
-2.60399e-05
-2.60624e-05
-2.60849e-05
-2.61074e-05
-2.61299e-05
-2.61523e-05
-2.61748e-05
-2.61972e-05
-2.62196e-05
-2.6242e-05
-2.49595e-05
-2.49621e-05
-2.49647e-05
-2.49673e-05
-2.49699e-05
-2.49724e-05
-2.49748e-05
-2.49773e-05
-2.49797e-05
-2.4982e-05
-2.49844e-05
-2.49866e-05
-2.49889e-05
-2.49911e-05
-2.49933e-05
-2.49954e-05
-2.49975e-05
-2.49996e-05
-2.50016e-05
-2.50036e-05
-2.50055e-05
-2.50075e-05
-2.50093e-05
-2.50112e-05
-2.5013e-05
-2.50147e-05
-2.50165e-05
-2.50182e-05
-2.50198e-05
-2.50214e-05
-2.5023e-05
-2.50246e-05
-2.50261e-05
-2.50275e-05
-2.5029e-05
-2.50304e-05
-2.50317e-05
-2.5033e-05
-2.50343e-05
-2.50356e-05
-2.50368e-05
-2.50379e-05
-2.50391e-05
-2.50402e-05
-2.50412e-05
-2.50422e-05
-2.50432e-05
-2.50442e-05
-2.50451e-05
-2.5046e-05
-2.50468e-05
-2.50476e-05
-2.50483e-05
-2.50491e-05
-2.50498e-05
-2.50504e-05
-2.5051e-05
-2.50516e-05
-2.50521e-05
-2.50526e-05
-1.82327e-05
-1.82255e-05
-1.82183e-05
-1.82112e-05
-1.8204e-05
-1.81968e-05
-1.81896e-05
-1.81825e-05
-1.81753e-05
-1.81681e-05
-1.81609e-05
-1.81537e-05
-1.81466e-05
-1.81394e-05
-1.81322e-05
-1.8125e-05
-1.81178e-05
-1.81106e-05
-1.81034e-05
-1.80962e-05
-1.80891e-05
-1.80819e-05
-1.80747e-05
-1.80675e-05
-1.80603e-05
-1.80531e-05
-1.80459e-05
-1.80387e-05
-1.80315e-05
-1.80243e-05
-1.80171e-05
-1.80099e-05
-1.80027e-05
-1.79955e-05
-1.79883e-05
-1.79811e-05
-1.79739e-05
-1.79667e-05
-1.79595e-05
-1.79523e-05
-1.7945e-05
-1.79378e-05
-1.79306e-05
-1.79234e-05
-1.79162e-05
-1.7909e-05
-1.79018e-05
-1.78946e-05
-1.78873e-05
-1.78801e-05
-1.78729e-05
-1.78657e-05
-1.78585e-05
-1.78512e-05
-1.7844e-05
-1.78368e-05
-1.78296e-05
-1.78223e-05
-1.78151e-05
-1.78079e-05
-1.60227e-05
-1.60091e-05
-1.59956e-05
-1.59821e-05
-1.59686e-05
-1.59551e-05
-1.59416e-05
-1.59281e-05
-1.59146e-05
-1.59011e-05
-1.58876e-05
-1.58741e-05
-1.58607e-05
-1.58472e-05
-1.58337e-05
-1.58202e-05
-1.58067e-05
-1.57933e-05
-1.57798e-05
-1.57663e-05
-1.57528e-05
-1.57394e-05
-1.57259e-05
-1.57125e-05
-1.5699e-05
-1.56855e-05
-1.56721e-05
-1.56586e-05
-1.56452e-05
-1.56317e-05
-1.56183e-05
-1.56049e-05
-1.55914e-05
-1.5578e-05
-1.55646e-05
-1.55511e-05
-1.55377e-05
-1.55243e-05
-1.55108e-05
-1.54974e-05
-1.5484e-05
-1.54706e-05
-1.54572e-05
-1.54438e-05
-1.54304e-05
-1.54169e-05
-1.54035e-05
-1.53901e-05
-1.53767e-05
-1.53633e-05
-1.535e-05
-1.53366e-05
-1.53232e-05
-1.53098e-05
-1.52964e-05
-1.5283e-05
-1.52696e-05
-1.52563e-05
-1.52429e-05
-1.52295e-05
-1.56242e-05
-1.5613e-05
-1.56018e-05
-1.55905e-05
-1.55793e-05
-1.55681e-05
-1.55569e-05
-1.55457e-05
-1.55345e-05
-1.55233e-05
-1.55122e-05
-1.5501e-05
-1.54898e-05
-1.54786e-05
-1.54674e-05
-1.54563e-05
-1.54451e-05
-1.54339e-05
-1.54228e-05
-1.54116e-05
-1.54005e-05
-1.53893e-05
-1.53782e-05
-1.5367e-05
-1.53559e-05
-1.53448e-05
-1.53336e-05
-1.53225e-05
-1.53114e-05
-1.53002e-05
-1.52891e-05
-1.5278e-05
-1.52669e-05
-1.52558e-05
-1.52447e-05
-1.52336e-05
-1.52225e-05
-1.52114e-05
-1.52003e-05
-1.51892e-05
-1.51782e-05
-1.51671e-05
-1.5156e-05
-1.51449e-05
-1.51339e-05
-1.51228e-05
-1.51117e-05
-1.51007e-05
-1.50896e-05
-1.50786e-05
-1.50675e-05
-1.50565e-05
-1.50454e-05
-1.50344e-05
-1.50234e-05
-1.50123e-05
-1.50013e-05
-1.49903e-05
-1.49793e-05
-1.49683e-05
-1.60029e-05
-1.59983e-05
-1.59937e-05
-1.59891e-05
-1.59845e-05
-1.59799e-05
-1.59752e-05
-1.59706e-05
-1.5966e-05
-1.59613e-05
-1.59567e-05
-1.59521e-05
-1.59474e-05
-1.59427e-05
-1.59381e-05
-1.59334e-05
-1.59287e-05
-1.59241e-05
-1.59194e-05
-1.59147e-05
-1.591e-05
-1.59053e-05
-1.59006e-05
-1.58959e-05
-1.58912e-05
-1.58864e-05
-1.58817e-05
-1.5877e-05
-1.58722e-05
-1.58675e-05
-1.58627e-05
-1.5858e-05
-1.58532e-05
-1.58485e-05
-1.58437e-05
-1.58389e-05
-1.58341e-05
-1.58293e-05