/*--------------------------------*- C++ -*----------------------------------*\
| =========                 |                                                 |
| \\      /  F ield         | OpenFOAM: The Open Source CFD Toolbox           |
|  \\    /   O peration     | Version:  2.1.1                                 |
|   \\  /    A nd           | Web:      www.OpenFOAM.org                      |
|    \\/     M anipulation  |                                                 |
\*---------------------------------------------------------------------------*/
FoamFile
{
    version     2.0;
    format      ascii;
    class       volScalarField;
    location    "0.001";
    object      nut;
}
// * * * * * * * * * * * * * * * * * * * * * * * * * * * * * * * * * * * * * //

dimensions      [0 2 -1 0 0 0 0];

internalField   nonuniform List<scalar> 
36520
(
5.73489e-06
7.4734e-06
9.36913e-06
9.75784e-06
1.02479e-05
1.03698e-05
1.04774e-05
1.04707e-05
1.03899e-05
1.02678e-05
1.00793e-05
9.88599e-06
9.64699e-06
9.41629e-06
9.15293e-06
8.89038e-06
8.59626e-06
8.28536e-06
7.94096e-06
7.57311e-06
7.17607e-06
6.7641e-06
6.33831e-06
5.91093e-06
5.48591e-06
5.07205e-06
4.67136e-06
4.28969e-06
3.93124e-06
3.60001e-06
3.29615e-06
3.02073e-06
2.77266e-06
2.55018e-06
2.34978e-06
2.16643e-06
1.99406e-06
1.82576e-06
1.65454e-06
1.47555e-06
1.28813e-06
1.09367e-06
9.15903e-07
7.53523e-07
5.78414e-07
4.35208e-07
3.89168e-07
3.70779e-07
3.60373e-07
3.53098e-07
3.51346e-07
3.48319e-07
3.49713e-07
3.47811e-07
3.50241e-07
3.4834e-07
3.51268e-07
3.49016e-07
3.53446e-07
3.67914e-07
8.49829e-06
2.30211e-06
2.33124e-06
2.00885e-06
1.8145e-06
1.62748e-06
1.53664e-06
1.46354e-06
1.41919e-06
1.38153e-06
1.36061e-06
1.34593e-06
1.3365e-06
1.32398e-06
1.30473e-06
1.27206e-06
1.21921e-06
1.1489e-06
1.06025e-06
9.58697e-07
8.51399e-07
7.46655e-07
6.47103e-07
5.56879e-07
4.77778e-07
4.07588e-07
3.43126e-07
2.87535e-07
2.44682e-07
2.12891e-07
1.89538e-07
1.71479e-07
1.56073e-07
1.411e-07
1.25884e-07
1.1111e-07
9.77132e-08
8.70657e-08
8.01811e-08
7.75403e-08
7.79316e-08
8.0477e-08
8.27839e-08
6.88716e-08
3.77962e-08
8.05871e-09
7.01606e-09
1.37918e-08
1.51374e-08
1.57517e-08
1.63167e-08
1.63988e-08
1.67103e-08
1.6549e-08
1.68283e-08
1.65018e-08
1.68703e-08
1.64385e-08
2.01164e-08
6.32123e-07
5.31731e-06
6.54296e-07
5.50942e-07
4.01666e-07
3.21059e-07
2.62552e-07
2.35394e-07
2.18148e-07
2.07654e-07
2.00862e-07
1.98502e-07
1.9732e-07
1.99094e-07
1.9941e-07
1.9881e-07
1.9382e-07
1.83496e-07
1.68128e-07
1.48647e-07
1.27146e-07
1.0708e-07
9.12731e-08
8.02022e-08
7.38139e-08
7.1186e-08
7.1031e-08
7.23175e-08
7.48445e-08
7.84729e-08
8.28739e-08
8.78321e-08
9.3368e-08
9.97396e-08
1.07496e-07
1.17629e-07
1.31388e-07
1.50408e-07
1.76396e-07
2.10814e-07
2.53592e-07
2.99892e-07
3.34115e-07
3.43257e-07
2.79675e-07
1.59944e-07
3.89258e-08
1.79895e-09
7.87755e-10
1.09161e-09
1.0637e-09
1.04386e-09
1.01622e-09
1.00999e-09
9.8395e-10
9.88036e-10
9.59346e-10
9.75816e-10
9.77372e-10
3.30564e-09
5.80827e-07
3.53685e-06
2.07366e-07
1.40299e-07
8.69369e-08
6.29978e-08
4.77479e-08
4.12158e-08
3.76261e-08
3.62194e-08
3.6357e-08
3.79646e-08
4.04421e-08
4.40709e-08
4.80475e-08
5.24932e-08
5.69643e-08
6.15511e-08
6.67816e-08
7.3085e-08
8.11708e-08
9.14254e-08
1.03878e-07
1.18138e-07
1.3366e-07
1.49571e-07
1.65488e-07
1.81579e-07
1.97898e-07
2.13676e-07
2.29002e-07
2.43955e-07
2.58946e-07
2.75215e-07
2.95082e-07
3.22081e-07
3.60391e-07
4.15901e-07
4.94988e-07
6.03687e-07
7.44319e-07
9.00097e-07
1.0071e-06
1.0091e-06
8.37132e-07
4.91666e-07
1.53114e-07
9.15864e-09
3.17553e-10
7.25207e-11
7.33088e-11
6.03733e-11
5.31936e-11
4.91204e-11
4.62409e-11
4.50386e-11
4.31917e-11
4.36779e-11
7.31699e-11
2.55207e-09
5.7261e-07
2.35439e-06
6.16357e-08
3.16859e-08
1.6339e-08
1.28592e-08
1.26649e-08
1.48337e-08
1.81605e-08
2.26897e-08
2.82799e-08
3.50638e-08
4.30576e-08
5.23211e-08
6.31817e-08
7.57748e-08
9.0964e-08
1.09568e-07
1.3296e-07
1.62282e-07
1.99439e-07
2.45454e-07
2.9977e-07
3.61596e-07
4.28214e-07
4.94715e-07
5.58859e-07
6.24658e-07
6.95665e-07
7.68312e-07
8.03143e-07
8.08417e-07
8.06884e-07
8.14016e-07
8.39727e-07
8.81426e-07
9.50287e-07
1.06346e-06
1.23717e-06
1.4917e-06
1.85287e-06
2.26025e-06
2.44931e-06
2.28524e-06
1.85804e-06
1.20634e-06
4.44317e-07
4.09877e-08
1.763e-09
5.20333e-11
5.90443e-12
4.14833e-12
2.88773e-12
2.1981e-12
1.89553e-12
1.72772e-12
1.61912e-12
1.91104e-12
3.23295e-11
2.63352e-09
5.71797e-07
1.86808e-06
8.78661e-09
6.27781e-09
6.81661e-09
9.01985e-09
1.22416e-08
1.67785e-08
2.30273e-08
3.15242e-08
4.28246e-08
5.7468e-08
7.63112e-08
1.00091e-07
1.29761e-07
1.6658e-07
2.14244e-07
2.77268e-07
3.62302e-07
4.77605e-07
6.35716e-07
8.48466e-07
1.12063e-06
1.47093e-06
1.90848e-06
2.40412e-06
2.92758e-06
3.50021e-06
4.09648e-06
4.41553e-06
4.36733e-06
4.01577e-06
3.51543e-06
3.04678e-06
2.74078e-06
2.6507e-06
2.66713e-06
2.80914e-06
3.12828e-06
3.62802e-06
4.33179e-06
4.98005e-06
4.97004e-06
4.30623e-06
3.41791e-06
2.289e-06
1.01626e-06
1.41315e-07
8.91528e-09
3.62504e-10
9.37446e-12
4.88903e-13
3.17489e-13
2.94601e-13
2.80748e-13
2.79937e-13
2.73626e-13
5.39115e-13
3.13415e-11
2.64656e-09
5.71893e-07
2.26888e-06
1.63621e-08
2.79227e-08
4.2256e-08
5.74093e-08
7.20248e-08
8.80358e-08
1.08486e-07
1.33971e-07
1.68842e-07
2.15304e-07
2.76501e-07
3.57715e-07
4.67003e-07
6.05519e-07
7.97772e-07
1.07197e-06
1.44736e-06
1.96683e-06
2.71735e-06
3.7731e-06
5.02663e-06
6.59875e-06
8.64776e-06
1.04369e-05
1.15339e-05
1.23729e-05
1.31979e-05
1.37831e-05
1.3851e-05
1.32296e-05
1.19041e-05
1.00907e-05
8.21386e-06
6.69757e-06
5.88596e-06
5.65797e-06
5.85412e-06
6.39622e-06
7.14906e-06
7.59106e-06
7.17949e-06
6.0928e-06
4.91915e-06
3.69696e-06
1.90749e-06
3.88765e-07
3.65555e-08
1.93506e-09
6.00824e-11
1.37912e-12
2.54073e-13
2.43107e-13
2.3843e-13
2.42847e-13
2.39181e-13
5.01192e-13
3.129e-11
2.64534e-09
5.71955e-07
7.13459e-06
1.53137e-07
2.72291e-07
4.64056e-07
7.06985e-07
9.3337e-07
1.15108e-06
1.4115e-06
1.65755e-06
1.96469e-06
2.32999e-06
2.72542e-06
3.33176e-06
3.97093e-06
4.47615e-06
5.39809e-06
7.23781e-06
9.41599e-06
1.18117e-05
1.4711e-05
1.81282e-05
2.12248e-05
2.34261e-05
2.48338e-05
2.56563e-05
2.60506e-05
2.60516e-05
2.57167e-05
2.50824e-05
2.42043e-05
2.3096e-05
2.16637e-05
1.97957e-05
1.75035e-05
1.49516e-05
1.24717e-05
1.06713e-05
9.74207e-06
9.33675e-06
9.10496e-06
8.63657e-06
7.74322e-06
6.63233e-06
5.60975e-06
4.64617e-06
2.91935e-06
8.77848e-07
1.0999e-07
7.39296e-09
2.84992e-10
6.88178e-12
3.36037e-13
2.42805e-13
2.3717e-13
2.42056e-13
2.38306e-13
4.99793e-13
3.12311e-11
2.64296e-09
5.71941e-07
1.27024e-05
6.33864e-07
1.43865e-06
2.80073e-06
4.18278e-06
5.89841e-06
7.53267e-06
1.00061e-05
1.18646e-05
1.3689e-05
1.57765e-05
1.75143e-05
1.8576e-05
1.93207e-05
1.95886e-05
1.94187e-05
1.97895e-05
2.09623e-05
2.24057e-05
2.38673e-05
2.53365e-05
2.6626e-05
2.75259e-05
2.80179e-05
2.80797e-05
2.7741e-05
2.70827e-05
2.61162e-05
2.48171e-05
2.32825e-05
2.15977e-05
1.99104e-05
1.84115e-05
1.71708e-05
1.61041e-05
1.48925e-05
1.32374e-05
1.14326e-05
9.88832e-06
8.60331e-06
7.49744e-06
6.58874e-06
6.0386e-06
5.83923e-06
5.6499e-06
4.25264e-06
1.7048e-06
2.95039e-07
2.56754e-08
1.22917e-09
3.47431e-11
8.347e-13
2.48396e-13
2.36909e-13
2.42009e-13
2.37844e-13
4.99392e-13
3.1157e-11
2.6417e-09
5.71753e-07
1.27835e-05
6.77282e-07
1.72728e-06
3.23378e-06
5.02153e-06
6.56902e-06
7.96093e-06
9.60862e-06
1.14262e-05
1.33622e-05
1.54799e-05
1.77565e-05
1.98671e-05
2.14694e-05
2.18743e-05
2.17418e-05
2.19429e-05
2.24699e-05
2.29929e-05
2.3628e-05
2.46355e-05
2.59783e-05
2.75344e-05
2.88425e-05
2.934e-05
2.88631e-05
2.77267e-05
2.62288e-05
2.44532e-05
2.25301e-05
2.05417e-05
1.8482e-05
1.61374e-05
1.34902e-05
1.09611e-05
8.94387e-06
7.61937e-06
6.68495e-06
5.92279e-06
5.38822e-06
5.15401e-06
5.23077e-06
5.58298e-06
6.05997e-06
6.18512e-06
4.7775e-06
1.96861e-06
3.58081e-07
3.28063e-08
1.63428e-09
4.72273e-11
1.05477e-12
2.50433e-13
2.36425e-13
2.41787e-13
2.37461e-13
4.99413e-13
3.1168e-11
2.64286e-09
5.71667e-07
1.11163e-05
7.56497e-07
4.27061e-06
9.38621e-06
1.33167e-05
1.70647e-05
2.08869e-05
2.53758e-05
2.99049e-05
3.45567e-05
3.99477e-05
4.56782e-05
5.13065e-05
5.58595e-05
5.84902e-05
5.93341e-05
6.00079e-05
6.10566e-05
6.30198e-05
6.62265e-05
7.05405e-05
7.52632e-05
7.94795e-05
8.20283e-05
8.20709e-05
7.9843e-05
7.60366e-05
7.10394e-05
6.4986e-05
5.81467e-05
5.0652e-05
4.27017e-05
3.40446e-05
2.47371e-05
1.70347e-05
1.18797e-05
8.69907e-06
7.00185e-06
6.18132e-06
5.72157e-06
5.46303e-06
5.40292e-06
5.4392e-06
5.51166e-06
5.43434e-06
4.3901e-06
2.03729e-06
4.0546e-07
3.86869e-08
1.95587e-09
5.65087e-11
1.2087e-12
2.51452e-13
2.35958e-13
2.41255e-13
2.3703e-13
4.98881e-13
3.11995e-11
2.64445e-09
5.71363e-07
1.17005e-05
1.15707e-06
4.90924e-06
6.87037e-06
9.39548e-06
1.64578e-05
2.65174e-05
3.90854e-05
5.29902e-05
6.80864e-05
8.25917e-05
9.27547e-05
9.86742e-05
0.000100834
9.83087e-05
9.07704e-05
8.13086e-05
7.79498e-05
8.11228e-05
8.95824e-05
0.0001016
0.000114773
0.00012589
0.000132066
0.000132689
0.000129147
0.000123417
0.000116285
0.000108139
9.90083e-05
8.70109e-05
7.24073e-05
5.71611e-05
4.26936e-05
2.88999e-05
1.82349e-05
1.16697e-05
8.77545e-06
8.18349e-06
8.60431e-06
8.9936e-06
8.55773e-06
7.53929e-06
6.27713e-06
4.9788e-06
3.49754e-06
1.58957e-06
3.04262e-07
2.59239e-08
1.1678e-09
3.04275e-11
6.90308e-13
2.44342e-13
2.36137e-13
2.40597e-13
2.36912e-13
4.98095e-13
3.12749e-11
2.6476e-09
5.70893e-07
1.40665e-05
1.99858e-06
5.19893e-06
6.71377e-06
1.04956e-05
2.03172e-05
3.22939e-05
4.62449e-05
6.14337e-05
7.73739e-05
9.16995e-05
0.000100816
0.000106066
0.000107501
0.000103482
9.40096e-05
8.38548e-05
8.02691e-05
8.25796e-05
8.94346e-05
9.98668e-05
0.000111257
0.00011928
0.000121626
0.000119599
0.000115215
0.000110674
0.00010589
9.94998e-05
9.04889e-05
7.8515e-05
6.47859e-05
5.10327e-05
3.80838e-05
2.62854e-05
1.70699e-05
1.14063e-05
9.26276e-06
9.63929e-06
1.13907e-05
1.19061e-05
1.07694e-05
8.90098e-06
6.91799e-06
5.18996e-06
3.52188e-06
1.57439e-06
2.9822e-07
2.53373e-08
1.1398e-09
2.968e-11
6.76913e-13
2.44028e-13
2.36048e-13
2.40463e-13
2.36733e-13
4.97842e-13
3.1241e-11
2.64477e-09
5.70732e-07
1.25308e-05
1.4162e-06
6.51409e-06
1.2176e-05
1.7721e-05
2.49125e-05
3.21887e-05
3.85695e-05
4.36088e-05
4.77679e-05
5.18469e-05
5.57685e-05
5.8874e-05
6.05603e-05
6.02079e-05
5.77114e-05
5.45218e-05
5.17058e-05
4.99466e-05
5.03761e-05
5.30128e-05
5.69069e-05
6.0709e-05
6.31101e-05
6.36039e-05
6.21392e-05
5.9747e-05
5.67202e-05
5.28657e-05
4.80705e-05
4.19709e-05
3.45818e-05
2.66377e-05
1.9397e-05
1.37653e-05
9.85618e-06
7.42762e-06
6.2851e-06
6.10079e-06
6.34119e-06
6.22511e-06
5.90102e-06
5.63527e-06
5.47651e-06
5.23924e-06
4.07234e-06
1.7697e-06
3.39101e-07
3.17483e-08
1.58804e-09
4.55474e-11
1.01307e-12
2.49085e-13
2.36445e-13
2.40969e-13
2.37283e-13
4.98381e-13
3.12245e-11
2.64157e-09
5.7114e-07
1.38661e-05
1.32753e-06
3.61256e-06
7.45465e-06
1.34721e-05
2.10036e-05
2.4692e-05
2.77612e-05
3.02238e-05
3.23016e-05
3.41598e-05
3.54226e-05
3.62771e-05
3.65331e-05
3.61462e-05
3.50906e-05
3.36967e-05
3.24417e-05
3.17705e-05
3.15601e-05
3.17374e-05
3.18385e-05
3.188e-05
3.18821e-05
3.13912e-05
3.02423e-05
2.87276e-05
2.70321e-05
2.50183e-05
2.25948e-05
1.97108e-05
1.64016e-05
1.31303e-05
1.02599e-05
7.91965e-06
6.1593e-06
5.00376e-06
4.38606e-06
4.16699e-06
4.2278e-06
4.34021e-06
4.47457e-06
4.70288e-06
5.00234e-06
5.0552e-06
3.74157e-06
1.38201e-06
2.34365e-07
2.03337e-08
9.6987e-10
2.70601e-11
6.89096e-13
2.46183e-13
2.37303e-13
2.41544e-13
2.38142e-13
4.99015e-13
3.12504e-11
2.64205e-09
5.71642e-07
1.29577e-05
1.0081e-06
2.0856e-06
3.61609e-06
5.7284e-06
9.71803e-06
1.33658e-05
1.76745e-05
2.11404e-05
2.42789e-05
2.67985e-05
2.84497e-05
2.96507e-05
3.04218e-05
3.06183e-05
3.04172e-05
3.00412e-05
2.96022e-05
2.90627e-05
2.8336e-05
2.76908e-05
2.69468e-05
2.59063e-05
2.47664e-05
2.3589e-05
2.22462e-05
2.07032e-05
1.90739e-05
1.75305e-05
1.60853e-05
1.46385e-05
1.31344e-05
1.16513e-05
1.02904e-05
9.13123e-06
8.24145e-06
7.62728e-06
7.25607e-06
6.9621e-06
6.46461e-06
5.85869e-06
5.31818e-06
4.97382e-06
4.88967e-06
4.77554e-06
3.48589e-06
1.24738e-06
1.97048e-07
1.58759e-08
7.16191e-10
1.9333e-11
5.53152e-13
2.44985e-13
2.37239e-13
2.41842e-13
2.38185e-13
4.99107e-13
3.11913e-11
2.63982e-09
5.71821e-07
7.09191e-06
1.31153e-07
2.15777e-07
3.49133e-07
5.36718e-07
7.74592e-07
1.04081e-06
1.37239e-06
1.72695e-06
2.19361e-06
2.88117e-06
3.78217e-06
4.79852e-06
5.75637e-06
6.8082e-06
7.8119e-06
8.40297e-06
9.11576e-06
1.00307e-05
1.15089e-05
1.34091e-05
1.4707e-05
1.53963e-05
1.60937e-05
1.68617e-05
1.73209e-05
1.72911e-05
1.69461e-05
1.6468e-05
1.57289e-05
1.46039e-05
1.30178e-05
1.11481e-05
9.60235e-06
8.5423e-06
7.90207e-06
7.67429e-06
7.79724e-06
8.01595e-06
7.96042e-06
7.42687e-06
6.61667e-06
5.6985e-06
4.86793e-06
4.09885e-06
2.56665e-06
7.27235e-07
8.61098e-08
5.46742e-09
2.01475e-10
4.76103e-12
2.99442e-13
2.40204e-13
2.34519e-13
2.40478e-13
2.36401e-13
4.98383e-13
3.11555e-11
2.64141e-09
5.71728e-07
2.28613e-06
1.44876e-08
2.32977e-08
3.40237e-08
4.70344e-08
6.17342e-08
7.97417e-08
1.02508e-07
1.31063e-07
1.69166e-07
2.19626e-07
2.85493e-07
3.67281e-07
4.69336e-07
5.78586e-07
6.99921e-07
8.38226e-07
1.00878e-06
1.22015e-06
1.49028e-06
1.80391e-06
2.10403e-06
2.39465e-06
2.71203e-06
3.05958e-06
3.44582e-06
3.75772e-06
3.91965e-06
3.88082e-06
3.60977e-06
3.21983e-06
2.93515e-06
2.87195e-06
2.9471e-06
3.16848e-06
3.55881e-06
4.20392e-06
5.10899e-06
6.38594e-06
7.57669e-06
7.96344e-06
7.37763e-06
6.05888e-06
4.67099e-06
3.35988e-06
1.65575e-06
3.00974e-07
2.69765e-08
1.3577e-09
4.07004e-11
1.10092e-12
3.40324e-13
2.92818e-13
2.67903e-13
2.57392e-13
2.478e-13
5.05649e-13
3.12864e-11
2.64713e-09
5.71926e-07
2.0498e-06
8.89475e-09
5.76603e-09
6.75172e-09
9.32209e-09
1.29649e-08
1.7989e-08
2.44538e-08
3.28761e-08
4.34818e-08
5.65413e-08
7.24805e-08
9.10157e-08
1.12383e-07
1.36507e-07
1.64312e-07
1.96339e-07
2.34352e-07
2.79449e-07
3.33805e-07
3.97098e-07
4.67278e-07
5.43923e-07
6.27147e-07
7.14385e-07
8.00731e-07
8.78115e-07
9.43919e-07
9.98436e-07
1.04512e-06
1.0908e-06
1.14571e-06
1.22628e-06
1.35014e-06
1.53395e-06
1.7972e-06
2.17546e-06
2.68194e-06
3.35318e-06
4.15085e-06
4.67322e-06
4.58479e-06
4.02496e-06
3.18115e-06
2.08512e-06
8.82516e-07
1.08378e-07
6.5703e-09
2.56939e-10
7.31904e-12
1.23946e-12
8.72004e-13
6.03099e-13
4.70438e-13
3.79415e-13
3.37028e-13
5.74564e-13
3.13693e-11
2.65014e-09
5.71701e-07
2.77471e-06
5.85266e-08
2.09504e-08
1.04166e-08
1.02567e-08
1.22133e-08
1.58861e-08
2.06177e-08
2.65685e-08
3.36149e-08
4.19062e-08
5.1486e-08
6.23448e-08
7.47094e-08
8.86548e-08
1.04754e-07
1.23229e-07
1.45136e-07
1.7087e-07
2.01781e-07
2.37777e-07
2.78464e-07
3.23144e-07
3.71624e-07
4.22637e-07
4.74521e-07
5.24215e-07
5.7012e-07
6.12427e-07
6.52142e-07
6.92251e-07
7.39625e-07
8.03352e-07
8.9282e-07
1.01859e-06
1.19032e-06
1.4237e-06
1.70606e-06
2.00281e-06
2.27913e-06
2.43286e-06
2.42559e-06
2.24086e-06
1.82597e-06
1.16241e-06
4.10361e-07
3.54792e-08
1.5291e-09
4.34466e-11
6.54937e-12
5.86976e-12
4.6874e-12
3.64914e-12
3.03689e-12
2.56076e-12
2.29078e-12
2.4386e-12
3.27537e-11
2.63604e-09
5.71279e-07
4.27106e-06
2.18102e-07
1.04066e-07
4.53043e-08
3.01056e-08
2.16424e-08
2.0332e-08
2.10418e-08
2.34297e-08
2.69325e-08
3.14565e-08
3.67127e-08
4.28539e-08
4.98257e-08
5.75994e-08
6.6471e-08
7.63779e-08
8.78998e-08
1.01154e-07
1.169e-07
1.35105e-07
1.55837e-07
1.78545e-07
2.02886e-07
2.28162e-07
2.53644e-07
2.77902e-07
3.00475e-07
3.2143e-07
3.41426e-07
3.6198e-07
3.86247e-07
4.18611e-07
4.63974e-07
5.27536e-07
6.13709e-07
7.2795e-07
8.69749e-07
1.02777e-06
1.1759e-06
1.29113e-06
1.32124e-06
1.21568e-06
9.35992e-07
5.41454e-07
1.64957e-07
1.031e-08
3.49169e-10
3.91187e-11
5.13299e-11
5.34421e-11
5.31573e-11
5.30811e-11
5.1973e-11
5.18912e-11
5.05388e-11
5.13337e-11
8.14932e-11
2.56189e-09
5.71724e-07
5.99125e-06
7.0079e-07
4.58526e-07
2.53786e-07
1.88822e-07
1.39683e-07
1.20518e-07
1.08794e-07
1.02533e-07
9.9549e-08
1.00029e-07
1.00912e-07
1.04333e-07
1.07751e-07
1.1192e-07
1.15034e-07
1.16572e-07
1.16216e-07
1.14231e-07
1.11418e-07
1.09277e-07
1.09032e-07
1.10199e-07
1.12573e-07
1.15785e-07
1.19983e-07
1.25133e-07
1.31235e-07
1.38188e-07
1.46038e-07
1.54831e-07
1.64956e-07
1.77036e-07
1.91988e-07
2.11037e-07
2.35205e-07
2.65793e-07
2.98514e-07
3.3151e-07
3.59583e-07
3.74059e-07
3.67003e-07
3.38321e-07
2.66349e-07
1.51984e-07
3.45045e-08
1.57997e-09
4.45612e-10
7.45891e-10
8.30467e-10
8.91372e-10
9.14087e-10
9.40201e-10
9.38893e-10
9.54962e-10
9.41411e-10
9.58935e-10
9.71389e-10
3.33518e-09
5.7895e-07
8.7638e-06
2.39999e-06
2.1325e-06
1.61751e-06
1.42358e-06
1.22391e-06
1.13882e-06
1.07364e-06
1.03861e-06
1.01049e-06
1.00116e-06
9.88477e-07
9.85229e-07
9.77354e-07
9.71635e-07
9.5781e-07
9.35974e-07
9.03282e-07
8.60447e-07
8.08481e-07
7.52479e-07
6.96169e-07
6.38126e-07
5.77781e-07
5.14812e-07
4.52277e-07
3.9509e-07
3.46127e-07
3.06589e-07
2.7523e-07
2.49506e-07
2.26353e-07
2.03237e-07
1.79625e-07
1.56684e-07
1.36115e-07
1.18245e-07
1.03839e-07
9.27002e-08
8.35127e-08
7.4945e-08
6.59099e-08
5.92226e-08
4.72673e-08
2.51036e-08
5.35619e-09
7.18664e-09
1.21152e-08
1.35577e-08
1.43315e-08
1.50203e-08
1.52178e-08
1.55784e-08
1.55185e-08
1.57761e-08
1.55793e-08
1.58542e-08
1.56025e-08
1.90669e-08
6.22265e-07
6.93353e-06
8.00926e-06
9.68097e-06
9.96134e-06
1.02917e-05
1.0361e-05
1.03843e-05
1.03287e-05
1.02035e-05
1.00544e-05
9.84651e-06
9.63947e-06
9.38781e-06
9.14729e-06
8.873e-06
8.59946e-06
8.29421e-06
7.97614e-06
7.62736e-06
7.26118e-06
6.87255e-06
6.47621e-06
6.07159e-06
5.66935e-06
5.27037e-06
4.88292e-06
4.51155e-06
4.16426e-06
3.84349e-06
3.55059e-06
3.28388e-06
3.04238e-06
2.82108e-06
2.61355e-06
2.4124e-06
2.212e-06
2.01009e-06
1.79909e-06
1.58074e-06
1.36142e-06
1.14857e-06
9.51799e-07
7.813e-07
6.40302e-07
5.12756e-07
4.28811e-07
3.99609e-07
3.85473e-07
3.76943e-07
3.70144e-07
3.67919e-07
3.64206e-07
3.64879e-07
3.62264e-07
3.64273e-07
3.61789e-07
3.64631e-07
3.61833e-07
3.66186e-07
3.76625e-07
6.29267e-06
7.52512e-06
9.22516e-06
9.63704e-06
1.00819e-05
1.02206e-05
1.03047e-05
1.02926e-05
1.01895e-05
1.00556e-05
9.84912e-06
9.63705e-06
9.37273e-06
9.11357e-06
8.8216e-06
8.53329e-06
8.2145e-06
7.88046e-06
7.51529e-06
7.13161e-06
6.72699e-06
6.31579e-06
5.89927e-06
5.48851e-06
5.08706e-06
4.70524e-06
4.34503e-06
4.01015e-06
3.70125e-06
3.41949e-06
3.16347e-06
2.93234e-06
2.72188e-06
2.52685e-06
2.34048e-06
2.15626e-06
1.97045e-06
1.78003e-06
1.57911e-06
1.37481e-06
1.17389e-06
9.84067e-07
8.13337e-07
6.65154e-07
5.27643e-07
4.32284e-07
3.99057e-07
3.84552e-07
3.76266e-07
3.69973e-07
3.68081e-07
3.64701e-07
3.65487e-07
3.6306e-07
3.65075e-07
3.62712e-07
3.65488e-07
3.62834e-07
3.68008e-07
3.89888e-07
8.12933e-06
2.20732e-06
2.11592e-06
1.71079e-06
1.54278e-06
1.35526e-06
1.25328e-06
1.16713e-06
1.10765e-06
1.05018e-06
1.01956e-06
9.83917e-07
9.61535e-07
9.40059e-07
9.2584e-07
9.07231e-07
8.78427e-07
8.36401e-07
7.81973e-07
7.18164e-07
6.50136e-07
5.83544e-07
5.19028e-07
4.5662e-07
3.96852e-07
3.43611e-07
2.97464e-07
2.58111e-07
2.2582e-07
2.00047e-07
1.79426e-07
1.61916e-07
1.46041e-07
1.3078e-07
1.16203e-07
1.03272e-07
9.2777e-08
8.48925e-08
7.93805e-08
7.46409e-08
6.8664e-08
5.98928e-08
4.98194e-08
3.81095e-08
2.11493e-08
5.28616e-09
6.72125e-09
1.183e-08
1.32161e-08
1.39431e-08
1.4629e-08
1.47967e-08
1.52033e-08
1.50969e-08
1.54361e-08
1.51679e-08
1.55384e-08
1.51865e-08
1.88962e-08
6.30053e-07
5.12746e-06
6.401e-07
4.72286e-07
2.91506e-07
2.27155e-07
1.72226e-07
1.46692e-07
1.27591e-07
1.15779e-07
1.06449e-07
1.02479e-07
9.78267e-08
9.69946e-08
9.6658e-08
9.8682e-08
1.00313e-07
9.99739e-08
9.71311e-08
9.24217e-08
8.71397e-08
8.29225e-08
8.08636e-08
8.06644e-08
8.19948e-08
8.43828e-08
8.7785e-08
9.1932e-08
9.67933e-08
1.0236e-07
1.08712e-07
1.15989e-07
1.24574e-07
1.34957e-07
1.47915e-07
1.64567e-07
1.86083e-07
2.1396e-07
2.45077e-07
2.72495e-07
2.91039e-07
2.9139e-07
2.69738e-07
2.29318e-07
1.82786e-07
1.11797e-07
2.99623e-08
1.49811e-09
4.16061e-10
6.70427e-10
7.39916e-10
7.95456e-10
8.16541e-10
8.46856e-10
8.45566e-10
8.67544e-10
8.54271e-10
8.76424e-10
8.90202e-10
3.27906e-09
5.80428e-07
3.71614e-06
1.9985e-07
1.11314e-07
5.27646e-08
3.70954e-08
2.65092e-08
2.41122e-08
2.39289e-08
2.59403e-08
2.92065e-08
3.36874e-08
3.89263e-08
4.50733e-08
5.19512e-08
5.96146e-08
6.79663e-08
7.6985e-08
8.71177e-08
9.83815e-08
1.11362e-07
1.25855e-07
1.41705e-07
1.58358e-07
1.755e-07
1.9243e-07
2.08683e-07
2.2426e-07
2.39881e-07
2.55804e-07
2.72394e-07
2.90581e-07
3.12407e-07
3.40589e-07
3.78928e-07
4.32336e-07
5.06181e-07
6.06396e-07
7.36073e-07
8.91249e-07
1.0162e-06
1.04781e-06
9.77053e-07
8.4508e-07
6.87177e-07
4.4088e-07
1.53927e-07
1.07855e-08
3.25977e-10
2.60245e-11
3.30064e-11
3.67349e-11
3.82464e-11
4.00775e-11
4.01927e-11
4.14142e-11
4.083e-11
4.23552e-11
7.32188e-11
2.57744e-09
5.72392e-07
2.803e-06
6.26186e-08
2.65694e-08
1.38295e-08
1.43111e-08
1.70702e-08
2.20828e-08
2.85061e-08
3.66034e-08
4.61824e-08
5.74693e-08
7.0506e-08
8.52408e-08
1.01758e-07
1.1995e-07
1.405e-07
1.64132e-07
1.92207e-07
2.25035e-07
2.64438e-07
3.09784e-07
3.5963e-07
4.11751e-07
4.63909e-07
5.12947e-07
5.56816e-07
5.95861e-07
6.31771e-07
6.66132e-07
6.9885e-07
7.31513e-07
7.71157e-07
8.27875e-07
9.17692e-07
1.05928e-06
1.27529e-06
1.59138e-06
2.00897e-06
2.4691e-06
2.7847e-06
2.73326e-06
2.48617e-06
2.22123e-06
1.90986e-06
1.3318e-06
5.36999e-07
5.83067e-08
2.39907e-09
6.54606e-11
2.41731e-12
1.59238e-12
1.66211e-12
1.74013e-12
1.74586e-12
1.79316e-12
1.77041e-12
2.14688e-12
3.28375e-11
2.63636e-09
5.71313e-07
2.25595e-06
1.33734e-08
7.9892e-09
8.72178e-09
1.21797e-08
1.69831e-08
2.33343e-08
3.12408e-08
4.11037e-08
5.29176e-08
6.71345e-08
8.40585e-08
1.03588e-07
1.26229e-07
1.52758e-07
1.83716e-07
2.19273e-07
2.63228e-07
3.16407e-07
3.82855e-07
4.63071e-07
5.53771e-07
6.51229e-07
7.51001e-07
8.46942e-07
9.33003e-07
1.00796e-06
1.07663e-06
1.14135e-06
1.19954e-06
1.25294e-06
1.31362e-06
1.40581e-06
1.56498e-06
1.83424e-06
2.27703e-06
2.99506e-06
4.06494e-06
5.3728e-06
6.47539e-06
6.25375e-06
5.43622e-06
4.635e-06
3.75384e-06
2.59537e-06
1.20496e-06
1.94855e-07
1.09112e-08
4.14089e-10
9.6334e-12
4.18357e-13
2.94109e-13
2.95894e-13
2.9135e-13
2.95053e-13
2.90964e-13
5.59458e-13
3.14444e-11
2.64715e-09
5.70863e-07
2.04814e-06
7.75443e-09
1.11066e-08
1.62663e-08
2.3176e-08
3.27731e-08
4.58791e-08
6.32731e-08
8.60152e-08
1.14119e-07
1.4881e-07
1.90968e-07
2.38568e-07
2.93855e-07
3.55098e-07
4.29825e-07
5.34271e-07
6.77991e-07
8.64892e-07
1.11999e-06
1.45098e-06
1.8332e-06
2.23362e-06
2.59334e-06
2.85915e-06
3.00946e-06
3.08954e-06
3.14352e-06
3.18463e-06
3.17402e-06
3.10538e-06
3.0462e-06
3.06821e-06
3.23941e-06
3.641e-06
4.42288e-06
5.86016e-06
7.9608e-06
1.03517e-05
1.19658e-05
1.11795e-05
9.34857e-06
7.46e-06
5.53985e-06
3.78637e-06
1.93512e-06
4.34751e-07
3.49154e-08
1.64302e-09
4.39681e-11
9.43184e-13
2.4892e-13
2.43697e-13
2.39175e-13
2.42559e-13
2.39228e-13
5.00323e-13
3.13437e-11
2.6446e-09
5.70977e-07
2.92862e-06
3.99934e-08
7.176e-08
1.11441e-07
1.50113e-07
2.05046e-07
2.83672e-07
3.95724e-07
5.51124e-07
7.54865e-07
1.02549e-06
1.37275e-06
1.75696e-06
2.20177e-06
2.59944e-06
3.11867e-06
3.99821e-06
5.34224e-06
7.05437e-06
9.39556e-06
1.25082e-05
1.60905e-05
1.97952e-05
2.30155e-05
2.53842e-05
2.65312e-05
2.68501e-05
2.66931e-05
2.59605e-05
2.409e-05
2.07454e-05
1.67512e-05
1.31053e-05
1.05486e-05
9.38329e-06
9.70189e-06
1.11219e-05
1.32059e-05
1.50717e-05
1.54312e-05
1.40005e-05
1.16334e-05
8.85145e-06
6.2932e-06
4.36588e-06
2.57896e-06
8.13783e-07
9.42083e-08
5.53398e-09
1.82371e-10
3.84237e-12
2.81466e-13
2.41828e-13
2.36766e-13
2.41272e-13
2.37525e-13
4.9892e-13
3.12445e-11
2.64246e-09
5.71249e-07
8.43951e-06
2.87812e-07
5.35126e-07
9.81109e-07
1.39087e-06
1.95736e-06
2.67697e-06
3.69568e-06
4.96033e-06
6.47183e-06
8.51414e-06
1.13609e-05
1.42599e-05
1.73024e-05
1.89703e-05
1.96621e-05
2.21979e-05
2.7702e-05
3.38812e-05
4.04408e-05
4.79304e-05
5.51553e-05
6.08933e-05
6.45919e-05
6.62568e-05
6.64121e-05
6.53566e-05
6.3104e-05
5.95776e-05
5.4751e-05
4.91356e-05
4.31368e-05
3.6977e-05
3.08745e-05
2.53613e-05
2.10814e-05
1.84331e-05
1.70615e-05
1.61808e-05
1.45342e-05
1.19993e-05
9.34766e-06
7.14487e-06
5.57024e-06
4.53453e-06
3.19425e-06
1.23167e-06
1.88973e-07
1.40485e-08
5.76945e-10
1.43108e-11
4.49974e-13
2.43426e-13
2.36107e-13
2.41571e-13
2.37384e-13
4.9888e-13
3.11555e-11
2.64089e-09
5.71456e-07
1.34054e-05
1.39391e-06
3.08132e-06
6.6826e-06
9.53862e-06
1.24429e-05
1.50302e-05
1.7838e-05
2.07829e-05
2.32327e-05
2.53775e-05
2.74735e-05
2.92605e-05
3.06451e-05
3.18525e-05
3.23736e-05
3.28123e-05
3.40193e-05
3.60359e-05
3.80779e-05
3.95777e-05
4.0284e-05
4.03392e-05
3.98618e-05
3.88586e-05
3.73563e-05
3.54212e-05
3.3158e-05
3.06065e-05
2.78833e-05
2.50931e-05
2.22686e-05
1.94728e-05
1.68934e-05
1.46287e-05
1.26964e-05
1.1269e-05
1.04645e-05
1.00763e-05
9.37815e-06
8.12147e-06
6.80572e-06
5.82637e-06
5.39524e-06
5.27506e-06
4.21729e-06
1.8187e-06
3.37449e-07
3.07253e-08
1.52519e-09
4.42609e-11
1.0146e-12
2.50121e-13
2.36417e-13
2.41686e-13
2.37484e-13
4.98623e-13
3.11298e-11
2.64077e-09
5.71601e-07
1.27157e-05
7.83754e-07
3.75162e-06
9.55037e-06
1.1786e-05
1.39273e-05
1.58154e-05
1.73028e-05
1.8459e-05
1.94537e-05
2.03205e-05
2.09487e-05
2.11563e-05
2.10194e-05
2.069e-05
2.0357e-05
1.96161e-05
1.8847e-05
1.86042e-05
1.88545e-05
1.95133e-05
2.04683e-05
2.14714e-05
2.22891e-05
2.27517e-05
2.28536e-05
2.26892e-05
2.21741e-05
2.11181e-05
1.95417e-05
1.7499e-05
1.50689e-05
1.25237e-05
1.01666e-05
8.14832e-06
6.52763e-06
5.38652e-06
4.71557e-06
4.40312e-06
4.28076e-06
4.26079e-06
4.46483e-06
4.93506e-06
5.53828e-06
5.8153e-06
4.49867e-06
1.79571e-06
3.25386e-07
3.00089e-08
1.5183e-09
4.4657e-11
1.023e-12
2.49845e-13
2.36593e-13
2.41444e-13
2.37603e-13
4.98803e-13
3.12078e-11
2.64296e-09
5.71542e-07
1.25918e-05
4.58723e-07
4.46357e-06
1.4522e-05
1.99079e-05
2.45083e-05
2.75051e-05
2.97336e-05
3.14365e-05
3.24574e-05
3.30013e-05
3.32437e-05
3.3042e-05
3.24556e-05
3.14389e-05
3.01016e-05
2.89711e-05
2.82335e-05
2.81909e-05
2.87791e-05
2.9809e-05
3.10386e-05
3.21041e-05
3.27441e-05
3.29104e-05
3.27605e-05
3.22485e-05
3.10529e-05
2.89347e-05
2.59139e-05
2.22572e-05
1.83487e-05
1.45048e-05
1.10722e-05
8.25672e-06
6.15363e-06
4.77469e-06
4.01748e-06
3.71361e-06
3.67545e-06
3.82191e-06
4.18005e-06
4.73146e-06
5.42854e-06
5.74199e-06
4.2059e-06
1.53902e-06
2.77696e-07
2.60611e-08
1.33993e-09
3.9806e-11
9.38482e-13
2.48553e-13
2.36268e-13
2.4114e-13
2.37344e-13
4.98461e-13
3.12081e-11
2.64236e-09
5.71381e-07
1.24656e-05
5.2005e-07
6.11498e-06
1.69032e-05
2.22052e-05
2.61416e-05
2.78937e-05
2.91191e-05
3.03381e-05
3.13085e-05
3.22102e-05
3.34598e-05
3.47011e-05
3.55141e-05
3.57443e-05
3.53073e-05
3.44509e-05
3.37758e-05
3.38008e-05
3.46261e-05
3.60428e-05
3.75607e-05
3.91341e-05
4.05895e-05
4.1439e-05
4.16955e-05
4.15578e-05
4.08961e-05
3.91637e-05
3.59905e-05
3.15236e-05
2.59792e-05
1.99529e-05
1.44869e-05
1.02487e-05
7.29938e-06
5.48643e-06
4.50355e-06
4.06085e-06
3.9302e-06
4.00195e-06
4.27635e-06
4.73288e-06
5.33487e-06
5.63262e-06
4.26401e-06
1.62418e-06
2.95033e-07
2.7687e-08
1.42052e-09
4.20642e-11
9.76556e-13
2.48807e-13
2.36094e-13
2.4095e-13
2.37053e-13
4.98175e-13
3.11897e-11
2.64172e-09
5.71148e-07
1.22755e-05
8.92232e-07
3.00445e-06
7.49717e-06
8.99724e-06
1.0452e-05
1.15893e-05
1.30411e-05
1.45342e-05
1.61062e-05
1.79576e-05
2.0243e-05
2.25635e-05
2.44548e-05
2.54491e-05
2.56363e-05
2.56262e-05
2.58377e-05
2.65371e-05
2.78881e-05
2.9969e-05
3.24631e-05
3.50527e-05
3.74386e-05
3.94316e-05
4.1211e-05
4.28343e-05
4.40552e-05
4.46026e-05
4.46976e-05
4.37306e-05
4.06597e-05
3.4841e-05
2.69289e-05
1.91561e-05
1.3151e-05
9.24167e-06
7.06079e-06
6.14459e-06
5.80854e-06
5.58322e-06
5.43868e-06
5.44777e-06
5.56468e-06
5.5264e-06
4.33521e-06
1.87866e-06
3.54593e-07
3.33291e-08
1.69234e-09
4.95586e-11
1.1036e-12
2.50317e-13
2.36154e-13
2.4107e-13
2.3718e-13
4.98275e-13
3.11836e-11
2.64153e-09
5.71162e-07
1.42374e-05
1.85768e-06
5.06733e-06
6.7857e-06
8.13974e-06
1.04186e-05
1.24577e-05
1.4653e-05
1.72362e-05
2.03166e-05
2.3829e-05
2.76571e-05
3.1987e-05
3.53154e-05
3.63731e-05
3.61971e-05
3.65644e-05
3.77804e-05
3.99451e-05
4.30999e-05
4.74816e-05
5.31995e-05
5.95911e-05
6.5366e-05
6.98519e-05
7.31171e-05
7.37949e-05
6.93778e-05
5.9058e-05
4.59138e-05
3.46303e-05
2.63337e-05
1.96947e-05
1.41525e-05
1.00104e-05
7.32513e-06
5.91072e-06
5.50242e-06
5.74462e-06
6.11051e-06
6.2391e-06
6.10925e-06
5.85249e-06
5.51875e-06
5.06363e-06
3.92163e-06
1.81742e-06
3.48522e-07
3.15e-08
1.52249e-09
4.27156e-11
9.57103e-13
2.48985e-13
2.36867e-13
2.41502e-13
2.37825e-13
4.99178e-13
3.12441e-11
2.64259e-09
5.71521e-07
1.71367e-05
2.03208e-06
2.51066e-06
3.17088e-06
5.09354e-06
7.77116e-06
1.25328e-05
1.75847e-05
2.48548e-05
3.20153e-05
3.70565e-05
4.00397e-05
4.12366e-05
3.95301e-05
3.53284e-05
3.26685e-05
3.3743e-05
3.69643e-05
4.19133e-05
4.78624e-05
5.4236e-05
6.05337e-05
6.47486e-05
6.54431e-05
6.3222e-05
5.77792e-05
4.89076e-05
3.7853e-05
2.71189e-05
1.88068e-05
1.34982e-05
1.02216e-05
7.99212e-06
6.45573e-06
5.53412e-06
5.18289e-06
5.43615e-06
6.41753e-06
8.14688e-06
9.87276e-06
9.73043e-06
8.51434e-06
7.22236e-06
5.99282e-06
4.80507e-06
3.23884e-06
1.2444e-06
1.81473e-07
1.27538e-08
4.95702e-10
1.16754e-11
3.8967e-13
2.42565e-13
2.3699e-13
2.41461e-13
2.38095e-13
4.99405e-13
3.13188e-11
2.64551e-09
5.71702e-07
8.41995e-06
9.21638e-07
1.75016e-06
3.4341e-06
6.32536e-06
1.16077e-05
1.83503e-05
2.7071e-05
3.6814e-05
4.57947e-05
5.25659e-05
5.69119e-05
5.80261e-05
5.61522e-05
5.21938e-05
4.97821e-05
5.21405e-05
5.73297e-05
6.44403e-05
7.3283e-05
8.28768e-05
9.06288e-05
9.44826e-05
9.42253e-05
8.99646e-05
8.21833e-05
7.15204e-05
5.88656e-05
4.29434e-05
2.71806e-05
1.56465e-05
9.80766e-06
8.22651e-06
7.7119e-06
7.74374e-06
8.27463e-06
9.22814e-06
1.03198e-05
1.0957e-05
1.10694e-05
1.05023e-05
9.50635e-06
8.21373e-06
6.70264e-06
5.10869e-06
3.16316e-06
1.0929e-06
1.45246e-07
9.71273e-09
3.63899e-10
8.40379e-12
3.41594e-13
2.42505e-13