/*--------------------------------*- C++ -*----------------------------------*\
| =========                 |                                                 |
| \\      /  F ield         | OpenFOAM: The Open Source CFD Toolbox           |
|  \\    /   O peration     | Version:  2.1.1                                 |
|   \\  /    A nd           | Web:      www.OpenFOAM.org                      |
|    \\/     M anipulation  |                                                 |
\*---------------------------------------------------------------------------*/
FoamFile
{
    version     2.0;
    format      ascii;
    class       volScalarField;
    location    "0.001";
    object      p;
}
// * * * * * * * * * * * * * * * * * * * * * * * * * * * * * * * * * * * * * //

dimensions      [1 -1 -2 0 0 0 0];

internalField   nonuniform List<scalar> 
36520
(
-2.46165
-16.344
-23.7033
-33.8866
-43.1699
-52.1199
-60.331
-67.4826
-73.6226
-78.8255
-83.3539
-87.6156
-91.6342
-95.8327
-100.479
-106.25
-113.582
-122.689
-133.444
-145.446
-157.81
-169.655
-180.256
-189.362
-197.206
-204.233
-210.789
-216.93
-222.772
-228.508
-234.345
-240.655
-248.011
-257.086
-268.905
-284.839
-306.463
-335.307
-372.994
-418.393
-460.335
-484.188
-479.506
-434.149
-339.685
-214.191
-108.09
-51.414
-22.9046
-11.1337
-8.45052
-11.567
-15.6255
-23.4042
-28.2524
-37.7742
-41.7351
-52.4375
-54.7153
-66.9356
-0.793944
-14.6082
-22.5085
-32.8541
-42.2104
-51.1092
-59.3581
-66.4722
-72.5524
-77.6436
-82.0773
-86.2457
-90.1186
-94.1996
-98.7391
-104.498
-111.89
-121.115
-132.031
-144.242
-156.807
-168.779
-179.41
-188.445
-196.169
-203.104
-209.634
-215.752
-221.529
-227.175
-232.866
-239.002
-246.214
-255.157
-266.863
-282.697
-304.35
-333.499
-372.173
-420.132
-465.394
-491.358
-488.781
-446.237
-351.496
-218.919
-103.611
-47.8729
-19.7007
-8.69658
-6.32209
-9.9417
-14.0017
-21.8585
-26.7396
-36.2691
-40.2359
-50.9575
-53.2371
-65.4602
0.700347
-13.3957
-22.1745
-32.667
-41.962
-50.9468
-59.1755
-66.2892
-72.2462
-77.2203
-81.4985
-85.4963
-89.2567
-93.1729
-97.5378
-103.201
-110.583
-119.889
-131.011
-143.574
-156.523
-168.79
-179.563
-188.528
-196.024
-202.776
-209.277
-215.372
-221.026
-226.473
-231.838
-237.528
-244.148
-252.437
-263.496
-278.895
-300.599
-330.394
-371.105
-424.426
-476.564
-506.664
-508.507
-471.919
-378.596
-231.413
-94.9074
-41.4214
-14.0814
-4.86585
-3.62075
-8.04998
-12.5465
-20.7052
-25.8076
-35.4331
-39.4871
-50.2575
-52.5726
-64.804
1.98954
-12.6662
-22.0673
-32.6492
-41.9873
-51.0164
-59.4261
-66.4969
-72.3013
-77.0598
-81.0489
-84.7342
-88.2397
-91.8006
-95.8278
-101.31
-108.662
-118.116
-129.571
-142.68
-156.254
-168.98
-179.954
-188.833
-196.043
-202.524
-208.956
-215.001
-220.539
-225.857
-230.956
-235.954
-241.724
-249.138
-259.292
-274.122
-295.954
-326.705
-370.364
-431.737
-492.804
-528.542
-535.226
-508.257
-418.139
-253.674
-80.6527
-31.7764
-5.81865
0.595877
-0.0108407
-5.4365
-10.6311
-19.1847
-24.5144
-34.2998
-38.3987
-49.1942
-51.5163
-63.7607
2.48993
-11.9977
-21.8689
-32.6657
-41.9258
-51.1479
-59.7781
-66.8421
-72.3745
-76.8998
-80.5821
-83.8246
-87.0647
-90.2224
-93.9098
-99.242
-106.631
-116.306
-128.144
-141.976
-156.421
-169.759
-181.056
-189.78
-196.367
-202.354
-208.779
-214.928
-220.27
-224.909
-229.318
-233.522
-238.493
-244.787
-253.888
-267.886
-289.821
-321.681
-368.858
-439.73
-511.036
-550.884
-559.679
-549.533
-470.114
-285.551
-58.7889
-18.7472
4.82998
7.34374
4.59374
-2.28571
-8.41062
-17.4981
-23.1792
-33.1404
-37.3686
-48.2154
-50.5741
-62.8243
0.455456
-11.3405
-21.9655
-32.9136
-42.2433
-51.643
-60.7314
-67.8205
-72.9813
-77.1087
-80.3144
-82.922
-85.8058
-88.5898
-91.5242
-96.4885
-103.844
-113.797
-126.025
-140.841
-156.502
-170.795
-182.694
-191.422
-197.224
-202.809
-209.171
-215.127
-220.238
-224.841
-228.716
-231.722
-235.216
-240.293
-248.156
-260.681
-282.609
-315.413
-365.5
-446.303
-528.492
-568.989
-581.483
-598.912
-543.291
-323.2
-24.4536
-1.62747
17.2606
15.5601
9.99445
1.34359
-5.89064
-15.6194
-21.7024
-31.867
-36.2312
-47.1374
-49.538
-61.7869
2.98298
-9.36736
-21.6448
-32.843
-42.1781
-51.9861
-62.0718
-69.0955
-73.7342
-77.4609
-80.2654
-82.4614
-85.1639
-86.7806
-88.51
-93.2541
-100.78
-111.229
-123.9
-139.99
-157.34
-172.645
-184.897
-193.582
-197.819
-201.964
-208.21
-214.803
-220.422
-225.106
-228.739
-231.042
-233.441
-236.958
-242.043
-252.674
-274.829
-307.958
-359.678
-452.678
-547.646
-579.158
-617.105
-684.297
-666.215
-332.852
25.1393
19.0564
31.5663
24.9375
16.1053
5.41938
-3.04682
-13.5062
-20.0782
-30.4689
-35.0057
-45.9815
-48.4367
-60.6912
-13.4001
-11.3531
-22.2878
-32.9681
-42.3708
-52.5714
-63.952
-71.7093
-75.4238
-78.0086
-80.1672
-81.9618
-83.9915
-84.4811
-84.3867
-88.9053
-95.8081
-107.368
-120.704
-137.896
-156.595
-172.633
-184.973
-192.35
-196.889
-201.366
-207.908
-214.63
-220.385
-224.921
-228.15
-230.032
-231.66
-234.28
-238.443
-248.42
-269.812
-301.676
-348.701
-442.92
-564.649
-637.613
-723.518
-812.131
-755.113
-252.639
74.2932
46.9152
48.3921
35.8203
23.249
10.2114
0.32792
-10.992
-18.1463
-28.8271
-33.5843
-44.6566
-47.1927
-59.4636
20.973
-0.315246
-19.6249
-30.2783
-41.293
-53.0403
-67.9682
-75.5503
-76.6725
-77.5555
-78.7376
-80.1854
-83.687
-82.7033
-79.6804
-81.6237
-92.0246
-104.544
-118.359
-136.361
-156.947
-175.061
-187.434
-193.526
-196.334
-200.02
-206.279
-212.384
-218.593
-223.936
-227.496
-229.751
-230.534
-232.351
-235.362
-241.523
-257.518
-292.576
-346.146
-435.287
-505.8
-568.025
-693.949
-773.844
-655.273
-171.564
101.356
68.2131
61.449
43.9657
28.4984
13.7184
2.80897
-9.11223
-16.585
-27.4042
-32.2483
-43.3575
-45.9152
-58.1976
37.8701
-2.41526
-20.8742
-28.0366
-40.1923
-54.8919
-69.9065
-77.7375
-78.1318
-77.6242
-78.8951
-80.7919
-82.3821
-80.5574
-77.0418
-77.0561
-86.1805
-100.893
-115.027
-133.143
-153.644
-171.493
-183.791
-189.572
-192.62
-196.863
-203.182
-208.877
-214.624
-220.053
-224.547
-226.252
-226.059
-227.71
-231.892
-238.8
-259.629
-298.395
-345.389
-431.649
-470.299
-315.951
-721.767
-812.197
-587.925
-124.101
113.921
77.2329
66.4012
46.9997
30.5805
15.2853
4.05668
-7.90128
-15.5638
-26.4587
-31.3793
-42.502
-45.0938
-57.369
28.0428
-8.18028
-21.5257
-25.1641
-36.6425
-53.3507
-68.853
-75.866
-75.6787
-76.2694
-77.8229
-80.6997
-83.0695
-80.5706
-73.9312
-69.608
-79.2107
-96.3443
-112.576
-131.261
-152.746
-169.971
-180.582
-185.419
-188.715
-192.887
-198.722
-204.603
-211.11
-217.746
-223.615
-226.493
-221.732
-217.476
-225.518
-233.291
-253.113
-294.959
-347.084
-419.934
-476.474
-381.082
-620.506
-770.136
-592.695
-71.4573
121.499
87.3928
70.531
49.3364
32.0539
16.3088
4.85766
-7.25491
-14.9214
-25.8052
-30.7081
-41.8126
-44.3786
-56.6606
-9.05718
-6.67811
-15.6704
-21.9224
-33.5384
-49.1955
-63.789
-71.3229
-74.3648
-76.5363
-78.6385
-80.0736
-81.8703
-81.4501
-79.6558
-76.7269
-83.0223
-95.7467
-110.337
-128.443
-148.988
-164.441
-174.818
-180.968
-185.809
-190.457
-196.457
-202.815
-209.043
-214.858
-219.399
-221.321
-221.068
-221.148
-226.482
-234.584
-251.833
-291.016
-347.805
-421.744
-490.635
-488.913
-693.631
-755.309
-685.382
-40.8632
121.319
92.0345
70.1495
48.5545
31.4774
15.9959
4.79745
-7.14394
-14.6545
-25.4371
-30.2432
-41.3105
-43.854
-56.1209
-18.1953
-9.7861
-15.1813
-20.3661
-30.4886
-46.4649
-60.2983
-68.4924
-73.1598
-76.1263
-77.4396
-79.1329
-80.6551
-81.0944
-80.3312
-76.5144
-81.4062
-93.378
-106.503
-124.497
-144.646
-159.375
-169.753
-176.787
-182.335
-187.935
-194.74
-200.874
-206.79
-211.681
-213.821
-215.463
-216.526
-220.072
-225.423
-234.968
-253.229
-294.077
-350.723
-420.297
-480.642
-499.126
-749.726
-802.252
-669.406
-35.6611
123.395
94.285
71.6235
49.8185
32.5745
16.9723
5.69433
-6.33015
-13.9016
-24.7288
-29.6029
-40.6832
-43.2394
-55.5168
1.43491
-7.08508
-12.5004
-18.3869
-31.1299
-49.0243
-62.9697
-70.5724
-75.1995
-77.5253
-77.4339
-78.2019
-78.5746
-75.9716
-70.2568
-69.4135
-79.1159
-93.4686
-107.595
-124.692
-145.201
-161.346
-172.421
-178.509
-182.879
-187.036
-193.592
-200.906
-207.819
-212.921
-212.507
-211.381
-213.053
-217.26
-224.059
-234.591
-253.314
-292.359
-349.688
-418.214
-463.399
-555.903
-831.319
-891.414
-479.956
-45.8919
129.082
92.5323
72.8792
51.4584
34.0189
18.1927
6.74777
-5.40343
-13.0754
-23.9487
-28.8301
-39.9227
-42.4716
-54.7435
51.6164
4.49901
-10.868
-17.2031
-28.2401
-42.5993
-54.9369
-64.1648
-71.1576
-73.0296
-72.5972
-73.7061
-77.0956
-77.4412
-75.7363
-75.6381
-82.5639
-93.5422
-106.711
-122.705
-139.21
-153.312
-165.435
-176.613
-182.093
-185.965
-192.202
-198.817
-204.701
-209.166
-211.656
-211.795
-214.103
-218.847
-226.227
-238.236
-260.324
-299.187
-353.919
-420.691
-484.902
-483.011
-690.689
-927.773
-396.461
-51.0294
125.569
88.2739
70.6567
50.71
34.0294
18.6035
7.39593
-4.67183
-12.1927
-22.9936
-27.8121
-38.8824
-41.4141
-53.6874
8.86927
-7.13468
-10.7592
-15.4169
-26.7829
-40.489
-53.5847
-61.4578
-67.457
-71.5726
-72.3681
-71.9193
-72.7407
-73.3077
-73.718
-76.468
-83.8331
-94.3553
-107.025
-122.502
-138.285
-151.502
-162.534
-171.673
-177.915
-182.639
-189.212
-197.258
-203.6
-207.512
-208.777
-209.05
-212.735
-219.521
-228.626
-242.459
-265.577
-302.145
-354.16
-419.575
-468.863
-482.772
-823.021
-882.22
-455.207
-86.9366
117.247
80.7943
67.2554
49.3925
34.0123
19.3549
8.51673
-3.28997
-10.8301
-21.6937
-26.5749
-37.691
-40.255
-52.5343
-5.78138
-11.138
-13.4348
-17.8461
-27.2448
-38.5172
-49.4402
-57.5812
-63.269
-66.8841
-68.5087
-69.9415
-70.6698
-70.8856
-71.5376
-74.8674
-81.7649
-91.9534
-104.992
-121.057
-137.414
-151.146
-162.345
-171.089
-177.413
-182.551
-188.806
-196.072
-201.25
-202.582
-203.188
-203.706
-207.996
-216.582
-228.563
-247.003
-276.025
-318.088
-371.791
-445.326
-526.192
-532.763
-621.598
-788.226
-697.516
-230.941
85.4437
59.3713
56.1561
42.9622
30.3879
17.4544
7.70818
-3.47982
-10.4894
-21.0993
-25.7609
-36.8067
-39.2853
-51.5529
5.19659
-7.51294
-12.4508
-18.7314
-27.6553
-37.2646
-46.5806
-54.251
-59.8519
-63.732
-66.0886
-67.7803
-69.2513
-70.8074
-72.6717
-76.4067
-83.1779
-92.8958
-104.971
-119.657
-134.763
-147.923
-159.004
-167.888
-174.648
-180.314
-186.366
-192.99
-198.649
-201.329
-202.761
-205.199
-210.733
-220.01
-233.216
-253.081
-283.874
-326.835
-382.692
-451.853
-501.743
-517.555
-534.542
-591.771
-578.22
-298.254
35.1247
30.2933
39.7133
32.9264
24.3144
13.8631
5.70949
-4.50748
-10.8238
-21.0767
-25.4495
-36.3621
-38.7264
-50.9693
5.32992
-7.06688
-12.5091
-19.3512
-27.424
-36.1894
-44.4754
-51.6563
-57.1486
-61.1645
-63.9559
-65.9841
-67.9444
-69.9678
-72.7291
-77.2512
-84.2684
-93.9234
-105.761
-119.595
-133.879
-146.77
-157.8
-166.763
-173.866
-180.023
-186.193
-192.546
-197.95
-201.409
-204.177
-208.124
-214.983
-225.677
-240.784
-262.709
-294.272
-334.492
-386.183
-444.964
-488.252
-507.516
-515.808
-527.773
-468.981
-273.054
-14.5499
8.8906
25.5674
24.1306
18.9333
10.6521
3.87861
-5.48819
-11.1877
-21.1284
-25.2329
-36.0223
-38.2773
-50.5033
9.06646
-5.33839
-11.795
-19.2837
-26.8515
-34.9925
-42.7582
-49.6129
-55.057
-59.2669
-62.4635
-65.0481
-67.4376
-69.8553
-72.887
-77.6879
-84.7955
-94.2831
-105.813
-119.043
-132.65
-145.212
-156.131
-165.176
-172.607
-179.15
-185.427
-191.727
-197.308
-201.499
-205.338
-210.543
-218.455
-229.978
-245.849
-267.989
-298.6
-336.037
-382.07
-432.382
-471.325
-490.38
-496.194
-482.885
-404.003
-237.599
-47.7647
-7.18075
13.8824
16.6998
14.3259
7.89487
2.30561
-6.29056
-11.4769
-21.1417
-25.0069
-35.6786
-37.8373
-50.034
8.66139
-4.7715
-11.2719
-18.9349
-26.2736
-33.9704
-41.3694
-47.9369
-53.3348
-57.5795
-60.9627
-63.8063
-66.3984
-69.1663
-72.7139
-77.9399
-85.2336
-94.6681
-105.948
-118.673
-131.771
-144.06
-154.859
-163.932
-171.575
-178.36
-184.788
-191.138
-196.988
-201.956
-206.955
-213.342
-222.307
-234.66
-251.198
-273.335
-302.04
-336.619
-377.72
-419.621
-452.562
-469.796
-471.466
-443.136
-357.302
-209.324
-65.6278
-18.3684
4.95742
11.2661
10.8851
5.90184
1.24917
-6.76863
-11.541
-21.028
-24.7156
-35.3237
-37.4189
-49.6028
9.86566
-3.85405
-10.4639
-18.2008
-25.389
-32.8136
-39.9047
-46.2914
-51.6399
-56.0263
-59.6438
-62.8707
-65.7925
-68.735
-72.4655
-77.8621
-85.2189
-94.5863
-105.693
-118.073
-130.788
-142.857
-153.577
-162.691
-170.475
-177.399
-183.921
-190.239
-196.174
-201.746
-207.662
-214.916
-224.517
-237.336
-254.206
-275.967
-303.311
-335.761
-372.162
-407.965
-435.869
-450.18
-444.436
-407.483
-320.966
-189.998
-76.6865
-26.1438
-1.38441
7.38872
8.72954
4.78867
0.887535
-6.64699
-11.1019
-20.3466
-23.8987
-34.4495
-36.4797
-48.6538
9.54798
-3.25204
-9.3314
-17.1455
-24.5165
-31.7876
-38.7615
-44.9945
-50.3434
-54.7771
-58.5364
-61.8612
-64.9417
-68.2301
-72.1651
-77.6926
-85.095
-94.3831
-105.32
-117.434
-129.885
-141.8
-152.5
-161.712
-169.675
-176.779
-183.452
-189.889
-196.052
-202.076
-208.586
-216.436
-226.48
-239.52
-256.39
-277.718
-303.939
-334.572
-368.198
-400.58
-425.473
-437.351
-427.83
-383.014
-296.066
-180.211
-83.3813
-31.4424
-5.55097
4.93721
7.34466
4.47059
0.937237
-6.36621
-10.6703
-19.8456
-23.3671
-33.9146
-35.9306
-48.1086
9.17305
-2.79743
-8.32497
-15.9598
-23.1904
-30.3077
-37.184
-43.3383
-48.6666
-53.1445
-56.9663
-60.3832
-63.4995
-66.8306
-70.879
-76.5098
-83.9978
-93.3316
-104.258
-116.272
-128.591
-140.387
-151.01
-160.196
-168.188
-175.334
-182.038
-188.496
-194.758
-201.012
-207.846
-216.042
-226.385
-239.65
-256.597
-277.81
-303.525
-333.4
-365.795
-396.505
-419.905
-430.091
-417.14
-370.787
-284.633
-175.751
-85.9349
-33.6081
-6.98171
4.54789
7.58916
5.42746
2.07398
-5.01707
-9.2027
-18.3107
-21.7814
-32.299
-34.2971
-46.4697
10.9825
-1.37289
-7.07327
-14.3695
-21.4584
-28.3287
-34.8974
-40.7995
-46.0806
-50.7833
-55.2277
-59.3921
-63.3963
-67.4991
-71.5753
-76.4871
-83.2121
-92.1122
-103.101
-115.387
-127.857
-139.598
-150.014
-158.979
-166.649
-173.385
-179.647
-185.636
-191.521
-197.577
-204.346
-212.375
-222.47
-235.553
-252.725
-274.821
-301.794
-332.171
-364.089
-393.506
-415.038
-424.357
-414.048
-373.502
-292.633
-184.125
-88.8201
-35.305
-7.19468
4.76558
7.82099
5.60759
2.1306
-5.04279
-9.29714
-18.4076
-21.8829
-32.4078
-34.4017
-46.5699
11.689
-1.98298
-8.0107
-15.4731
-22.6836
-29.6734
-36.3497
-42.3344
-47.6494
-52.3964
-56.8648
-61.0347
-65.0829
-69.2225
-73.1644
-77.8199
-84.286
-93.0551
-104.075
-116.519
-129.199
-141.078
-151.537
-160.486
-168.115
-174.799
-181.006
-186.925
-192.716
-198.623
-205.18
-212.935
-222.689
-235.48
-252.526
-274.912
-302.713
-333.807
-366.759
-397.414
-420.096
-430.708
-422.875
-385.432
-304.582
-189.775
-86.0434
-32.9623
-5.24762
5.50451
7.90546
4.94321
1.19393
-6.24041
-10.6447
-19.8375
-23.3816
-33.9627
-35.9837
-48.1628
11.9772
-2.19738
-9.04474
-16.5558
-23.5933
-30.7019
-37.3885
-43.3819
-48.6086
-53.2449
-57.6203
-61.6704
-65.6196
-69.5979
-73.3086
-77.6819
-84.008
-92.8328
-104.147
-117.059
-130.166
-142.265
-152.736
-161.594
-169.084
-175.614
-181.678
-187.443
-192.986
-198.5
-204.56
-211.744
-220.944
-233.312
-250.356
-273.438
-302.66
-336.072
-370.976
-404.182
-429.478
-442.809
-441.831
-409.456
-330.48
-201.995
-78.948
-27.4331
-0.329525
8.33228
9.61401
5.44718
1.31875
-6.42451
-11.0355
-20.2901
-23.8719
-34.44
-36.4829
-48.661
11.8981
-2.72027
-10.0486
-17.4063
-24.3463
-31.6511
-38.5569
-44.6909
-49.9304
-54.6041
-59.0062
-63.143
-67.1772
-71.0842
-74.4678
-78.0173
-83.7181
-92.4013
-104.048
-117.63
-131.362
-143.806
-154.311
-163.002
-170.282
-176.6
-182.477
-188.014
-193.196
-198.191
-203.634
-210.152
-218.557
-230.26
-247.237
-271.366
-302.855
-339.221
-377.798
-414.175
-442.7
-458.64
-463.83
-444.406
-369.772
-223.788
-66.7743
-19.0243
7.04109
12.5656
11.9176
6.52559
1.5746
-6.67208
-11.5963
-21.0635
-24.8064
-35.435
-37.5455
-49.735
12.0582
-3.51687
-11.3021
-18.5911
-25.3409
-32.8878
-39.9797
-46.0929
-51.191
-55.6314
-59.9539
-64.123
-68.0254
-71.5906
-74.5228
-77.4117
-82.7002
-91.4234
-103.591
-118.093
-132.64
-145.525
-156.008
-164.442
-171.4
-177.473
-183.178
-188.536
-193.413
-197.83
-202.511
-208.025
-215.156
-225.91
-242.689
-267.919
-301.794
-341.468
-383.164
-423.64
-455.824
-476.46
-492.786
-491.43
-421.495
-256.651
-48.9154
-7.88502
16.2947
17.6817
14.9852
8.0626
2.12343
-6.71973
-12.0402
-21.6633
-25.5239
-36.1419
-38.2762
-50.4609
11.864
-3.74284
-12.6396
-19.414
-26.0054
-33.8573
-41.2496
-47.4826
-52.4464
-56.9934
-61.4624
-65.6208
-69.6553
-73.1398
-75.493
-77.4451
-81.5204
-90.2468
-102.88
-118.448
-133.943
-147.274
-157.581
-165.518
-172.043
-177.923
-183.622
-188.862
-193.398
-197.165
-200.905
-205.034
-210.634
-219.877
-235.696
-261.565
-298.092
-341.832
-387.135
-432.299
-467.826
-490.774
-513.008
-526.383
-482.856
-295.796
-24.1705
6.10096
26.4158
23.6249
18.3843
9.8195
2.87428
-6.59142
-12.3052
-22.1558
-26.1751
-36.8718
-39.0504
-51.2488
7.09038
-4.77291
-13.9201
-20.3135
-26.9127
-35.0153
-42.8448
-49.1384
-53.8148
-58.0436
-62.4244
-66.7215
-70.6849
-73.5807
-75.1521
-76.3492
-79.9013
-88.8368
-102.023
-119.016
-135.86
-149.94
-160.124
-167.445
-173.504
-179.382
-185.054
-190.21
-194.335
-197.199
-199.958
-202.545
-206.414
-213.95
-228.418
-253.864
-291.987
-339.045
-387.361
-435.938
-476.646
-503.057
-531.986
-562.912
-570.541
-316.476
9.21666
25.4991
38.4211
30.7968
22.6071
12.24
4.1742
-5.96574
-12.1772
-22.2739
-26.5094
-37.2907
-39.5492
-51.7664
7.3472
-3.47172
-14.9039
-20.9116
-27.8065
-36.5241
-44.9471
-51.0305
-55.0167
-58.9792
-63.4772
-67.4654
-71.0784
-73.7165
-74.3563
-74.6965
-77.9736
-87.644
-101.337
-119.671
-138.155
-153.161
-163.127
-169.544
-174.808
-180.487
-186.23
-191.865
-195.938
-198.841
-200.728
-201.795
-203.696
-209.526
-222.37
-246.821
-284.879
-332.234
-379.514
-431.173
-480.694
-507.076
-548.093
-645.601
-741.801
-294.931
50.3312
50.4819
52.291
39.3666
27.7562
15.3387
5.9749
-4.96008
-11.7481
-22.1665
-26.6676
-37.5785
-39.9618
-52.1996
-9.05519
-6.31499
-16.6072
-21.5246
-28.6656
-38.3339
-47.3482
-52.8313
-56.0356
-59.8138
-64.5771
-69.3419
-73.4147
-74.9782
-74.6686
-72.6583
-75.19
-85.9948
-100.326
-120.009
-140.429
-156.757
-167.021
-172.669
-177.57
-183.887
-191.544
-196.935
-200.211
-201.669
-202.225
-201.755
-201.733
-205.944
-216.859
-238.181
-273.845
-319.534
-368.574
-423.633
-489.591
-536.738
-632.126
-753.534
-810.316
-156.493
102.627
76.2118
67.178
48.774
33.499
18.8355
8.0149
-3.81637
-11.2745
-22.0602
-26.8718
-37.9265
-40.4477
-52.7117
17.6071
1.79771
-16.4874
-22.7302
-30.7387
-42.1126
-51.6496
-57.1334
-59.0704
-62.0725
-67.3867
-70.5181
-73.0385
-73.7699
-71.3854
-68.4669
-73.5937
-87.5116
-103.678
-123.003
-143.885
-160.546
-169.653
-174.293
-178.442
-184.219
-191.292
-196.643
-199.705
-202.661
-204.02
-203.757
-204.209
-210.131
-220.377
-239.555
-272.807
-317.96
-365.988
-413.468
-448.619
-433.864
-693.75
-808.968
-548.563
-44.3548
132.451
92.5231
75.1331
53.8334
36.3703
20.3435
8.6163
-3.77135
-11.6598
-22.6733
-27.6869
-38.8308
-41.4381
-53.7166
85.314
8.94551
-15.2288
-24.2942
-34.9304
-47.053
-55.5688
-57.4485
-57.9545
-60.9658
-67.1691
-72.4812
-75.9155
-76.7416
-74.6061
-71.0887
-76.0026
-89.4284
-105.623
-125.196
-147.001
-165.681
-175.533
-179.482
-181.766
-185.977
-191.919
-196.345
-198.165
-199.11
-197.82
-197.249
-198.889
-204.214
-214.054
-233.461
-265.027
-310.168
-359.17
-419.571
-459.623
-361.733
-751.644
-986.512
-316.789
-13.4515
134.565
96.2918
75.2885
53.6186
35.7164
19.3834
7.49298
-4.96415
-12.877
-23.8546
-28.8287
-39.9324
-42.5147
-54.7828
73.022
8.56887
-18.2621
-27.6762
-35.7848
-43.5971
-52.0675
-57.7065
-60.7045
-63.686
-67.8921
-72.6752
-76.544
-77.8829
-76.6972
-75.2471
-80.5749
-93.2435
-109.35
-128.777
-149.999
-167.487
-176.152
-179.023
-181.84
-186.716
-192.062
-195.671
-197.114
-198.151
-198.374
-198.036
-199.238
-205.43
-215.066
-231.058
-260.648
-305.398
-353.742
-418.639
-470.338
-371.789
-821.33
-1007.9
-186.623
17.7536
129.763
96.8794
75.1793
53.3631
35.2325
18.729
6.75148
-5.74134
-13.6784
-24.6654
-29.6476
-40.7434
-43.3278
-55.5955
78.143
8.09168
-14.7013
-22.9867
-35.2838
-46.8854
-54.4115
-60.967
-65.0184
-67.7415
-70.7809
-74.5687
-78.3729
-79.0081
-76.384
-75.1854
-82.0684
-94.5194
-110.289
-130.236
-151.795
-170.032
-179.998
-182.753
-184.428
-189.23
-194.654
-197.294
-197.109
-196.766
-197.894
-198.462
-200.302
-207.671
-217.189
-232.093
-260.197
-306.453
-355.046
-423.94
-485.594
-392.747
-836.551
-1042.83
-257.059
4.11464
127.261
94.3281
73.3331
51.6251
33.7053
17.4323
5.63627
-6.7216
-14.5335
-25.4461
-30.4133
-41.5296
-44.1206
-56.3909
49.6875
5.52407
-18.6751
-26.4079
-36.3515
-44.7615
-53.7043
-62.4287
-68.379
-71.6107
-75.2038
-78.5245
-82.0076
-81.9324
-78.5228
-76.6752
-82.8342
-96.6526
-112.887
-131.819
-153.708
-171.759
-181.386
-184.365
-186.739
-191.888
-197.007
-199.612
-201.035
-203.02
-205.25
-205.949
-206.36
-210.011
-221.568
-239.509
-264.587
-304.8
-348.66
-421.941
-484.986
-535.029
-871.125
-813.922
-428.661
-44.671
117.482
89.026
70.7577
49.488
32.0479
16.1098
4.55553
-7.66895
-15.4141
-26.3471
-31.2681
-42.3415
-44.9008
-57.1678
-9.30819
-12.9653
-22.3665
-25.8528
-38.3419
-48.7917
-56.4908
-65.1124
-71.3147
-74.1802
-77.902
-81.8883
-85.9393
-83.7668
-77.4439
-75.4566
-81.9904
-96.2914
-113.554
-134.049
-157.661
-176.791
-187.312
-188.559
-190.454
-196.431
-200.977
-198.883
-194.69
-195.058
-198.332
-203.732
-208.667
-214.302
-224.164
-240.381
-267.712
-305.183
-348.769
-433.589
-577.052
-548.628
-736.299
-741.401
-580.911
-91.068
98.3276
80.174
65.3528
45.5282
29.2423
14.0427
2.92571
-9.05552
-16.629
-27.4298
-32.2811
-43.3488
-45.8885
-58.1555
-19.2789
-18.5402
-24.1327
-29.0387
-38.28
-47.4112
-55.3618
-63.3189
-70.7129
-75.1681
-79.0093
-83.3818
-88.809
-88.6776
-84.609
-84.9108
-89.326
-99.3528
-115.892
-135.497
-155.001
-170.537
-179.959
-186.44
-190.93
-196.361
-201.61
-203.786
-205.383
-206.693
-205.805
-206.617
-211.09
-218.392
-231.159
-250.705
-283.657
-328.19
-387.274
-453.872
-547.976
-605.682
-714.78
-739.235
-677.877
-158.161
74.7008
62.4638
54.7142
38.3117
24.4702
10.7717
0.598986
-10.8359
-18.043
-28.7405
-33.493
-44.505
-47.0094
-59.2666
-29.5271
-19.1167
-26.2729
-29.4777
-39.4538
-48.7998
-57.611
-65.912
-72.7286
-77.493
-81.082
-84.5191
-89.0511
-89.5982
-86.3478
-86.2995
-92.7646
-103.557
-119.47
-139.204
-158.224
-173.785
-183.644
-189.017
-192.954
-197.728
-202.685
-205.637
-205.567
-205.313
-205.95
-208.358
-214.563
-222.998
-236.221
-256.888
-287.595
-326.198
-367.454
-443.345
-554.416
-635.068
-666.778
-661.073
-669.787
-281.843
44.964
46.7525
47.1886
33.9642
21.9346
9.18785
-0.468436
-11.6324
-18.675
-29.223
-33.9315
-44.9478
-47.4726
-59.7311
-6.45527
-14.0531
-22.7668
-30.467
-39.521
-48.6514
-57.4597
-65.1111
-71.5575
-76.0374
-79.7068
-83.7457
-87.2699
-89.1978
-88.7208
-90.2355
-96.8814
-107.766
-122.243
-140.254
-158.431
-173.225
-182.698
-188.122
-192.446
-196.65
-201.303
-204.45
-205.835
-206.866
-208.573
-212.06
-218.488
-227.872
-242.335
-265.409
-300.288
-342.411
-395.746
-465.803
-534.211
-592.413
-628.017
-618.801
-557.385
-312.666
14.8711
22.3321
35.2163
27.0797
17.6982
6.37873
-2.49363
-13.2501
-20.0256
-30.5141
-35.1218
-46.1074
-48.5652
-60.8176
-4.25517
-16.8115
-24.5891
-32.003
-40.1718
-48.8264
-57.1053
-64.7069
-71.0816
-76.0449
-80.2088
-84.2472
-88.0957
-90.1626
-91.6301
-95.197
-101.971
-112.158
-125.409
-141.217
-157.458
-171.251
-181.208
-188.228
-193.626
-198.503
-202.944
-206.265
-208.317
-210.469
-213.284
-217.59
-224.584
-235.157
-250.944
-273.484
-308.952
-348.107
-398.413
-459.49
-510.177
-540.056
-562.571
-548.796
-477.028
-294.121
-32.4256
-2.22433
18.136
16.199
10.6457
1.71606
-5.68052
-15.5655
-21.7397
-31.9092
-36.3253
-47.2382
-49.6477
-61.8882
-1.47592
-14.7011
-23.591
-32.089
-40.1197
-48.6719
-56.7965
-64.1032
-70.3592
-75.4423
-79.9328
-84.2235
-88.3564
-91.6219
-94.3278
-98.4392
-105.348
-115.166
-127.564
-141.854
-156.471
-169.268
-179.218
-186.74
-192.78
-198.105
-203.138
-207.435
-211.252
-214.507
-218.234
-223.382
-230.96
-241.973
-257.99
-280.542
-312.29
-350.77
-398.72
-452.059
-495.968
-525.976
-530.763
-506.225
-426.229
-262.244
-63.4589
-20.0225
4.53944
7.18088
4.65054
-2.31592
-8.50056
-17.6778
-23.3748
-33.3289
-37.5662
-48.3986
-50.7314
-62.9624
-0.426276
-14.8129
-23.4686
-32.3001
-40.5
-48.893
-56.8614
-64.0758
-70.3292
-75.5838
-80.1892
-84.4745
-88.5289
-92.2511
-95.855
-100.702
-107.826
-117.425
-129.236
-142.678
-156.359
-168.628
-178.664
-186.628
-193.212
-198.944
-204.1
-208.514
-212.512
-216.418
-220.949
-226.997
-235.483
-247.271
-263.663
-285.909
-315.148
-351.015
-394.292
-441.033
-477.2
-500.606
-500.822
-466.273
-381.969
-234.653
-82.5817
-32.7793
-6.40096
0.214303
-0.218391
-5.64145
-10.8387
-19.4311
-24.7144
-34.4582
-38.5407
-49.294
-51.5667
-63.795
0.0453003
-14.3963
-23.1811
-32.4143
-40.8879
-49.3426
-57.2604
-64.4201
-70.6949
-76.0844
-80.8938
-85.4436
-89.7382
-93.8554
-97.9122
-103.063
-110.221
-119.587
-130.927
-143.682
-156.649
-168.514
-178.529
-186.783
-193.733
-199.794
-205.259
-210.114
-214.502
-218.857
-223.882
-230.46
-239.464
-251.657
-268.15
-289.939
-317.564
-351.304
-390.635
-429.708
-460.297
-476.341
-472.282
-432.945
-346.941
-216.544
-94.9099
-42.0014
-14.5845
-5.24526
-3.90441
-8.33578
-12.8315
-21.0094
-26.0506
-35.672
-39.6703
-50.3959
-52.6576
-64.8728
-1.37571
-15.2447
-23.2263
-32.377
-41.0871
-49.5103
-57.4381
-64.5841
-70.8791
-76.3214
-81.1838
-85.775
-90.077
-94.3611
-98.7739
-104.263
-111.537
-120.817
-131.894
-144.245
-156.79
-168.417
-178.431
-186.843
-193.997
-200.23
-205.809
-210.819
-215.479
-220.213
-225.692
-232.72
-242.112
-254.599
-271.155
-292.568
-319.254
-351.494
-387.863
-422.853
-450.571
-464.948
-456.219
-411.511
-324.473
-206.689
-102.512
-48.2633
-20.1665
-9.0665
-6.67326
-10.2764
-14.3206
-22.1721
-26.9861
-36.5005
-40.3609
-51.0307
-53.2513
-65.4598
-3.32571
-16.5205
-24.2214
-33.5503
-42.3276
-50.8194
-58.7456
-65.8981
-72.2124
-77.7255
-82.6612
-87.3624
-91.7494
-96.1234
-100.7
-106.284
-113.527
-122.662
-133.516
-145.603
-157.913
-169.417
-179.434
-187.939
-195.203
-201.532
-207.195
-212.291
-217.042
-221.873
-227.463
-234.558
-243.982
-256.484
-272.956
-294.086
-320.23
-351.542
-386.459
-419.789
-445.982
-458.858
-448.425
-401.707
-314.684
-202.818
-106.333
-51.6731
-23.3468
-11.4894
-8.91366
-11.9911
-16.0399
-23.8028
-28.6058
-38.02
-41.8833
-52.5604
-54.7903
-66.9931
9.88355
-2.71889
-8.48174
-15.8646
-23.135
-30.3921
-37.3605
-43.5503
-48.8011
-53.1633
-56.8058
-59.9567
-62.7266
-65.6552
-69.364
-74.819
-82.3435
-91.9331
-103.28
-115.85
-128.772
-141.087
-152.019
-161.259
-169.125
-176.064
-182.543
-188.804
-194.878
-200.942
-207.601
-215.736
-226.172
-239.775
-257.381
-279.505
-306.431
-337.991
-372.491
-405.564
-431.533
-444.913
-434.795
-387.171
-293.318
-171.177
-72.2806
-19.7807
4.89344
14.1069
14.4858
10.5961
6.08909
-2.01019
-6.95884
-16.5985
-20.4913
-31.2579
-33.4388
-45.6819
11.7591
-2.22693
-8.17018
-15.7924
-23.1225
-30.5151
-37.5605
-43.7477
-48.9101
-53.1737
-56.6853
-59.5401
-61.953
-64.4597
-67.7927
-73.0036
-80.5118
-90.3346
-102.09
-115.222
-128.763
-141.628
-152.886
-162.163
-169.86
-176.548
-182.768
-188.848
-194.819
-200.848
-207.492
-215.696
-226.423
-240.494
-258.873
-282.06
-310.173
-343.125
-379.213
-413.876
-441.619
-457.873
-450.603
-402.569
-300.455
-164.184
-56.4337
-5.14688
17.0187
22.7388
21.6069
15.6719
9.90745
0.860232
-4.85999
-14.9959
-19.2959
-30.2825
-32.6514
-44.9367
11.0104
-2.31547
-8.26329
-15.8219
-23.073
-30.5732
-37.658
-43.8237
-48.8943
-53.0723
-56.483
-59.0747
-61.1702
-63.3041
-66.286
-71.2236
-78.7054
-88.7897
-100.99
-114.729
-128.965
-142.437
-154.078
-163.42
-170.9
-177.28
-183.336
-189.403
-195.394
-201.517
-208.228
-216.491
-227.397
-241.786
-260.774
-284.753
-313.509
-347.032
-384.012
-419.871
-449.114
-468.238
-465.223
-416.716
-306.11
-154.555
-38.3149
10.0522
28.4474
31.2671
28.1195
20.432
13.4229
3.46714
-2.94397
-13.5193
-18.2064
-29.3836
-31.9275
-44.2536
11.3623
-2.14648
-8.02002
-15.8536
-23.0025
-30.6671
-37.7754
-43.9299
-48.9241
-53.0018
-56.3577
-58.7721
-60.6035
-62.4272
-65.0129
-69.5675
-76.9674
-87.281
-99.8629
-114.13
-128.979
-142.974
-154.868
-164.094
-171.154
-177.203
-182.905
-188.789
-194.626
-200.728
-207.528
-216.028
-227.367
-241.871
-260.861
-284.911
-313.648
-347.211
-385.149
-422.62
-454.139
-476.77
-479.147
-430.003
-309.515
-142.545
-18.3436
25.4384
38.4954
39.1768
33.8973
24.6533
16.4993
5.74844
-1.30912
-12.2662
-17.2915
-28.6165
-31.3187
-43.6746
10.4912
-2.20951
-7.95228
-15.9595
-22.9621
-30.6945
-37.7431
-43.7835
-48.6306
-52.5989
-55.881
-58.1785
-59.8717
-61.3562
-63.5269
-67.935
-75.3179
-85.8506
-98.7967
-113.551
-128.989
-143.5
-155.628
-164.967
-171.939
-177.788
-183.33
-189.098
-195.045
-201.417
-208.437
-217.066
-228.153
-242.35
-261.072
-285.112
-314.042
-347.875
-386.69
-426.303
-460.125
-487.423
-493.48
-442.098
-311.981
-131.629
1.41694
38.0878
47.8686
45.8179
38.654
28.0765
18.9742
7.5763
0.00324212
-11.2731
-16.5692
-28.0331
-30.8588
-43.2395
12.3202
-1.77907
-7.49065
-15.9027
-22.7321
-30.4549
-37.5082
-43.5724
-48.3616
-52.258
-55.4788
-57.8219
-59.5586
-61.0151
-63.0842
-67.3271
-74.6669
-85.2342
-98.2479
-113.157
-128.851
-143.534
-155.722
-164.515
-171.347
-177.113
-182.73
-188.465
-194.328
-200.763
-207.907
-216.557
-227.631
-241.874
-260.553
-284.635
-313.584
-346.322
-383.23
-421.721
-454.87
-486.29
-495.392
-448.782
-313.433
-125.618
15.4251
46.1529
54.2208
50.2727
41.8308
30.3322
20.6043
8.75978
0.838756
-10.6482
-16.1217
-27.6711
-30.5772
-42.9742
10.81
-1.5315
-7.08949
-15.619
-22.3895
-30.1188
-37.19
-43.2499
-47.9436
-51.8146
-54.9685
-57.4288
-59.247
-60.7507
-62.996
-67.0688
-74.2336
-84.6867
-97.6966
-112.586
-128.274
-143.133
-155.725
-164.928
-171.616
-177.146
-182.559
-188.322
-194.28
-200.596
-207.665
-216.3
-227.232
-241.449
-259.991
-283.825
-312.469
-345.585
-386.63
-431.377
-468.656
-496.196
-501.527
-457.781
-318.099
-121.785
24.6943
50.3431
57.4244
52.4779
43.4034
31.4499
21.415
9.33439
1.21243
-10.3914
-15.9544
-27.5407
-30.4845
-42.8894
12.5822
-0.67603
-6.45602
-14.973
-22.1061
-29.9238
-37
-43.1206
-47.8287
-51.7874
-54.8748
-57.4733
-59.437
-61.2544
-63.6894