/*--------------------------------*- C++ -*----------------------------------*\
| =========                 |                                                 |
| \\      /  F ield         | OpenFOAM: The Open Source CFD Toolbox           |
|  \\    /   O peration     | Version:  2.1.1                                 |
|   \\  /    A nd           | Web:      www.OpenFOAM.org                      |
|    \\/     M anipulation  |                                                 |
\*---------------------------------------------------------------------------*/
FoamFile
{
    version     2.0;
    format      ascii;
    class       volScalarField;
    location    "0.001";
    object      p_rgh;
}
// * * * * * * * * * * * * * * * * * * * * * * * * * * * * * * * * * * * * * //

dimensions      [1 -1 -2 0 0 0 0];

internalField   nonuniform List<scalar> 
36520
(
-2.42489
-16.3073
-23.6665
-33.8498
-43.1331
-52.0831
-60.2942
-67.4458
-73.5859
-78.7887
-83.3171
-87.5788
-91.5974
-95.796
-100.442
-106.213
-113.545
-122.652
-133.407
-145.409
-157.773
-169.618
-180.219
-189.326
-197.169
-204.197
-210.752
-216.893
-222.735
-228.471
-234.308
-240.618
-247.974
-257.05
-268.868
-284.803
-306.426
-335.271
-372.957
-418.356
-460.298
-484.152
-479.469
-434.112
-339.648
-214.154
-108.053
-51.3773
-22.8678
-11.097
-8.41376
-11.5302
-15.5887
-23.3675
-28.2156
-37.7374
-41.6983
-52.4007
-54.6786
-66.8989
-0.757168
-14.5714
-22.4717
-32.8173
-42.1736
-51.0724
-59.3214
-66.4354
-72.5156
-77.6068
-82.0406
-86.2089
-90.0818
-94.1628
-98.7024
-104.461
-111.853
-121.078
-131.994
-144.205
-156.77
-168.743
-179.374
-188.408
-196.132
-203.067
-209.597
-215.715
-221.492
-227.138
-232.83
-238.966
-246.177
-255.121
-266.827
-282.66
-304.313
-333.462
-372.136
-420.095
-465.357
-491.321
-488.745
-446.2
-351.459
-218.882
-103.574
-47.8361
-19.6639
-8.6598
-6.28531
-9.90493
-13.9649
-21.8217
-26.7028
-36.2323
-40.1992
-50.9207
-53.2003
-65.4234
0.737194
-13.3589
-22.1377
-32.6302
-41.9252
-50.9099
-59.1387
-66.2524
-72.2094
-77.1834
-81.4617
-85.4595
-89.2199
-93.1361
-97.501
-103.165
-110.546
-119.852
-130.974
-143.537
-156.486
-168.753
-179.527
-188.491
-195.987
-202.739
-209.24
-215.335
-220.989
-226.436
-231.801
-237.491
-244.111
-252.4
-263.459
-278.858
-300.562
-330.357
-371.068
-424.389
-476.527
-506.627
-508.471
-471.882
-378.559
-231.376
-94.8706
-41.3846
-14.0445
-4.829
-3.5839
-8.01313
-12.5097
-20.6683
-25.7707
-35.3962
-39.4503
-50.2207
-52.5357
-64.7672
2.02652
-12.6292
-22.0304
-32.6122
-41.9503
-50.9794
-59.3891
-66.4599
-72.2643
-77.0228
-81.0119
-84.6972
-88.2027
-91.7636
-95.7908
-101.273
-108.625
-118.079
-129.534
-142.643
-156.217
-168.943
-179.917
-188.796
-196.006
-202.487
-208.919
-214.964
-220.502
-225.82
-230.919
-235.917
-241.687
-249.101
-259.255
-274.085
-295.917
-326.668
-370.327
-431.7
-492.766
-528.505
-535.189
-508.219
-418.102
-253.637
-80.6157
-31.7394
-5.78167
0.632859
0.0261411
-5.39951
-10.5941
-19.1477
-24.4774
-34.2628
-38.3617
-49.1572
-51.4793
-63.7237
2.52708
-11.9605
-21.8318
-32.6285
-41.8886
-51.1108
-59.741
-66.8049
-72.3373
-76.8626
-80.5449
-83.7874
-87.0275
-90.1852
-93.8727
-99.2049
-106.594
-116.268
-128.107
-141.939
-156.384
-169.722
-181.019
-189.743
-196.33
-202.316
-208.742
-214.891
-220.233
-224.872
-229.281
-233.485
-238.456
-244.75
-253.851
-267.849
-289.784
-321.644
-368.82
-439.691
-510.994
-550.84
-559.634
-549.49
-470.074
-285.513
-58.7518
-18.7101
4.86714
7.38089
4.6309
-2.24855
-8.37346
-17.461
-23.1421
-33.1032
-37.3314
-48.1783
-50.5369
-62.7872
0.492826
-11.3032
-21.9281
-32.8762
-42.206
-51.6056
-60.6941
-67.7832
-72.9439
-77.0713
-80.277
-82.8847
-85.7685
-88.5525
-91.4869
-96.4512
-103.807
-113.76
-125.987
-140.804
-156.465
-170.757
-182.656
-191.384
-197.186
-202.771
-209.134
-215.09
-220.2
-224.803
-228.678
-231.684
-235.178
-240.255
-248.118
-260.643
-282.57
-315.373
-365.457
-446.251
-528.419
-568.895
-581.379
-598.81
-543.214
-323.157
-24.4163
-1.5901
17.298
15.5975
10.0318
1.38097
-5.85326
-15.5821
-21.665
-31.8296
-36.1938
-47.1
-49.5006
-61.7495
3.02064
-9.3297
-21.6071
-32.8053
-42.1404
-51.9484
-62.0342
-69.0579
-73.6965
-77.4232
-80.2277
-82.4237
-85.1262
-86.7429
-88.4723
-93.2164
-100.742
-111.191
-123.862
-139.953
-157.301
-172.607
-184.859
-193.544
-197.78
-201.925
-208.171
-214.764
-220.382
-225.066
-228.7
-231.002
-233.401
-236.918
-242.002
-252.632
-274.783
-307.902
-359.595
-452.545
-547.405
-578.78
-616.611
-683.787
-665.879
-332.78
25.1771
19.0941
31.604
24.9752
16.143
5.45705
-3.00915
-13.4685
-20.0405
-30.4313
-34.9681
-45.9439
-48.3991
-60.6536
-13.362
-11.315
-22.2497
-32.93
-42.3327
-52.5333
-63.9139
-71.6711
-75.3856
-77.9704
-80.129
-81.9235
-83.9531
-84.4428
-84.3482
-88.8667
-95.7694
-107.33
-120.665
-137.857
-156.556
-172.594
-184.934
-192.31
-196.849
-201.325
-207.866
-214.588
-220.342
-224.878
-228.106
-229.989
-231.618
-234.238
-238.401
-248.379
-269.77
-301.63
-348.633
-442.688
-563.501
-635.187
-720.584
-809.507
-753.988
-252.528
74.3315
46.9533
48.4303
35.8585
23.2871
10.2495
0.366077
-10.9538
-18.1081
-28.7889
-33.5461
-44.6184
-47.1545
-59.4255
21.011
-0.277323
-19.5869
-30.2404
-41.2551
-53.0023
-67.9298
-75.5115
-76.634
-77.517
-78.6989
-80.1465
-83.648
-82.6641
-79.6412
-81.5844
-91.985
-104.504
-118.318
-136.319
-156.904
-175.017
-187.388
-193.478
-196.284
-199.969
-206.227
-212.328
-218.535
-223.877
-227.436
-229.691
-230.474
-232.291
-235.304
-241.471
-257.469
-292.525
-346.089
-435.181
-505.059
-562.834
-683.673
-766.016
-653.207
-171.443
101.395
68.2511
61.4871
44.0037
28.5365
13.7564
2.84701
-9.07418
-16.5469
-27.3662
-32.2103
-43.3194
-45.8772
-58.1595
37.9073
-2.37804
-20.8369
-27.9994
-40.1551
-54.8546
-69.8692
-77.6995
-78.0932
-77.5857
-78.8569
-80.7533
-82.3433
-80.5183
-77.0026
-77.0167
-86.1404
-100.852
-114.984
-133.098
-153.597
-171.442
-183.737
-189.515
-192.562
-196.805
-203.123
-208.817
-214.562
-219.989
-224.483
-226.188
-225.993
-227.643
-231.824
-238.732
-259.56
-298.323
-345.315
-431.541
-469.662
-311.078
-711.179
-804.162
-585.938
-123.989
113.958
77.2702
66.4385
47.037
30.6178
15.3226
4.094
-7.86395
-15.5264
-26.4214
-31.342
-42.4647
-45.0565
-57.3316
28.0796
-8.1434
-21.4889
-25.1272
-36.6057
-53.3139
-68.8161
-75.829
-75.6415
-76.232
-77.7853
-80.6619
-83.0316
-80.5323
-73.8925
-69.569
-79.1714
-96.3041
-112.535
-131.22
-152.705
-169.929
-180.539
-185.376
-188.671
-192.843
-198.678
-204.559
-211.065
-217.7
-223.569
-226.446
-221.686
-217.429
-225.472
-233.246
-253.067
-294.913
-347.034
-419.857
-476.019
-376.797
-608.135
-759.697
-589.777
-71.2855
121.536
87.4297
70.5678
49.3733
32.0908
16.3457
4.89454
-7.21802
-14.8845
-25.7683
-30.6712
-41.7758
-44.3417
-56.6237
-9.02075
-6.64162
-15.634
-21.886
-33.5019
-49.1589
-63.7523
-71.2861
-74.3279
-76.4993
-78.6015
-80.0365
-81.8331
-81.4128
-79.6183
-76.6893
-82.9842
-95.7078
-110.296
-128.401
-148.946
-164.4
-174.774
-180.921
-185.765
-190.416
-196.416
-202.77
-208.986
-214.8
-219.342
-221.275
-221.025
-221.104
-226.438
-234.542
-251.791
-290.974
-347.762
-421.681
-490.305
-486.523
-684.532
-745.279
-680.649
-40.4066
121.359
92.0709
70.1859
48.5909
31.5138
16.0323
4.83384
-7.10755
-14.6181
-25.4007
-30.2068
-41.2741
-43.8176
-56.0845
-18.1588
-9.74968
-15.1449
-20.3296
-30.4521
-46.4282
-60.2615
-68.4555
-73.1229
-76.0895
-77.4027
-79.096
-80.6181
-81.0575
-80.2942
-76.4768
-81.3677
-93.3394
-106.464
-124.457
-144.605
-159.334
-169.713
-176.745
-182.278
-187.881
-194.697
-200.832
-206.747
-211.639
-213.768
-215.407
-216.47
-220.024
-225.38
-234.924
-253.185
-294.034
-350.679
-420.232
-480.322
-496.902
-741.317
-792.955
-664.915
-35.2134
123.435
94.3214
71.6599
49.8549
32.6109
17.0087
5.73072
-6.29376
-13.8652
-24.6924
-29.5665
-40.6468
-43.203
-55.4805
1.47176
-7.04824
-12.4634
-18.3499
-31.093
-48.9874
-62.9328
-70.5355
-75.1626
-77.4879
-77.396
-78.1637
-78.5362
-75.9332
-70.2185
-69.3753
-79.0778
-93.429
-107.555
-124.652
-145.16
-161.305
-172.38
-178.468
-182.837
-186.993
-193.548
-200.862
-207.774
-212.875
-212.459
-211.331
-213.004
-217.211
-224.011
-234.544
-253.266
-292.31
-349.634
-418.124
-462.852
-551.385
-819.92
-882.215
-477.703
-45.7694
129.119
92.5691
72.916
51.4952
34.0557
18.2296
6.7846
-5.36659
-13.0386
-23.9119
-28.7933
-39.8859
-42.4348
-54.7067
51.6537
4.53623
-10.8308
-17.1659
-28.2026
-42.5616
-54.899
-64.127
-71.1197
-72.9915
-72.5578
-73.6649
-77.0537
-77.3994
-75.6969
-75.6003
-82.526
-93.502
-106.671
-122.667
-139.172
-153.272
-165.389
-176.547
-182.029
-185.914
-192.161
-198.778
-204.662
-209.126
-211.609
-211.726
-214.03
-218.785
-226.175
-238.186
-260.274
-299.136
-353.867
-420.613
-484.435
-478.996
-680.869
-920.338
-394.943
-50.9532
125.606
88.311
70.6939
50.7471
34.0666
18.6406
7.4331
-4.63467
-12.1555
-22.9565
-27.775
-38.8452
-41.3769
-53.6503
8.90714
-7.09681
-10.7213
-15.379
-26.745
-40.4509
-53.5464
-61.4193
-67.4182
-71.5334
-72.3286
-71.8792
-72.7004
-73.2678
-73.6779
-76.4267
-83.7918
-94.314
-106.985
-122.462
-138.243
-151.453
-162.477
-171.617
-177.867
-182.596
-189.171
-197.208
-203.53
-207.442
-208.706
-208.986
-212.684
-219.475
-228.582
-242.416
-265.535
-302.104
-354.114
-419.486
-468.169
-477.833
-813.414
-875.007
-453.586
-86.8522
117.285
80.8321
67.2933
49.4303
34.0501
19.3927
8.55454
-3.25216
-10.7923
-21.6559
-26.5371
-37.6532
-40.2172
-52.4965
-5.74338
-11.1
-13.3968
-17.8081
-27.2068
-38.4792
-49.4021
-57.5431
-63.2309
-66.8459
-68.4705
-69.9032
-70.6314
-70.8471
-71.499
-74.8287
-81.7262
-91.9147
-104.953
-121.017
-137.373
-151.105
-162.304
-171.05
-177.374
-182.51
-188.757
-196.02
-201.198
-202.533
-203.143
-203.665
-207.957
-216.543
-228.524
-246.964
-275.985
-318.047
-371.74
-445.188
-525.342
-530.265
-618.495
-785.693
-696.581
-230.853
85.4818
59.4093
56.1941
43.0002
30.4259
17.4924
7.74615
-3.44184
-10.4514
-21.0613
-25.7229
-36.7687
-39.2474
-51.5149
5.23404
-7.47549
-12.4134
-18.694
-27.6178
-37.2271
-46.5432
-54.2135
-59.8145
-63.6945
-66.0511
-67.7429
-69.2138
-70.7699
-72.6343
-76.3693
-83.1405
-92.8583
-104.933
-119.619
-134.726
-147.885
-158.966
-167.85
-174.61
-180.276
-186.329
-192.952
-198.611
-201.291
-202.723
-205.162
-210.696
-219.972
-233.178
-253.043
-283.836
-326.795
-382.647
-451.779
-501.564
-517.21
-534.103
-591.343
-577.954
-298.194
35.1622
30.3308
39.7507
32.9638
24.3518
13.9006
5.74694
-4.47003
-10.7863
-21.0393
-25.4121
-36.3246
-38.6889
-50.9319
5.36691
-7.02989
-12.4721
-19.3142
-27.387
-36.1524
-44.4384
-51.6193
-57.1116
-61.1275
-63.919
-65.9471
-67.9075
-69.9308
-72.6921
-77.2142
-84.2314
-93.8864
-105.724
-119.558
-133.842
-146.733
-157.763
-166.726
-173.829
-179.986
-186.156
-192.509
-197.913
-201.373
-204.14
-208.087
-214.946
-225.64
-240.747
-262.672
-294.235
-334.455
-386.146
-444.927
-488.21
-507.464
-515.748
-527.708
-468.922
-273.013
-14.5129
8.92758
25.6044
24.1676
18.9703
10.6891
3.91559
-5.4512
-11.1507
-21.0914
-25.1959
-35.9853
-38.2403
-50.4663
9.10306
-5.30179
-11.7584
-19.2471
-26.8149
-34.9559
-42.7216
-49.5763
-55.0204
-59.2303
-62.4269
-65.0115
-67.401
-69.8187
-72.8504
-77.6513
-84.7589
-94.2465
-105.776
-119.006
-132.614
-145.176
-156.094
-165.139
-172.571
-179.114
-185.39
-191.69
-197.271
-201.462
-205.301
-210.506
-218.418
-229.942
-245.813
-267.952
-298.563
-336
-382.034
-432.345
-471.288
-490.343
-496.157
-482.848
-403.966
-237.562
-47.7281
-7.14416
13.919
16.7364
14.3625
7.93146
2.3422
-6.25397
-11.4404
-21.1051
-24.9703
-35.642
-37.8007
-49.9974
8.69782
-4.73507
-11.2355
-18.8984
-26.2372
-33.934
-41.333
-47.9005
-53.2983
-57.5431
-60.9262
-63.7699
-66.362
-69.1299
-72.6774
-77.9035
-85.1972
-94.6316
-105.912
-118.636
-131.735
-144.024
-154.822
-163.896
-171.538
-178.324
-184.752
-191.102
-196.951
-201.92
-206.918
-213.306
-222.27
-234.623
-251.162
-273.299
-302.004
-336.583
-377.683
-419.584
-452.526
-469.759
-471.43
-443.099
-357.265
-209.287
-65.5914
-18.332
4.99385
11.3025
10.9215
5.93826
1.28559
-6.7322
-11.5046
-20.9916
-24.6792
-35.2872
-37.3824
-49.5664
9.90217
-3.81754
-10.4274
-18.1643
-25.3525
-32.7771
-39.8682
-46.2549
-51.6034
-55.9898
-59.6073
-62.8342
-65.756
-68.6985
-72.429
-77.8256
-85.1824
-94.5498
-105.657
-118.036
-130.751
-142.821
-153.54
-162.655
-170.438
-177.363
-183.884
-190.202
-196.138
-201.71
-207.625
-214.879
-224.48
-237.299
-254.17
-275.931
-303.275
-335.725
-372.125
-407.929
-435.832
-450.144
-444.399
-407.446
-320.929
-189.962
-76.65
-26.1073
-1.3479
7.42523
8.76605
4.82518
0.924042
-6.61049
-11.0654
-20.3101
-23.8622
-34.413
-36.4432
-48.6173
9.58461
-3.21541
-9.29477
-17.1089
-24.4799
-31.7509
-38.7249
-44.9579
-50.3067
-54.7405
-58.4998
-61.8245
-64.9051
-68.1934
-72.1285
-77.656
-85.0584
-94.3465
-105.284
-117.397
-129.848
-141.763
-152.464
-161.676
-169.638
-176.742
-183.416
-189.852
-196.015
-202.039
-208.549
-216.4
-226.443
-239.484
-256.353
-277.681
-303.903
-334.535
-368.161
-400.543
-425.436
-437.314
-427.794
-382.977
-296.03
-180.174
-83.3447
-31.4058
-5.51434
4.97384
7.38129
4.50722
0.973865
-6.32958
-10.6337
-19.809
-23.3305
-33.8779
-35.8939
-48.072
9.20979
-2.76069
-8.28823
-15.9231
-23.1537
-30.271
-37.1472
-43.3016
-48.6298
-53.1078
-56.9296
-60.3464
-63.4627
-66.7939
-70.8423
-76.4731
-83.961
-93.2949
-104.221
-116.235
-128.555
-140.351
-150.973
-160.159
-168.152
-175.297
-182.001
-188.459
-194.721
-200.975
-207.809
-216.005
-226.349
-239.614
-256.561
-277.773
-303.488
-333.364
-365.759
-396.468
-419.868
-430.054
-417.104
-370.75
-284.596
-175.714
-85.8982
-33.5714
-6.94497
4.58463
7.6259
5.4642
2.11072
-4.98033
-9.16596
-18.274
-21.7446
-32.2622
-34.2603
-46.4329
11.0635
-1.29195
-6.99233
-14.2886
-21.3774
-28.2478
-34.8164
-40.7185
-45.9997
-50.7023
-55.1468
-59.3111
-63.3154
-67.4182
-71.4944
-76.4061
-83.1312
-92.0312
-103.02
-115.306
-127.776
-139.518
-149.933
-158.898
-166.568
-173.304
-179.566
-185.555
-191.44
-197.496
-204.265
-212.294
-222.389
-235.472
-252.644
-274.74
-301.713
-332.09
-364.008
-393.425
-414.957
-424.276
-413.967
-373.421
-292.552
-184.045
-88.7392
-35.2241
-7.11375
4.84652
7.90192
5.68853
2.21153
-4.96186
-9.2162
-18.3266
-21.802
-32.3269
-34.3208
-46.489
11.7699
-1.90203
-7.92975
-15.3921
-22.6027
-29.5925
-36.2687
-42.2535
-47.5685
-52.3154
-56.7838
-60.9537
-65.002
-69.1415
-73.0834
-77.739
-84.205
-92.9741
-103.994
-116.438
-129.118
-140.997
-151.456
-160.405
-168.034
-174.718
-180.925
-186.844
-192.635
-198.542
-205.099
-212.854
-222.608
-235.399
-252.445
-274.831
-302.632
-333.726
-366.678
-397.333
-420.016
-430.627
-422.794
-385.351
-304.501
-189.695
-85.9625
-32.8814
-5.16667
5.58546
7.98641
5.02416
1.27489
-6.15946
-10.5638
-19.7565
-23.3007
-33.8817
-35.9028
-48.0819
12.0582
-2.1164
-8.96376
-16.4748
-23.5124
-30.621
-37.3075
-43.3009
-48.5276
-53.1639
-57.5393
-61.5894
-65.5386
-69.5169
-73.2276
-77.6009
-83.927
-92.7519
-104.066
-116.978
-130.085
-142.184
-152.655
-161.513
-169.003
-175.533
-181.597
-187.362
-192.905
-198.419
-204.479
-211.663
-220.863
-233.231
-250.275
-273.357
-302.579
-335.991
-370.895
-404.101
-429.397
-442.728
-441.75
-409.375
-330.399
-201.914
-78.867
-27.3521
-0.248543
8.41326
9.69499
5.52816
1.39973
-6.34353
-10.9545
-20.2091
-23.7909
-34.3591
-36.4019
-48.58
11.9792
-2.63922
-9.96751
-17.3252
-24.2653
-31.5701
-38.4759
-44.6099
-49.8494
-54.5231
-58.9252
-63.062
-67.0961
-71.0031
-74.3867
-77.9362
-83.6371
-92.3203
-103.967
-117.549
-131.281
-143.724
-154.23
-162.921
-170.201
-176.519
-182.396
-187.933
-193.115
-198.11
-203.553
-210.071
-218.476
-230.178
-247.156
-271.285
-302.774
-339.14
-377.717
-414.094
-442.619
-458.559
-463.749
-444.325
-369.69
-223.707
-66.6932
-18.9432
7.12214
12.6466
11.9987
6.60663
1.65565
-6.59103
-11.5152
-20.9825
-24.7253
-35.3539
-37.4644
-49.654
12.1394
-3.43573
-11.2209
-18.5099
-25.2597
-32.8067
-39.8985
-46.0118
-51.1099
-55.5503
-59.8727
-64.0418
-67.9443
-71.5094
-74.4416
-77.3306
-82.6191
-91.3423
-103.509
-118.012
-132.559
-145.443
-155.927
-164.361
-171.319
-177.392
-183.097
-188.454
-193.332
-197.749
-202.43
-207.944
-215.075
-225.829
-242.608
-267.838
-301.713
-341.387
-383.083
-423.559
-455.743
-476.378
-492.704
-491.347
-421.413
-256.57
-48.8343
-7.80387
16.3759
17.7628
15.0664
8.14375
2.20458
-6.63858
-11.9591
-21.5822
-25.4428
-36.0608
-38.1951
-50.3798
11.9452
-3.66163
-12.5584
-19.3328
-25.9242
-33.7761
-41.1684
-47.4014
-52.3652
-56.9122
-61.3812
-65.5396
-69.5741
-73.0585
-75.4118
-77.3639
-81.4392
-90.1656
-102.799
-118.367
-133.861
-147.192
-157.5
-165.437
-171.961
-177.841
-183.541
-188.781
-193.317
-197.084
-200.823
-204.953
-210.553
-219.796
-235.615
-261.484
-298.011
-341.751
-387.053
-432.217
-467.743
-490.685
-512.909
-526.273
-482.739
-295.698
-24.0891
6.18218
26.497
23.7061
18.4655
9.90072
2.9555
-6.5102
-12.224
-22.0746
-26.0939
-36.7906
-38.9691
-51.1676
7.17141
-4.69189
-13.8391
-20.2324
-26.8317
-34.9343
-42.7638
-49.0574
-53.7338
-57.9625
-62.3434
-66.6405
-70.6039
-73.4997
-75.0711
-76.2682
-79.8203
-88.7558
-101.942
-118.935
-135.779
-149.859
-160.043
-167.364
-173.423
-179.301
-184.973
-190.129
-194.254
-197.118
-199.877
-202.464
-206.333
-213.869
-228.337
-253.783
-291.906
-338.963
-387.279
-435.854
-476.549
-502.897
-531.691
-562.456
-570.052
-316.254
9.29927
25.5801
38.5021
30.8778
22.6881
12.321
4.25523
-5.88472
-12.0962
-22.1929
-26.4284
-37.2097
-39.4682
-51.6854
7.42777
-3.39116
-14.8233
-20.831
-27.7259
-36.4435
-44.8666
-50.9499
-54.9361
-58.8986
-63.3966
-67.3848
-70.9978
-73.6359
-74.2757
-74.6159
-77.8929
-87.5634
-101.256
-119.59
-138.074
-153.08
-163.046
-169.463
-174.727
-180.407
-186.149
-191.784
-195.857
-198.76
-200.647
-201.714
-203.614
-209.444
-222.288
-246.739
-284.797
-332.152
-379.425
-431.05
-480.399
-506.21
-546.201
-643.07
-739.778
-294.507
50.4152
50.5624
52.3716
39.4471
27.8367
15.4192
6.05546
-4.87953
-11.6676
-22.0859
-26.5871
-37.498
-39.8812
-52.1191
-8.97525
-6.23505
-16.5273
-21.4446
-28.5856
-38.2538
-47.268
-52.7511
-55.9553
-59.7335
-64.4967
-69.2615
-73.3342
-74.8976
-74.5879
-72.5775
-75.109
-85.9133
-100.244
-119.926
-140.346
-156.674
-166.937
-172.585
-177.486
-183.803
-191.46
-196.851
-200.126
-201.584
-202.14
-201.67
-201.648
-205.858
-216.771
-238.091
-273.755
-319.445
-368.48
-423.447
-488.564
-532.227
-621.965
-743.242
-805.369
-156.035
102.709
76.2917
67.2579
48.8539
33.5789
18.9154
8.09482
-3.73645
-11.1946
-21.9803
-26.7919
-37.8466
-40.3678
-52.6318
17.6871
1.87769
-16.4074
-22.6502
-30.6586
-42.0313
-51.5669
-57.0493
-58.9863
-61.9901
-67.3041
-70.4348
-72.9548
-73.6859
-71.3014
-68.3831
-73.509
-87.4247
-103.588
-122.907
-143.78
-160.428
-169.523
-174.157
-178.307
-184.082
-191.151
-196.495
-199.551
-202.505
-203.863
-203.604
-204.062
-209.989
-220.24
-239.424
-272.675
-317.823
-365.847
-413.252
-447.164
-420.665
-661.092
-782.563
-542.322
-44.0693
132.531
92.6031
75.2131
53.9134
36.4503
20.4234
8.69628
-3.69138
-11.5798
-22.5933
-27.6069
-38.7508
-41.3581
-53.6366
85.3946
9.0261
-15.1482
-24.2135
-34.8493
-46.9711
-55.486
-57.3652
-57.8715
-60.8828
-67.0853
-72.3964
-75.8296
-76.6548
-74.5184
-70.9999
-75.9121
-89.3355
-105.526
-125.096
-146.895
-165.566
-175.412
-179.356
-181.639
-185.848
-191.787
-196.206
-198.016
-198.949
-197.65
-197.072
-198.711
-204.038
-213.889
-233.31
-264.879
-310.018
-359.015
-419.354
-458.082
-344.367
-714.29
-962.842
-313.141
-13.296
134.646
96.3724
75.3691
53.6992
35.797
19.464
7.57356
-4.88356
-12.7964
-23.774
-28.7481
-39.8518
-42.4341
-54.7023
73.1028
8.64984
-18.1812
-27.5949
-35.7029
-43.5147
-51.9847
-57.6235
-60.6215
-63.6031
-67.809
-72.5915
-76.4583
-77.796
-76.6092
-75.156
-80.4786
-93.1464
-109.252
-128.679
-149.898
-167.384
-176.045
-178.913
-181.726
-186.6
-191.941
-195.545
-196.981
-198.004
-198.207
-197.855
-199.058
-205.264
-214.925
-230.933
-260.529
-305.284
-353.628
-418.462
-468.909
-356.254
-789.907
-989.916
-184.337
17.8667
129.844
96.9603
75.2601
53.444
35.3133
18.8098
6.8323
-5.66052
-13.5976
-24.5845
-29.5668
-40.6626
-43.247
-55.5147
78.2239
8.17259
-14.6195
-22.9047
-35.2015
-46.8026
-54.3281
-60.8832
-64.9344
-67.6572
-70.6951
-74.4811
-78.2856
-78.9233
-76.2993
-75.0983
-81.9759
-94.4226
-110.194
-130.141
-151.699
-169.935
-179.901
-182.655
-184.331
-189.133
-194.557
-197.197
-197.01
-196.666
-197.792
-198.354
-200.184
-207.548
-217.068
-231.977
-260.085
-306.343
-354.935
-423.775
-484.367
-379.54
-806.783
-1023.72
-254.142
4.24969
127.342
94.4089
73.4139
51.706
33.7861
17.5131
5.71713
-6.64075
-14.4526
-25.3653
-30.3325
-41.4488
-44.0398
-56.31
49.7683
5.60483
-18.5943
-26.3272
-36.2708
-44.6807
-53.6233
-62.3471
-68.2967
-71.5278
-75.1205
-78.4407
-81.9231
-81.8472
-78.4369
-76.5882
-82.7461
-96.5636
-112.797
-131.728
-153.615
-171.664
-181.29
-184.269
-186.645
-191.796
-196.916
-199.519
-200.938
-202.918
-205.145
-205.839
-206.239
-209.874
-221.43
-239.378
-264.466
-304.677
-348.525
-421.72
-483.481
-520.145
-837.924
-790.114
-423.808
-44.4388
117.563
89.1068
70.8385
49.5687
32.1287
16.1906
4.63631
-7.58817
-15.3333
-26.2663
-31.1873
-42.2607
-44.82
-57.0871
-9.22747
-12.8846
-22.2857
-25.7719
-38.2609
-48.7106
-56.4096
-65.031
-71.2333
-74.0985
-77.8204
-81.8068
-85.8578
-83.6853
-77.3624
-75.3735
-81.9065
-96.2071
-113.469
-133.964
-157.576
-176.707
-187.228
-188.475
-190.368
-196.342
-200.886
-198.788
-194.589
-194.953
-198.227
-203.627
-208.564
-214.202
-224.065
-240.282
-267.614
-305.083
-348.651
-433.346
-575.786
-539.274
-710.941
-718.758
-573.437
-90.5626
98.4101
80.2547
65.4335
45.6089
29.3231
14.1235
3.00644
-8.97479
-16.5483
-27.349
-32.2003
-43.2681
-45.8078
-58.0748
-19.198
-18.4591
-24.0515
-28.9575
-38.1986
-47.3297
-55.2798
-63.2366
-70.6299
-75.0844
-78.9254
-83.2981
-88.7259
-88.5952
-84.5267
-84.8281
-89.243
-99.2693
-115.807
-135.41
-154.913
-170.447
-179.862
-186.339
-190.832
-196.266
-201.513
-203.681
-205.277
-206.591
-205.71
-206.525
-211
-218.302
-231.07
-250.616
-283.569
-328.099
-387.171
-453.707
-547.299
-602.931
-707.526
-730.776
-673.149
-157.594
74.7854
62.5447
54.7951
38.3927
24.5511
10.8527
0.679937
-10.755
-17.962
-28.6596
-33.412
-44.424
-46.9284
-59.1856
-29.4468
-19.0363
-26.1925
-29.3974
-39.3735
-48.7194
-57.5307
-65.8316
-72.6482
-77.4126
-81.0016
-84.4387
-88.9702
-89.5169
-86.2664
-86.2183
-92.6834
-103.475
-119.388
-139.121
-158.14
-173.699
-183.554
-188.927
-192.864
-197.64
-202.597
-205.549
-205.476
-205.223
-205.864
-208.275
-214.479
-222.912
-236.135
-256.803
-287.508
-326.095
-367.28
-442.985
-553.599
-633.573
-663.934
-657.761
-667.401
-281.372
45.0487
46.833
47.269
34.0447
22.0151
9.2683
-0.387976
-11.552
-18.5946
-29.1425
-33.8511
-44.8673
-47.3922
-59.6507
-6.37532
-13.9732
-22.6868
-30.387
-39.441
-48.5714
-57.3796
-65.0307
-71.4771
-75.957
-79.6266
-83.6649
-87.1881
-89.1159
-88.6392
-90.1548
-96.8003
-107.684
-122.161
-140.173
-158.35
-173.143
-182.616
-188.039
-192.363
-196.568
-201.22
-204.368
-205.752
-206.783
-208.491
-211.977
-218.402
-227.783
-242.246
-265.319
-300.193
-342.304
-395.593
-465.313
-532.704
-590.728
-626.416
-617.642
-556.899
-312.536
14.9514
22.4121
35.2963
27.1597
17.7782
6.45874
-2.41362
-13.17
-19.9456
-30.4341
-35.0418
-46.0274
-48.4851
-60.7375
-4.17474
-16.731
-24.5087
-31.9225
-40.0913
-48.7458
-57.0246
-64.6264
-71.0011
-75.9644
-80.1281
-84.1664
-88.015
-90.0819
-91.5494
-95.1162
-101.89
-112.077
-125.328
-141.136
-157.377
-171.169
-181.126
-188.146
-193.544
-198.421
-202.862
-206.183
-208.235
-210.387
-213.201
-217.508
-224.502
-235.075
-250.861
-273.4
-308.865
-348.012
-398.294
-459.31
-509.872
-539.67
-562.233
-548.594
-476.921
-294.039
-32.3452
-2.14389
18.2164
16.2794
10.7261
1.79649
-5.60008
-15.4851
-21.6593
-31.8287
-36.2448
-47.1577
-49.5673
-61.8078
-1.39515
-14.6203
-23.5102
-32.0082
-40.0389
-48.5911
-56.7157
-64.0224
-70.2785
-75.3615
-79.852
-84.1427
-88.2756
-91.5411
-94.2471
-98.3585
-105.267
-115.086
-127.483
-141.773
-156.39
-169.188
-179.137
-186.659
-192.699
-198.024
-203.058
-207.355
-211.171
-214.426
-218.154
-223.302
-230.879
-241.893
-257.909
-280.461
-312.209
-350.689
-398.639
-451.975
-495.882
-525.887
-530.675
-506.141
-426.147
-262.163
-63.3782
-19.9418
4.62021
7.26165
4.73131
-2.23515
-8.41979
-17.5971
-23.2941
-33.2482
-37.4854
-48.3179
-50.6506
-62.8816
-0.345321
-14.7319
-23.3877
-32.2192
-40.419
-48.8121
-56.7805
-63.9948
-70.2482
-75.5028
-80.1082
-84.3935
-88.4479
-92.1701
-95.7741
-100.621
-107.745
-117.344
-129.155
-142.597
-156.278
-168.547
-178.583
-186.547
-193.131
-198.863
-204.019
-208.433
-212.431
-216.337
-220.868
-226.916
-235.402
-247.19
-263.582
-285.828
-315.067
-350.934
-394.211
-440.952
-477.119
-500.525
-500.741
-466.192
-381.888
-234.572
-82.5007
-32.6984
-6.32
0.295257
-0.137437
-5.5605
-10.7577
-19.3501
-24.6334
-34.3773
-38.4597
-49.2131
-51.4857
-63.714
0.126307
-14.3153
-23.1001
-32.3333
-40.8069
-49.2616
-57.1794
-64.3391
-70.6139
-76.0034
-80.8128
-85.3626
-89.6572
-93.7744
-97.8312
-102.982
-110.14
-119.506
-130.846
-143.601
-156.568
-168.433
-178.448
-186.702
-193.652
-199.713
-205.178
-210.033
-214.421
-218.776
-223.801
-230.379
-239.383
-251.576
-268.069
-289.858
-317.483
-351.223
-390.554
-429.627
-460.216
-476.26
-472.201
-432.864
-346.86
-216.463
-94.8289
-41.9204
-14.5035
-5.16426
-3.8234
-8.25477
-12.7505
-20.9284
-25.9696
-35.591
-39.5893
-50.3149
-52.5766
-64.7918
-1.29472
-15.1637
-23.1454
-32.296
-41.0061
-49.4293
-57.3571
-64.5031
-70.7981
-76.2404
-81.1029
-85.694
-89.996
-94.2801
-98.6929
-104.182
-111.456
-120.736
-131.813
-144.164
-156.709
-168.336
-178.35
-186.762
-193.916
-200.149
-205.728
-210.738
-215.398
-220.132
-225.611
-232.639
-242.031
-254.518
-271.074
-292.487
-319.173
-351.414
-387.782
-422.772
-450.49
-464.867
-456.138
-411.43
-324.392
-206.608
-102.431
-48.1823
-20.0855
-8.9855
-6.59226
-10.1954
-14.2396
-22.0911
-26.9051
-36.4195
-40.2799
-50.9497
-53.1703
-65.3788
-3.24475
-16.4395
-24.1404
-33.4694
-42.2466
-50.7385
-58.6646
-65.8171
-72.1315
-77.6446
-82.5803
-87.2814
-91.6684
-96.0424
-100.619
-106.203
-113.446
-122.581
-133.435
-145.522
-157.832
-169.336
-179.353
-187.858
-195.122
-201.451
-207.114
-212.21
-216.961
-221.792
-227.382
-234.477
-243.901
-256.403
-272.875
-294.005
-320.149
-351.461
-386.378
-419.708
-445.901
-458.777
-448.344
-401.626
-314.603
-202.737
-106.252
-51.5921
-23.2659
-11.4084
-8.8327
-11.9101
-15.9589
-23.7218
-28.5248
-37.939
-41.8024
-52.4794
-54.7094
-66.9121
9.92314
-2.67929
-8.44215
-15.8251
-23.0954
-30.3525
-37.321
-43.5108
-48.7615
-53.1237
-56.7662
-59.9171
-62.687
-65.6156
-69.3244
-74.7794
-82.3039
-91.8935
-103.24
-115.81
-128.733
-141.048
-151.979
-161.219
-169.085
-176.024
-182.503
-188.765
-194.838
-200.903
-207.561
-215.696
-226.132
-239.736
-257.342
-279.465
-306.391
-337.952
-372.451
-405.525
-431.493
-444.873
-434.756
-387.131
-293.278
-171.137
-72.241
-19.7411
4.93303
14.1465
14.5254
10.6357
6.12868
-1.9706
-6.91924
-16.5589
-20.4517
-31.2183
-33.3992
-45.6423
11.8015
-2.18447
-8.12772
-15.7499
-23.08
-30.4726
-37.518
-43.7052
-48.8676
-53.1312
-56.6428
-59.4976
-61.9106
-64.4172
-67.7503
-72.9611
-80.4694
-90.2921
-102.048
-115.179
-128.72
-141.585
-152.843
-162.12
-169.817
-176.505
-182.726
-188.805
-194.777
-200.806
-207.45
-215.654
-226.381
-240.452
-258.83
-282.018
-310.131
-343.082
-379.17
-413.833
-441.577
-457.83
-450.56
-402.527
-300.413
-164.142
-56.3912
-5.10442
17.0611
22.7813
21.6494
15.7143
9.94991
0.902692
-4.81753
-14.9534
-19.2534
-30.24
-32.6089
-44.8942
11.0557
-2.2701
-8.21792
-15.7765
-23.0276
-30.5279
-37.6127
-43.7783
-48.8489
-53.0269
-56.4376
-59.0293
-61.1249
-63.2587
-66.2406
-71.1782
-78.66
-88.7443
-100.945
-114.683
-128.919
-142.392
-154.032
-163.375
-170.855
-177.234
-183.29
-189.358
-195.348
-201.472
-208.182
-216.445
-227.352
-241.741
-260.728
-284.708
-313.463
-346.987
-383.967
-419.825
-449.068
-468.193
-465.177
-416.671
-306.064
-154.51
-38.2695
10.0976
28.4928
31.3125
28.1649
20.4774
13.4683
3.51251
-2.8986
-13.4739
-18.161
-29.3382
-31.8822
-44.2082
11.4106
-2.09815
-7.97168
-15.8053
-22.9541
-30.6188
-37.727
-43.8815
-48.8757
-52.9535
-56.3093
-58.7237
-60.5552
-62.3788
-64.9645
-69.5192
-76.9191
-87.2327
-99.8146
-114.082
-128.931
-142.926
-154.819
-164.046
-171.106
-177.155
-182.857
-188.741
-194.578
-200.679
-207.479
-215.98
-227.319
-241.823
-260.813
-284.863
-313.6
-347.163
-385.1
-422.572
-454.091
-476.722
-479.098
-429.955
-309.467
-142.497
-18.2952
25.4867
38.5437
39.2252
33.9456
24.7016
16.5476
5.79678
-1.26078
-12.2179
-17.2431
-28.5682
-31.2704
-43.6263
10.5426
-2.15814
-7.90092
-15.9081
-22.9108
-30.6432
-37.6917
-43.7321
-48.5792
-52.5475
-55.8296
-58.1272
-59.8203
-61.3049
-63.4755
-67.8836
-75.2666
-85.7992
-98.7453
-113.499
-128.938
-143.448
-155.577
-164.916
-171.888
-177.737
-183.279
-189.047
-194.993
-201.365
-208.386
-217.014
-228.102
-242.299
-261.021
-285.061
-313.991
-347.824
-386.639
-426.252
-460.074
-487.372
-493.429
-442.047
-311.929
-131.578
1.46831
38.1391
47.92
45.8693
38.7053
28.1279
19.0256
7.62766
0.0546097
-11.2218
-16.5179
-27.9817
-30.8074
-43.1882
12.3746
-1.72466
-7.43624
-15.8483
-22.6777
-30.4004
-37.4538
-43.518
-48.3072
-52.2036
-55.4244
-57.7675
-59.5042
-60.9607
-63.0298
-67.2727
-74.6125
-85.1798
-98.1935
-113.103
-128.797
-143.479
-155.668
-164.461
-171.292
-177.058
-182.675
-188.41
-194.273
-200.708
-207.853
-216.503
-227.576
-241.82
-260.498
-284.581
-313.53
-346.267
-383.176
-421.666
-454.815
-486.235
-495.337
-448.728
-313.378
-125.564
15.4795
46.2073
54.2752
50.3271
41.8853
30.3866
20.6587
8.8142
0.893175
-10.5938
-16.0673
-27.6167
-30.5228
-42.9198
10.8674
-1.47405
-7.03204
-15.5615
-22.3321
-30.0613
-37.1326
-43.1924
-47.8862
-51.7571
-54.911
-57.3713
-59.1895
-60.6933
-62.9385
-67.0113
-74.1762
-84.6293
-97.6391
-112.528
-128.216
-143.075
-155.668
-164.871
-171.558
-177.089
-182.502
-188.264
-194.223
-200.539
-207.608
-216.242
-227.174
-241.392
-259.933
-283.768
-312.411
-345.528
-386.573
-431.32
-468.598
-496.139
-501.47
-457.723
-318.041
-121.727
24.7518
50.4006
57.4818
52.5354
43.4609
31.5073
21.4725
9.39184
1.26989
-10.3339
-15.897
-27.4833
-30.427
-42.8319
12.6426
-0.615594
-6.39559
-14.9125
-22.0456
-29.8633
-36.9396
-43.0602
-47.7682
-51.727