/*--------------------------------*- C++ -*----------------------------------*\
| =========                 |                                                 |
| \\      /  F ield         | OpenFOAM: The Open Source CFD Toolbox           |
|  \\    /   O peration     | Version:  2.1.1                                 |
|   \\  /    A nd           | Web:      www.OpenFOAM.org                      |
|    \\/     M anipulation  |                                                 |
\*---------------------------------------------------------------------------*/
FoamFile
{
    version     2.0;
    format      ascii;
    class       surfaceScalarField;
    location    "0.001";
    object      phi;
}
// * * * * * * * * * * * * * * * * * * * * * * * * * * * * * * * * * * * * * //

dimensions      [0 3 -1 0 0 0 0];

internalField   nonuniform List<scalar> 
105695
(
-5.33998e-08
-7.74174e-08
-8.44975e-08
2.15315e-07
-9.5933e-08
1.21502e-08
-6.22335e-09
3.66064e-08
-1.44876e-07
2.67317e-08
1.70771e-10
2.204e-08
-1.71355e-07
2.35125e-08
3.05098e-08
-2.75431e-08
-1.94591e-07
2.11317e-08
4.0574e-08
-3.84696e-08
-2.08911e-07
1.62566e-08
4.87991e-08
-5.07357e-08
-2.21844e-07
1.42501e-08
4.95634e-08
-5.08805e-08
-2.31255e-07
1.15318e-08
5.08051e-08
-5.2926e-08
-2.38453e-07
9.25214e-09
4.67136e-08
-4.87672e-08
-2.43445e-07
6.95103e-09
4.57442e-08
-4.77039e-08
-2.46624e-07
5.38813e-09
4.22684e-08
-4.44776e-08
-2.48965e-07
4.86006e-09
4.28289e-08
-4.53472e-08
-2.50763e-07
5.01812e-09
4.37294e-08
-4.69495e-08
-2.53213e-07
6.12084e-09
4.80935e-08
-5.17648e-08
-2.56859e-07
8.70364e-09
5.39339e-08
-5.89917e-08
-2.63305e-07
1.23603e-08
6.28057e-08
-6.87201e-08
-2.72822e-07
1.65065e-08
7.2429e-08
-7.94182e-08
-2.85671e-07
2.06474e-08
8.15733e-08
-8.93722e-08
-3.01185e-07
2.42171e-08
8.82751e-08
-9.6978e-08
-3.1837e-07
2.63945e-08
9.1387e-08
-1.00596e-07
-3.35489e-07
2.66408e-08
9.00151e-08
-9.95375e-08
-3.51281e-07
2.53462e-08
8.45054e-08
-9.40599e-08
-3.64661e-07
2.28173e-08
7.57506e-08
-8.51872e-08
-3.75469e-07
1.97161e-08
6.61527e-08
-7.5061e-08
-3.84405e-07
1.71701e-08
5.75221e-08
-6.57562e-08
-3.92264e-07
1.55693e-08
5.02315e-08
-5.79422e-08
-3.99252e-07
1.42553e-08
4.44353e-08
-5.17027e-08
-4.05241e-07
1.27562e-08
4.03063e-08
-4.70733e-08
-4.10508e-07
1.17116e-08
3.82764e-08
-4.47205e-08
-4.15481e-07
1.14374e-08
3.85027e-08
-4.49672e-08
-4.20737e-07
1.23975e-08
4.1296e-08
-4.8438e-08
-4.27376e-07
1.53362e-08
4.68904e-08
-5.55869e-08
-4.37003e-07
2.12702e-08
5.4684e-08
-6.63272e-08
-4.51477e-07
3.07919e-08
6.41385e-08
-8.0457e-08
-4.7313e-07
4.38869e-08
7.34216e-08
-9.56551e-08
-5.04629e-07
6.04621e-08
8.06347e-08
-1.09598e-07
-5.4821e-07
7.91104e-08
8.24203e-08
-1.1795e-07
-6.04806e-07
9.72621e-08
7.60942e-08
-1.1676e-07
-6.728e-07
1.10847e-07
5.65677e-08
-9.94213e-08
-7.46941e-07
1.12665e-07
1.42283e-08
-5.27521e-08
-8.05425e-07
8.45187e-08
-5.98903e-08
3.38553e-08
-8.29524e-07
3.19118e-08
-1.66227e-07
1.58414e-07
-8.0642e-07
-3.882e-08
-3.00526e-07
3.16242e-07
-7.1692e-07
-1.28084e-07
-4.52802e-07
4.91387e-07
-5.52444e-07
-2.19011e-07
-5.97071e-07
6.51605e-07
-3.36387e-07
-2.72691e-07
-6.51789e-07
7.08423e-07
-1.84868e-07
-2.15092e-07
-5.81603e-07
6.45175e-07
-9.15376e-08
-1.55643e-07
-4.77458e-07
5.39769e-07
-4.10989e-08
-1.05224e-07
-3.70065e-07
4.24851e-07
-1.44601e-08
-7.12243e-08
-2.82297e-07
3.26883e-07
-2.88283e-09
-4.80926e-08
-2.11196e-07
2.47711e-07
4.19128e-09
-3.3115e-08
-1.60528e-07
1.86569e-07
6.07027e-09
-2.28739e-08
-1.18588e-07
1.39583e-07
6.83716e-09
-1.63552e-08
-9.10216e-08
1.0661e-07
5.73766e-09
-1.15689e-08
-6.70359e-08
7.97043e-08
4.90871e-09
-8.59777e-09
-5.33232e-08
6.275e-08
3.33084e-09
-6.46849e-09
-4.0077e-08
4.81234e-08
2.3232e-09
-5.04783e-09
-3.44065e-08
4.0462e-08
9.66728e-10
-4.36376e-09
-2.83334e-08
3.40536e-08
-3.72962e-09
-2.67269e-08
3.14233e-08
-1.56031e-07
-5.01101e-08
-6.91456e-08
1.97869e-07
-2.10539e-07
3.90787e-08
2.26818e-08
4.89814e-09
-2.52163e-07
5.27829e-08
1.48494e-08
7.23221e-10
-2.77211e-07
4.7609e-08
4.45054e-08
-4.35545e-08
-2.98122e-07
4.1753e-08
4.44533e-08
-4.41631e-08
-3.12034e-07
3.36754e-08
5.27091e-08
-5.62165e-08
-3.24648e-07
2.87316e-08
4.92649e-08
-5.11315e-08
-3.33536e-07
2.3821e-08
4.85407e-08
-5.19418e-08
-3.40495e-07
1.84594e-08
4.29811e-08
-4.52298e-08
-3.454e-07
1.41256e-08
4.01736e-08
-4.24435e-08
-3.48518e-07
1.07587e-08
3.51449e-08
-3.73971e-08
-3.50209e-07
9.03167e-09
3.41749e-08
-3.66556e-08
-3.51731e-07
9.81926e-09
3.39574e-08
-3.72365e-08
-3.53919e-07
1.17509e-08
3.64741e-08
-3.99166e-08
-3.57161e-07
1.72863e-08
4.11031e-08
-4.64433e-08
-3.63359e-07
2.47002e-08
4.77823e-08
-5.39241e-08
-3.72483e-07
3.32822e-08
5.6144e-08
-6.37959e-08
-3.84895e-07
4.15393e-08
6.311e-08
-7.15901e-08
-3.99864e-07
4.88984e-08
6.85217e-08
-7.82337e-08
-4.16527e-07
5.33012e-08
6.98193e-08
-8.00633e-08
-4.32953e-07
5.36319e-08
6.72544e-08
-7.78193e-08
-4.47935e-07
5.07388e-08
6.02907e-08
-7.07015e-08
-4.60048e-07
4.49807e-08
5.04875e-08
-6.05376e-08
-4.69118e-07
3.7915e-08
3.98105e-08
-4.894e-08
-4.75912e-07
3.1979e-08
3.0592e-08
-3.86068e-08
-4.81612e-07
2.83422e-08
2.28687e-08
-2.99412e-08
-4.86542e-07
2.54983e-08
1.68082e-08
-2.3121e-08
-4.90394e-07
2.20086e-08
1.24744e-08
-1.78749e-08
-4.93304e-07
1.93539e-08
1.01187e-08
-1.48516e-08
-4.95766e-07
1.8361e-08
9.8544e-09
-1.43159e-08
-4.98294e-07
1.95282e-08
1.23569e-08
-1.69597e-08
-5.02097e-07
2.46686e-08
1.75843e-08
-2.31132e-08
-5.08986e-07
3.57976e-08
2.51149e-08
-3.27538e-08
-5.20594e-07
5.36931e-08
3.43723e-08
-4.56652e-08
-5.39309e-07
7.88945e-08
4.35937e-08
-5.98862e-08
-5.67657e-07
1.11233e-07
5.11078e-08
-7.35309e-08
-6.07673e-07
1.48211e-07
5.37404e-08
-8.2825e-08
-6.60299e-07
1.84904e-07
4.86164e-08
-8.36329e-08
-7.25096e-07
2.13513e-07
3.13574e-08
-6.92264e-08
-7.96974e-07
2.15491e-07
-5.81771e-09
-2.51298e-08
-8.53596e-07
1.60078e-07
-8.07597e-08
6.18223e-08
-8.74345e-07
5.04365e-08
-1.92547e-07
1.94772e-07
-8.52184e-07
-9.0801e-08
-3.31812e-07
3.61632e-07
-7.57741e-07
-2.79108e-07
-4.98772e-07
5.55353e-07
-5.67132e-07
-4.81044e-07
-6.61503e-07
7.32927e-07
-3.35627e-07
-5.7507e-07
-7.22816e-07
7.93689e-07
-1.76379e-07
-4.48695e-07
-6.3039e-07
7.04746e-07
-8.39375e-08
-3.197e-07
-5.08511e-07
5.80126e-07
-3.53495e-08
-2.14694e-07
-3.90188e-07
4.5107e-07
-1.06555e-08
-1.44608e-07
-2.95807e-07
3.44497e-07
-7.18237e-10
-9.6678e-08
-2.20794e-07
2.59442e-07
6.42624e-09
-6.72674e-08
-1.67539e-07
1.94547e-07
7.46784e-09
-4.5672e-08
-1.23216e-07
1.44972e-07
7.82614e-09
-3.26314e-08
-9.44835e-08
1.10401e-07
6.27544e-09
-2.27829e-08
-6.94015e-08
8.21662e-08
5.37946e-09
-1.70126e-08
-5.50867e-08
6.43975e-08
3.48634e-09
-1.24894e-08
-4.12768e-08
4.91908e-08
2.55699e-09
-1.00795e-08
-3.5406e-08
4.1367e-08
9.25345e-10
-8.40042e-09
-2.91068e-08
3.47751e-08
-7.46317e-09
-2.74179e-08
3.20768e-08
-1.91526e-07
-2.33617e-11
-4.27742e-08
1.84214e-07
-2.50531e-07
7.48691e-08
2.66518e-08
-3.43737e-09
-2.94727e-07
8.4022e-08
2.06258e-08
-7.6689e-09
-3.18876e-07
7.39103e-08
4.54841e-08
-4.76368e-08
-3.37812e-07
6.50817e-08
4.1415e-08
-4.58078e-08
-3.51346e-07
5.38208e-08
5.21467e-08
-5.87577e-08
-3.6371e-07
4.70125e-08
4.50822e-08
-5.09987e-08
-3.72617e-07
3.88708e-08
4.60846e-08
-5.22274e-08
-3.79577e-07
3.05831e-08
3.96238e-08
-4.47876e-08
-3.84715e-07
2.4002e-08
3.66106e-08
-4.13494e-08
-3.87668e-07
1.8069e-08
3.18805e-08
-3.62381e-08
-3.88686e-07
1.46864e-08
3.06139e-08
-3.52503e-08
-3.89802e-07
1.58264e-08
3.16537e-08
-3.65443e-08
-3.91466e-07
1.85677e-08
3.4265e-08
-3.94185e-08
-3.94284e-07
2.73284e-08
3.98593e-08
-4.70829e-08
-4.00239e-07
3.9209e-08
4.6982e-08
-5.55362e-08
-4.09245e-07
5.2799e-08
5.64424e-08
-6.69529e-08
-4.21658e-07
6.57954e-08
6.41813e-08
-7.60247e-08
-4.36766e-07
7.76046e-08
7.05766e-08
-8.41744e-08
-4.53749e-07
8.46848e-08
7.25219e-08
-8.69231e-08
-4.703e-07
8.44758e-08
7.05805e-08
-8.48724e-08
-4.85068e-07
7.92037e-08
6.35897e-08
-7.72871e-08
-4.96747e-07
6.92444e-08
5.36516e-08
-6.62363e-08
-5.05135e-07
5.6776e-08
4.30644e-08
-5.35372e-08
-5.11247e-07
4.62669e-08
3.44425e-08
-4.26184e-08
-5.16436e-07
4.00683e-08
2.74667e-08
-3.40042e-08
-5.2101e-07
3.53226e-08
2.21671e-08
-2.7417e-08
-5.24407e-07
2.87297e-08
1.84711e-08
-2.17947e-08
-5.26652e-07
2.33958e-08
1.64561e-08
-1.82532e-08
-5.28352e-07
2.10198e-08
1.647e-08
-1.74294e-08
-5.29868e-07
2.18692e-08
1.90012e-08
-1.98258e-08
-5.324e-07
2.89552e-08
2.44742e-08
-2.62294e-08
-5.37864e-07
4.57228e-08
3.25e-08
-3.6961e-08
-5.47768e-07
7.29568e-08
4.29116e-08
-5.22715e-08
-5.64339e-07
1.12364e-07
5.38405e-08
-7.07393e-08
-5.90056e-07
1.63368e-07
6.44868e-08
-9.09038e-08
-6.27122e-07
2.21586e-07
7.2184e-08
-1.08493e-07
-6.76152e-07
2.79257e-07
7.49789e-08
-1.20302e-07
-7.37233e-07
3.25186e-07
6.85178e-08
-1.19109e-07
-8.08839e-07
3.29268e-07
4.6676e-08
-8.88468e-08
-8.68631e-07
2.37972e-07
-2.12653e-08
3.16362e-09
-8.93525e-07
6.47278e-08
-1.34465e-07
1.45068e-07
-8.88517e-07
-1.40387e-07
-2.87735e-07
3.32312e-07
-8.20039e-07
-4.24455e-07
-4.82923e-07
5.59793e-07
-6.26734e-07
-7.67045e-07
-6.98366e-07
7.91062e-07
-3.46548e-07
-9.46624e-07
-7.93751e-07
8.85119e-07
-1.62937e-07
-7.23683e-07
-6.72468e-07
7.63845e-07
-7.13519e-08
-4.98944e-07
-5.25579e-07
6.13238e-07
-2.56915e-08
-3.3121e-07
-3.97679e-07
4.68535e-07
-4.45547e-09
-2.20924e-07
-2.98848e-07
3.53928e-07
5.35229e-09
-1.47664e-07
-2.22786e-07
2.63964e-07
1.01483e-08
-1.01567e-07
-1.68006e-07
1.97509e-07
1.00437e-08
-6.85867e-08
-1.23291e-07
1.4631e-07
9.53527e-09
-4.8936e-08
-9.44774e-08
1.1129e-07
7.45012e-09
-3.3976e-08
-6.92986e-08
8.25767e-08
6.16214e-09
-2.54774e-08
-5.50332e-08
6.4786e-08
3.99901e-09
-1.85496e-08
-4.1202e-08
4.94254e-08
2.86825e-09
-1.51284e-08
-3.5352e-08
4.15317e-08
1.03981e-09
-1.24263e-08
-2.90373e-08
3.48916e-08
-1.11742e-08
-2.7388e-08
3.21389e-08
-2.1749e-07
7.15948e-08
-3.86792e-08
1.84551e-07
-2.82063e-07
1.17115e-07
3.24886e-08
-1.01613e-08
-3.31745e-07
1.23265e-07
2.90225e-08
-1.85836e-08
-3.57116e-07
1.04631e-07
5.02471e-08
-5.55961e-08
-3.76489e-07
9.34772e-08
4.47504e-08
-5.37729e-08
-3.90858e-07
7.8374e-08
5.44242e-08
-6.4609e-08
-4.04275e-07
7.06358e-08
4.81305e-08
-5.83364e-08
-4.13796e-07
5.68549e-08
4.84469e-08
-5.69098e-08
-4.2117e-07
4.54503e-08
4.22271e-08
-4.97212e-08
-4.26414e-07
3.56163e-08
3.84514e-08
-4.48215e-08
-4.2903e-07
2.59647e-08
3.37291e-08
-3.90084e-08
-4.29268e-07
2.02428e-08
3.17693e-08
-3.70874e-08
-4.29365e-07
2.08395e-08
3.39504e-08
-3.88666e-08
-4.29783e-07
2.44892e-08
3.65958e-08
-4.20992e-08
-4.31513e-07
3.69933e-08
4.32349e-08
-5.11697e-08
-4.36731e-07
5.55171e-08
5.0584e-08
-6.16742e-08
-4.45418e-07
7.54593e-08
6.12802e-08
-7.52537e-08
-4.57931e-07
9.48039e-08
6.99291e-08
-8.64249e-08
-4.73575e-07
1.12287e-07
7.74695e-08
-9.6507e-08
-4.91494e-07
1.22918e-07
8.02351e-08
-1.00549e-07
-5.08797e-07
1.21542e-07
7.88664e-08
-9.86294e-08
-5.2382e-07
1.1308e-07
7.18475e-08
-9.07001e-08
-5.34994e-07
9.77146e-08
6.15296e-08
-7.88257e-08
-5.41967e-07
7.75786e-08
5.10082e-08
-6.48377e-08
-5.46126e-07
6.06962e-08
4.27889e-08
-5.3059e-08
-5.4952e-07
5.07269e-08
3.72319e-08
-4.44967e-08
-5.52872e-07
4.34685e-08
3.35579e-08
-3.83516e-08
-5.55791e-07
3.24441e-08
3.16065e-08
-3.24019e-08
-5.56988e-07
2.16177e-08
3.1092e-08
-2.81171e-08
-5.56061e-07
1.46625e-08
3.20976e-08
-2.66678e-08
-5.5464e-07
1.31224e-08
3.588e-08
-2.85542e-08
-5.54012e-07
2.04012e-08
4.30243e-08
-3.50983e-08
-5.55426e-07
4.10265e-08
5.35359e-08
-4.74249e-08
-5.59869e-07
7.56975e-08
6.78373e-08
-6.6135e-08
-5.69565e-07
1.28478e-07
8.43145e-08
-9.07327e-08
-5.86706e-07
1.99813e-07
1.01471e-07
-1.20775e-07
-6.13175e-07
2.82043e-07
1.17948e-07
-1.51936e-07
-6.47068e-07
3.60125e-07
1.31113e-07
-1.78087e-07
-6.87244e-07
4.18564e-07
1.39103e-07
-1.92305e-07
-7.35906e-07
4.13074e-07
1.40627e-07
-1.75771e-07
-7.74607e-07
2.76821e-07
7.58935e-08
-7.60427e-08
-7.98659e-07
5.50344e-08
-5.48444e-08
8.85906e-08
-8.21191e-07
-1.94928e-07
-2.13076e-07
2.90148e-07
-8.30767e-07
-5.42014e-07
-4.22455e-07
5.49591e-07
-6.96296e-07
-1.04788e-06
-7.14632e-07
8.60998e-07
-3.70535e-07
-1.38519e-06
-9.19331e-07
1.03213e-06
-1.39233e-07
-1.05408e-06
-7.57742e-07
8.56842e-07
-4.98006e-08
-6.89572e-07
-5.59817e-07
6.61012e-07
-9.97636e-09
-4.50537e-07
-4.14086e-07
4.93589e-07
8.53838e-09
-2.97993e-07
-3.08391e-07
3.66945e-07
1.48387e-08
-1.9713e-07
-2.27507e-07
2.70673e-07
1.64444e-08
-1.3405e-07
-1.70492e-07
2.0137e-07
1.43698e-08
-8.98483e-08
-1.24581e-07
1.47917e-07
1.24259e-08
-6.38306e-08
-9.53142e-08
1.12153e-07
9.43316e-09
-4.39264e-08
-6.96812e-08
8.26243e-08
7.46045e-09
-3.29179e-08
-5.53132e-08
6.47263e-08
4.85147e-09
-2.3689e-08
-4.12531e-08
4.90014e-08
3.36674e-09
-1.93414e-08
-3.53855e-08
4.10832e-08
1.23937e-09
-1.56845e-08
-2.89552e-08
3.43407e-08
-1.42412e-08
-2.73964e-08
3.17028e-08
-2.43337e-07
1.51864e-07
8.26252e-09
1.54805e-07
-3.20648e-07
1.71958e-07
5.15284e-08
-2.90601e-08
-3.78675e-07
1.79397e-07
3.39781e-08
-3.2083e-08
-4.07414e-07
1.45291e-07
5.06719e-08
-6.2593e-08
-4.26554e-07
1.31379e-07
4.46837e-08
-6.34455e-08
-4.4137e-07
1.11746e-07
5.33683e-08
-7.19243e-08
-4.55116e-07
1.03417e-07
4.73847e-08
-6.6421e-08
-4.64397e-07
8.27272e-08
4.64156e-08
-6.30066e-08
-4.71125e-07
6.70641e-08
3.97277e-08
-5.46129e-08
-4.75446e-07
5.36784e-08
3.49288e-08
-4.86704e-08
-4.76894e-07
3.91817e-08
3.06602e-08
-4.24292e-08
-4.75007e-07
3.04074e-08
2.7912e-08
-3.99637e-08
-4.7279e-07
3.00809e-08
3.1818e-08
-4.32765e-08
-4.70681e-07
3.44179e-08
3.6229e-08
-4.82666e-08
-4.69824e-07
5.02474e-08
4.54892e-08
-5.96005e-08
-4.73318e-07
7.66539e-08
5.59725e-08
-7.36149e-08
-4.80579e-07
1.02326e-07
7.02391e-08
-8.98446e-08
-4.91549e-07
1.26949e-07
8.27201e-08
-1.03895e-07
-5.05302e-07
1.49017e-07
9.37094e-08
-1.16687e-07
-5.20963e-07
1.62286e-07
9.95192e-08
-1.23227e-07
-5.34395e-07
1.56794e-07
1.0005e-07
-1.21871e-07
-5.43489e-07
1.41032e-07
9.42994e-08
-1.13159e-07
-5.47249e-07
1.16826e-07
8.38176e-08
-9.91678e-08
-5.45466e-07
8.46592e-08
7.35553e-08
-8.24192e-08
-5.40799e-07
5.71358e-08
6.79885e-08
-6.90956e-08
-5.36146e-07
4.02072e-08
6.61247e-08
-6.02575e-08
-5.32316e-07
2.84803e-08
6.51536e-08
-5.39957e-08
-5.28326e-07
9.92707e-09
6.51994e-08
-4.66724e-08
-5.24521e-07
-1.006e-08
6.74494e-08
-3.95766e-08
-5.21163e-07
-2.40579e-08
7.16128e-08
-3.62498e-08
-5.17556e-07
-3.04045e-08
7.73716e-08
-3.74523e-08
-5.13015e-07
-2.60527e-08
8.67761e-08
-4.48635e-08
-5.09105e-07
-3.21201e-09
1.00461e-07
-6.01321e-08
-5.04243e-07
3.384e-08
1.20724e-07
-8.37283e-08
-5.00138e-07
9.46046e-08
1.45547e-07
-1.15779e-07
-4.96548e-07
1.806e-07
1.71532e-07
-1.55909e-07
-4.92132e-07
2.80862e-07
1.96475e-07
-1.99711e-07
-4.75046e-07
3.67157e-07
2.15318e-07
-2.39437e-07
-4.38617e-07
4.23467e-07
2.26424e-07
-2.67756e-07
-3.91225e-07
3.96486e-07
2.30406e-07
-2.6121e-07
-3.45159e-07
2.32933e-07
1.50786e-07
-1.52964e-07
-3.40583e-07
2.11877e-08
-4.97688e-10
2.97683e-08
-4.04861e-07
-2.03449e-07
-1.51966e-07
2.24765e-07
-5.65277e-07
-5.45464e-07
-3.2823e-07
4.92096e-07
-6.42199e-07
-1.19608e-06
-6.61169e-07
8.86287e-07
-4.02331e-07
-1.78204e-06
-1.03818e-06
1.19516e-06
-9.67457e-08
-1.44164e-06
-9.02743e-07
9.84713e-07
-1.40123e-08
-8.77961e-07
-6.14012e-07
7.19667e-07
1.96371e-08
-5.65308e-07
-4.43148e-07
5.24269e-07
2.96162e-08
-3.67461e-07
-3.23643e-07
3.83131e-07
2.89621e-08
-2.39913e-07
-2.35681e-07
2.79119e-07
2.58985e-08
-1.61686e-07
-1.75426e-07
2.06125e-07
2.08298e-08
-1.07485e-07
-1.27453e-07
1.50158e-07
1.67628e-08
-7.59746e-08
-9.73063e-08
1.13517e-07
1.24104e-08
-5.1853e-08
-7.08815e-08
8.31604e-08
9.43735e-09
-3.87631e-08
-5.62687e-08
6.5087e-08
6.16633e-09
-2.76158e-08
-4.1828e-08
4.90259e-08
4.13992e-09
-2.25603e-08
-3.59428e-08
4.1188e-08
1.53508e-09
-1.80665e-08
-2.93203e-08
3.43071e-08
-1.6554e-08
-2.78284e-08
3.16762e-08
-3.06582e-07
2.90047e-07
3.3218e-08
1.35181e-07
-3.79188e-07
2.2326e-07
6.21852e-08
-4.08812e-08
-4.37842e-07
2.40788e-07
4.61225e-08
-4.88591e-08
-4.6614e-07
1.88565e-07
6.49849e-08
-7.99617e-08
-4.84565e-07
1.72618e-07
5.62778e-08
-7.90914e-08
-4.9933e-07
1.48648e-07
6.46487e-08
-8.67856e-08
-5.13644e-07
1.40455e-07
5.94619e-08
-8.2185e-08
-5.2187e-07
1.0817e-07
5.79287e-08
-7.51458e-08
-5.26716e-07
8.63094e-08
5.30097e-08
-6.74086e-08
-5.27859e-07
6.68847e-08
4.69616e-08
-5.90246e-08
-5.25174e-07
4.71053e-08
4.22837e-08
-5.28922e-08
-5.1951e-07
3.36281e-08
4.07287e-08
-4.96132e-08
-5.13135e-07
2.89495e-08
4.91203e-08
-5.43646e-08
-5.05483e-07
2.72759e-08
5.91478e-08
-5.96572e-08
-4.98462e-07
4.53035e-08
7.14035e-08
-7.34809e-08
-4.965e-07
8.31881e-08
8.30576e-08
-9.15539e-08
-4.97069e-07
1.16763e-07
9.82417e-08
-1.12109e-07
-4.98753e-07
1.46162e-07
1.12302e-07
-1.29832e-07
-4.99797e-07
1.71788e-07
1.2352e-07
-1.45247e-07
-4.9829e-07
1.86776e-07
1.28261e-07
-1.54258e-07
-4.89362e-07
1.74406e-07
1.26251e-07
-1.52791e-07
-4.69977e-07
1.46868e-07
1.16739e-07
-1.4196e-07
-4.40757e-07
1.11218e-07
1.00128e-07
-1.2374e-07
-4.05437e-07
6.56548e-08
8.49276e-08
-1.01243e-07
-3.70183e-07
2.73532e-08
7.79716e-08
-8.34427e-08
-3.37683e-07
3.25472e-09
7.71063e-08
-7.26546e-08
-3.07138e-07
-1.35299e-08
7.6105e-08
-6.46393e-08
-2.81749e-07
-3.75032e-08
7.49901e-08
-5.29489e-08
-2.64479e-07
-6.3179e-08
7.71006e-08
-4.1252e-08
-2.53602e-07
-8.39191e-08
8.1242e-08
-3.22572e-08
-2.44906e-07
-9.63446e-08
8.52489e-08
-2.80053e-08
-2.3311e-07
-9.74104e-08
9.06721e-08
-3.11108e-08
-2.16228e-07
-7.76333e-08
9.97503e-08
-4.22108e-08
-1.93172e-07
-3.62068e-08
1.11372e-07
-6.4381e-08
-1.61028e-07
3.01889e-08
1.29085e-07
-9.68131e-08
-1.1385e-07
1.21606e-07
1.51773e-07
-1.39957e-07
-4.77851e-08
2.28502e-07
1.74301e-07
-1.88005e-07
4.75699e-08
3.15029e-07
1.8724e-07
-2.30467e-07
1.75294e-07
3.64939e-07
1.89408e-07
-2.58604e-07
3.16705e-07
3.17206e-07
1.84875e-07
-2.47006e-07
4.24087e-07
1.48573e-07
1.11581e-07
-1.34602e-07
4.57453e-07
-3.38895e-08
-1.1128e-08
3.28387e-08
3.86608e-07
-2.13853e-07
-1.13518e-07
1.94767e-07
1.64331e-07
-5.02684e-07
-2.37615e-07
4.17112e-07
-2.20378e-07
-1.12859e-06
-5.3158e-07
8.48801e-07
-3.21011e-07
-1.96586e-06
-1.02173e-06
1.30619e-06
-3.00177e-08
-1.80996e-06
-1.06763e-06
1.14496e-06
5.42891e-08
-1.05374e-06
-6.93797e-07
7.85269e-07
6.57579e-08
-6.54257e-07
-4.813e-07
5.5878e-07
5.99686e-08
-4.18013e-07
-3.44645e-07
4.00986e-07
4.91273e-08
-2.6968e-07
-2.47768e-07
2.88376e-07
3.93161e-08
-1.80192e-07
-1.83087e-07
2.11405e-07
2.99222e-08
-1.18673e-07
-1.32115e-07
1.52697e-07
2.28251e-08
-8.34348e-08
-1.00567e-07
1.15124e-07
1.65523e-08
-5.62328e-08
-7.2857e-08
8.35097e-08
1.2166e-08
-4.19487e-08
-5.78498e-08
6.54216e-08
7.97048e-09
-2.94552e-08
-4.27751e-08
4.88101e-08
5.19225e-09
-2.40479e-08
-3.6828e-08
4.10939e-08
2.0409e-09
-1.89678e-08
-2.99085e-08
3.39612e-08
-1.75164e-08
-2.8458e-08
3.14614e-08
-3.57944e-07
4.1651e-07
2.82396e-07
-5.0915e-08
-4.45276e-07
2.54753e-07
1.44353e-07
-8.85134e-08
-5.07163e-07
3.19039e-07
6.28863e-08
-7.92503e-08
-5.36662e-07
2.48794e-07
6.31583e-08
-9.38883e-08
-5.48728e-07
2.27934e-07
4.96019e-08
-9.28525e-08
-5.60019e-07
2.00541e-07
5.84733e-08
-9.90744e-08
-5.72571e-07
1.92936e-07
5.64294e-08
-9.63592e-08
-5.74031e-07
1.36848e-07
6.05568e-08
-8.77749e-08
-5.69549e-07
1.01801e-07
5.83414e-08
-7.83144e-08
-5.61592e-07
7.30487e-08
5.48701e-08
-6.89909e-08
-5.47555e-07
4.21651e-08
5.30407e-08
-6.21375e-08
-5.30134e-07
2.17368e-08
5.29982e-08
-5.8528e-08
-5.11768e-07
7.654e-09
6.48253e-08
-6.1896e-08
-4.89228e-07
-6.17614e-09
7.7731e-08
-6.68196e-08
-4.65492e-07
1.30974e-08
9.15187e-08
-8.30482e-08
-4.45957e-07
6.70546e-08
1.06331e-07
-1.09733e-07
-4.24889e-07
1.04112e-07
1.25735e-07
-1.34152e-07
-3.97984e-07
1.3067e-07
1.4445e-07
-1.55862e-07
-3.60884e-07
1.51887e-07
1.58352e-07
-1.75552e-07
-3.10626e-07
1.60344e-07
1.63942e-07
-1.87768e-07
-2.48538e-07
1.34957e-07
1.63448e-07
-1.86087e-07
-1.75428e-07
9.088e-08
1.56654e-07
-1.73775e-07
-9.09505e-08
4.48214e-08
1.32746e-07
-1.50828e-07
-4.6875e-09
-1.83877e-09
1.00324e-07
-1.19093e-07
8.78454e-08
-4.78818e-08
7.44742e-08
-9.17721e-08
1.62434e-07
-6.45143e-08
7.00652e-08
-7.68843e-08
2.28008e-07
-7.8121e-08
6.9776e-08
-7.07589e-08
2.84179e-07
-9.90961e-08
6.56432e-08
-6.02221e-08
3.25385e-07
-1.25466e-07
6.9226e-08
-4.81446e-08
3.50504e-07
-1.5168e-07
7.95255e-08
-3.68842e-08
3.62609e-07
-1.72924e-07
9.01892e-08
-2.57148e-08
3.71995e-07
-1.88325e-07
1.04162e-07
-2.26335e-08
3.86206e-07
-1.81174e-07
1.18153e-07
-2.8823e-08
4.1585e-07
-1.49138e-07
1.30374e-07
-4.70871e-08
4.71896e-07
-8.93621e-08
1.39397e-07
-7.58919e-08
5.56896e-07
1.21345e-08
1.40039e-07
-1.15567e-07
6.71596e-07
1.46728e-07
1.33323e-07
-1.66249e-07
8.2604e-07
2.49333e-07
1.22118e-07
-2.10865e-07
1.0054e-06
3.06106e-07
1.17984e-07
-2.38508e-07
1.19176e-06
2.21651e-07
1.35392e-07
-2.26198e-07
1.34268e-06
4.18943e-08
8.4558e-08
-1.28805e-07
1.42038e-06
-1.02787e-07
-1.35053e-08
4.70828e-09
1.41274e-06
-2.68193e-07
-8.5492e-08
1.47476e-07
1.2502e-06
-4.90495e-07
-1.85319e-07
3.35663e-07
7.26875e-07
-8.97113e-07
-4.0973e-07
7.0158e-07
1.45018e-07
-1.75071e-06
-8.91498e-07
1.25821e-06
1.38857e-07
-1.93985e-06
-1.17229e-06
1.30834e-06
1.6132e-07
-1.14155e-06
-7.90938e-07
8.56284e-07
1.33885e-07
-6.86711e-07
-5.33219e-07
5.93108e-07
1.04249e-07
-4.31463e-07
-3.76015e-07
4.19102e-07
7.84456e-08
-2.74487e-07
-2.67423e-07
2.98033e-07
5.88295e-08
-1.81085e-07
-1.9623e-07
2.16739e-07
4.31659e-08
-1.17634e-07
-1.40731e-07
1.55356e-07
3.17161e-08
-8.17347e-08
-1.06697e-07
1.16447e-07
2.26311e-08
-5.42606e-08
-7.7003e-08
8.41158e-08
1.62044e-08
-4.01589e-08
-6.11145e-08
6.57514e-08
1.06547e-08
-2.76951e-08
-4.50103e-08
4.87999e-08
6.76311e-09
-2.25195e-08
-3.88461e-08
4.12092e-08
2.83182e-09
-1.74604e-08
-3.14359e-08
3.38597e-08
-1.61896e-08
-2.99583e-08
3.14633e-08
-5.30304e-07
6.84717e-07
2.07037e-07
5.50592e-08
-5.39187e-07
2.45288e-07
7.70246e-08
-5.86769e-08
-5.59031e-07
3.98585e-07
2.81321e-08
-8.78342e-08
-5.57445e-07
2.95076e-07
6.55788e-08
-1.13447e-07
-5.39872e-07
2.81562e-07
4.48083e-08
-1.1601e-07
-5.27531e-07
2.52111e-07
5.69375e-08
-1.20849e-07
-5.17102e-07
2.50939e-07
4.9792e-08
-1.18224e-07
-4.93741e-07
1.67931e-07
4.69017e-08
-1.01346e-07
-4.57209e-07
1.09078e-07
3.86265e-08
-8.24354e-08
-4.16705e-07
7.69435e-08
2.3378e-08
-6.77768e-08
-3.68141e-07
3.97107e-08
6.58188e-09
-5.26913e-08
-3.14249e-07
1.04827e-08
4.95164e-09
-4.75893e-08
-2.5609e-07
-2.15827e-08
2.52897e-08
-5.42121e-08
-1.9463e-07
-5.95024e-08
5.34003e-08
-6.15339e-08
-1.32697e-07
-5.56419e-08
8.86559e-08
-8.18504e-08
-6.56162e-08
6.66075e-10
1.15086e-07
-1.15778e-07
1.38872e-08
3.85262e-08
1.33001e-07
-1.46919e-07
1.12797e-07
5.27745e-08
1.52869e-07
-1.73883e-07
2.20601e-07
6.17006e-08
1.78655e-07
-1.96272e-07
3.4513e-07
5.98567e-08
1.86823e-07
-2.10864e-07
4.76986e-07
3.21e-08
1.78164e-07
-2.07164e-07
6.10427e-07
-1.21067e-08
1.57377e-07
-1.87831e-07
7.46995e-07
-5.84533e-08
1.27925e-07
-1.61218e-07
8.81037e-07
-1.09481e-07
1.04447e-07
-1.30847e-07
9.95124e-07
-1.42982e-07
8.33429e-08
-1.0233e-07
1.08707e-06
-1.43955e-07
7.1687e-08
-8.41898e-08
1.16195e-06
-1.44946e-07
6.51351e-08
-7.31918e-08
1.21764e-06
-1.46751e-07
5.23571e-08
-6.03923e-08
1.2465e-06
-1.49351e-07
4.53305e-08
-5.03073e-08
1.25186e-06
-1.58548e-07
4.49028e-08
-4.33886e-08
1.24002e-06
-1.73922e-07
4.97913e-08
-3.69544e-08
1.21748e-06
-1.97773e-07
6.55103e-08
-3.3523e-08
1.1972e-06
-2.12469e-07
9.39832e-08
-4.24123e-08
1.19558e-06
-2.09784e-07
1.23104e-07
-6.08352e-08
1.23227e-06
-1.87664e-07
1.51856e-07
-9.02483e-08
1.31436e-06
-1.06899e-07
1.74466e-07
-1.37519e-07
1.42624e-06
4.48633e-08
1.78533e-07
-1.88549e-07
1.58215e-06
2.01315e-07
1.17865e-07
-2.25754e-07
1.87889e-06
2.19297e-07
3.17875e-08
-2.41724e-07
2.26242e-06
4.05222e-08
-5.81071e-09
-1.9659e-07
2.47732e-06
-7.8056e-08
-8.12221e-09
-8.68241e-08
2.55045e-06
-1.46875e-07
-3.98404e-08
1.07926e-08
2.51425e-06
-2.51785e-07
-8.84852e-08
1.08279e-07
2.33903e-06
-3.93895e-07
-1.764e-07
2.55016e-07
1.83397e-06
-6.40972e-07
-3.40943e-07
5.89867e-07
9.51495e-07
-1.24672e-06
-7.77708e-07
1.15619e-06
4.70748e-07
-1.64082e-06
-1.23182e-06
1.41354e-06
3.44803e-07
-1.04866e-06
-8.88532e-07
9.21593e-07
2.50144e-07
-6.1285e-07
-6.02192e-07
6.2299e-07
1.81097e-07
-3.72053e-07
-4.24008e-07
4.33644e-07
1.30287e-07
-2.28289e-07
-3.00525e-07
3.05139e-07
9.39679e-08
-1.45042e-07
-2.20025e-07
2.20301e-07
6.73486e-08
-9.04243e-08
-1.57501e-07
1.5691e-07
4.8202e-08
-6.03162e-08
-1.19287e-07
1.17015e-07
3.39994e-08
-3.81961e-08
-8.60282e-08
8.41662e-08
2.38588e-08
-2.72655e-08
-6.83063e-08
6.55536e-08
1.57524e-08
-1.78365e-08
-5.01971e-08
4.84448e-08
9.79629e-09
-1.40464e-08
-4.34322e-08
4.09153e-08
4.30617e-09
-1.03554e-08
-3.50326e-08
3.34177e-08
-9.57402e-09
-3.34384e-08
3.1129e-08
-4.7393e-07
5.53498e-07
1.6311e-06
-1.02595e-06
-4.81776e-07
2.38703e-07
3.31992e-07
-3.17562e-07
-3.9704e-07
3.07699e-07
1.62439e-07
-1.56289e-07
-2.77057e-07
1.87037e-07
8.27259e-08
-9.46693e-08
-1.46089e-07
1.99962e-07
2.00151e-08
-6.93832e-08
-4.02726e-09
1.68313e-07
3.5353e-09
-6.17985e-08
1.84941e-07
1.25215e-07
3.94399e-10
-6.36394e-08
3.09968e-07
1.01717e-07
-8.78768e-09
-5.00252e-08
3.91647e-07
8.25645e-08
-9.79365e-09
-4.53718e-08
4.58976e-07
5.73912e-08
-3.98361e-09
-4.3793e-08
4.96238e-07
3.8324e-08
-5.50271e-09
-3.03726e-08
5.27673e-07
1.20644e-08
-5.95978e-09
-2.70569e-08
5.74665e-07
-2.83909e-08
-3.35165e-09
-3.6832e-08
6.2757e-07
-6.73929e-08
-4.45881e-09
-4.0556e-08
6.9037e-07
-7.38954e-08
6.38309e-09
-5.09299e-08
8.04788e-07
-6.50928e-08
2.54943e-08
-7.41536e-08
9.71436e-07
-5.57351e-08
2.63443e-08
-9.87309e-08
1.16707e-06
-5.24261e-08
2.98533e-08
-1.20286e-07
1.3846e-06
-4.87729e-08
2.9516e-08
-1.36575e-07
1.61951e-06
-5.16386e-08
2.65031e-08
-1.49917e-07
1.84249e-06
-6.24554e-08
2.04294e-08
-1.48855e-07
2.02682e-06
-7.1742e-08
7.57787e-09
-1.32269e-07
2.1694e-06
-8.38705e-08
-1.04279e-09
-1.1612e-07
2.26735e-06
-9.78803e-08
-7.69729e-09
-1.01857e-07
2.32671e-06
-1.00718e-07
-1.15231e-08
-9.01011e-08
2.36379e-06
-9.09439e-08
-8.43958e-09
-8.16542e-08
2.3795e-06
-8.40564e-08
-1.35714e-09
-7.52361e-08
2.38168e-06
-8.15035e-08
3.3704e-10
-6.77631e-08
2.37977e-06
-7.95049e-08
-3.64468e-09
-6.42975e-08
2.36041e-06
-7.48397e-08
-1.77203e-09
-6.25724e-08
2.32018e-06
-7.51006e-08
4.88631e-09
-6.34818e-08
2.28658e-06
-1.06217e-07
9.40526e-09
-6.7356e-08
2.27477e-06
-1.42883e-07
9.20261e-09
-6.69801e-08
2.2737e-06
-1.42536e-07
5.77352e-09
-7.1948e-08
2.27156e-06
-1.09465e-07
3.02055e-09
-7.9086e-08
2.28221e-06
-3.29113e-08
1.15809e-08
-9.62203e-08
2.3381e-06
8.41833e-08
3.83853e-08
-1.33593e-07
2.52117e-06
1.39779e-07
5.37312e-08
-1.75261e-07
2.84295e-06
5.21047e-08
3.63432e-08
-1.90932e-07
3.01298e-06
-1.45864e-08
4.34949e-09
-1.19273e-07
2.99885e-06
-2.57033e-08
-2.69692e-08
-1.12549e-08
2.90418e-06
-3.20612e-08
-8.36422e-08
6.34959e-08
2.7587e-06
-5.88799e-08
-1.80194e-07
1.32777e-07
2.54316e-06
-1.16789e-07
-3.04894e-07
2.43326e-07
2.11951e-06
-2.11681e-07
-5.11869e-07
5.06224e-07
1.30576e-06
-4.41405e-07
-1.15367e-06
1.16212e-06
7.32289e-07
-5.24299e-07
-2.02187e-06
1.47881e-06
4.73945e-07
-3.06269e-07
-1.47473e-06
9.90679e-07
3.16525e-07
-1.55389e-07
-9.59901e-07
6.5986e-07
2.16709e-07
-7.95811e-08
-6.46829e-07
4.54173e-07
1.50099e-07
-3.8442e-08
-4.39702e-07
3.16464e-07
1.05026e-07
-1.65963e-08
-3.10236e-07
2.26864e-07
7.36368e-08
-4.15441e-09
-2.153e-07
1.60419e-07
5.15493e-08
1.37122e-09
-1.587e-07
1.191e-07
3.58861e-08
3.58606e-09
-1.11557e-07
8.54385e-08
2.48185e-08
4.26191e-09
-8.69043e-08
6.64444e-08
1.63076e-08
4.37583e-09
-6.27236e-08
4.90222e-08
1.00248e-08
4.36611e-09
-5.36175e-08
4.14878e-08
4.41742e-09
4.14362e-09
-4.27137e-08
3.38221e-08
3.99177e-09
-4.07308e-08
3.15824e-08
-2.64353e-07
2.28057e-07
1.75769e-06
-1.1679e-06
-2.81312e-07
2.62302e-07
3.36587e-07
-3.43225e-07
-1.43155e-07
2.39845e-07
1.23821e-07
-1.94124e-07
5.68707e-08
6.69399e-08
8.72386e-08
-1.67167e-07
2.84914e-07
5.71691e-08
4.48423e-08
-1.30093e-07
4.90657e-07
5.13322e-08
1.18585e-08
-1.0062e-07
6.64794e-07
4.03617e-08
-9.6584e-10
-8.83176e-08
8.10729e-07
3.17329e-08
-7.70976e-09
-6.82409e-08
9.17402e-07
3.52692e-08
-1.12459e-08
-4.81318e-08
9.82222e-07
3.48876e-08
-4.9829e-09
-3.73333e-08
1.01698e-06
3.14283e-08
-1.57265e-09
-2.62922e-08
1.02595e-06
2.36981e-08
-6.57382e-09
-1.40248e-08
1.01313e-06
6.73516e-09
-9.06565e-09
-1.3241e-08
9.87835e-07
-1.74396e-08
-1.19248e-08
-1.27358e-08
9.75171e-07
-3.50375e-08
-1.12643e-09
-2.50677e-08
9.99288e-07
-5.73558e-08
1.09526e-08
-4.28059e-08
1.07059e-06
-7.79258e-08
1.08672e-08
-5.99797e-08
1.17713e-06
-8.89536e-08
1.05782e-08
-8.05917e-08
1.30018e-06
-8.26841e-08
8.4176e-09
-9.75523e-08
1.42531e-06
-7.37378e-08
8.19067e-09
-1.11219e-07
1.53527e-06
-6.63017e-08
4.99248e-09
-1.11115e-07
1.62506e-06
-5.82823e-08
-4.16045e-09
-9.90854e-08
1.69261e-06
-5.6242e-08
-1.03719e-08
-8.48067e-08
1.73742e-06
-5.81557e-08
-1.40534e-08
-7.04809e-08
1.76605e-06
-5.6949e-08
-1.34673e-08
-5.8928e-08
1.78808e-06
-5.13455e-08
-8.39572e-09
-5.32369e-08
1.79969e-06
-4.54162e-08
-4.29211e-09
-4.59595e-08
1.80468e-06
-4.34883e-08
-1.13901e-09
-4.18628e-08
1.80639e-06
-4.109e-08
-5.20928e-09
-3.49151e-08
1.80465e-06
-3.83625e-08
-7.95461e-09
-2.67845e-08
1.79179e-06
-3.86413e-08
1.26892e-09
-2.4865e-08
1.76141e-06
-5.29771e-08
2.43854e-09
-2.53003e-08
1.7341e-06
-9.03256e-08
-2.99149e-09
-2.22628e-08
1.72548e-06
-1.0975e-07
8.08979e-10
-2.49737e-08
1.75096e-06
-1.01612e-07
2.09436e-09
-3.54188e-08
1.85465e-06
-8.3367e-08
3.68228e-09
-5.69234e-08
2.05557e-06
-2.96179e-08
6.22112e-09
-9.33337e-08
2.25513e-06
5.89113e-08
2.82387e-10
-1.18976e-07
2.343e-06
6.84318e-08
-3.18416e-09
-1.01011e-07
2.30899e-06
5.09108e-08
-1.20095e-09
-3.02951e-08
2.17231e-06
6.0179e-08
-9.31546e-09
6.01225e-08
2.04175e-06
3.09962e-08
-5.68993e-08
1.24394e-07
1.93408e-06
1.67988e-08
-1.27089e-07
1.59088e-07
1.78838e-06
2.28077e-09
-2.2064e-07
2.47267e-07
1.51226e-06
-2.50894e-08
-3.78989e-07
4.68519e-07
9.61255e-07
-8.80591e-08
-9.19e-07
1.11666e-06
5.45698e-07
-4.90193e-08
-1.57788e-06
1.51816e-06
3.51038e-07
2.47757e-08
-1.16552e-06
1.02914e-06
2.318e-07
5.17177e-08
-7.69074e-07
6.81205e-07
1.56509e-07
5.16884e-08