/*--------------------------------*- C++ -*----------------------------------*\
| =========                 |                                                 |
| \\      /  F ield         | OpenFOAM: The Open Source CFD Toolbox           |
|  \\    /   O peration     | Version:  2.1.1                                 |
|   \\  /    A nd           | Web:      www.OpenFOAM.org                      |
|    \\/     M anipulation  |                                                 |
\*---------------------------------------------------------------------------*/
FoamFile
{
    version     2.0;
    format      ascii;
    class       volSymmTensorField;
    location    "0.001";
    object      R;
}
// * * * * * * * * * * * * * * * * * * * * * * * * * * * * * * * * * * * * * //

dimensions      [0 2 -2 0 0 0 0];

internalField   nonuniform List<symmTensor> 
36520
(
(0.0534412 0.00342222 0.0142366 0.0167173 0.00430021 0.0207919)
(0.0935218 -0.0109179 0.0227474 0.0314686 -0.000865215 0.0292108)
(0.144385 -0.00955121 0.0411935 0.0499571 -0.00202289 0.0475496)
(0.15321 -0.0119179 0.0474489 0.0559493 -0.00440636 0.0531057)
(0.16844 -0.0113949 0.0533928 0.0614657 -0.00472084 0.0591796)
(0.1715 -0.0115672 0.0555976 0.0631245 -0.00521155 0.0612374)
(0.174952 -0.0112796 0.0570883 0.0642525 -0.00509971 0.0626625)
(0.174492 -0.0112593 0.0572795 0.0641908 -0.0051406 0.0626959)
(0.171772 -0.0109628 0.0565058 0.063183 -0.00493274 0.0616988)
(0.167804 -0.0108985 0.0552589 0.061675 -0.00489729 0.0602049)
(0.161804 -0.0106036 0.0531959 0.0594593 -0.00474161 0.0578434)
(0.155911 -0.0104497 0.0510949 0.0571683 -0.00473046 0.0554365)
(0.148723 -0.0100737 0.0485003 0.05445 -0.00465082 0.0525026)
(0.142061 -0.00962708 0.0460629 0.0518083 -0.004575 0.0497256)
(0.13457 -0.00898824 0.0433744 0.0488995 -0.00442928 0.0466685)
(0.127306 -0.00817393 0.0408248 0.0460078 -0.0041943 0.0437479)
(0.119282 -0.0071849 0.0381285 0.0428855 -0.00385722 0.0406698)
(0.111003 -0.00608486 0.035439 0.0396893 -0.00341534 0.037603)
(0.102063 -0.00496548 0.0326198 0.0363259 -0.00291332 0.0344223)
(0.0928533 -0.00390179 0.0297671 0.0329183 -0.00238219 0.0312406)
(0.0833487 -0.00296777 0.0268279 0.0294691 -0.00187621 0.028016)
(0.0740179 -0.00219398 0.0239229 0.0261209 -0.00142596 0.0248688)
(0.0649549 -0.00159487 0.0210734 0.0228988 -0.00105607 0.0218204)
(0.0564672 -0.00115206 0.0183705 0.0198918 -0.000773935 0.0189595)
(0.04863 -0.000819985 0.0158449 0.0171237 -0.000568567 0.0163063)
(0.0415644 -0.000563136 0.0135543 0.0146371 -0.000419246 0.0139119)
(0.0352461 -0.00036773 0.0115045 0.0124227 -0.000311933 0.0117793)
(0.0297104 -0.0002242 0.00970129 0.010489 -0.000236684 0.00991234)
(0.0249474 -0.000118073 0.00813753 0.00882877 -0.00018555 0.00829834)
(0.0209199 -3.43804e-05 0.00680677 0.00742773 -0.000149715 0.0069278)
(0.0175394 3.63759e-05 0.00568445 0.00625384 -0.000122821 0.00577368)
(0.0147327 0.000104455 0.00475054 0.0052801 -9.85035e-05 0.00481478)
(0.0124105 0.000176554 0.00397947 0.00447613 -7.16345e-05 0.00402412)
(0.010489 0.000255707 0.00334696 0.00381399 -3.94542e-05 0.00337738)
(0.0088821 0.000341427 0.00282706 0.00326629 1.57411e-08 0.00284904)
(0.00750982 0.000427045 0.00239515 0.00280605 4.58984e-05 0.0024141)
(0.00630241 0.000503232 0.00202909 0.0024087 9.65958e-05 0.00205055)
(0.00520264 0.000557986 0.00170796 0.00205345 0.000148218 0.0017382)
(0.00417183 0.000579457 0.00141377 0.00172424 0.000196266 0.00146037)
(0.00320273 0.000556504 0.00113365 0.00141379 0.000234979 0.0012071)
(0.00231614 0.000482753 0.000858654 0.00112011 0.000255662 0.000971381)
(0.001559 0.000366568 0.000591506 0.000850035 0.000250164 0.000753266)
(0.00101156 0.000235995 0.000353829 0.000629251 0.000221118 0.000575407)
(0.000614481 0.000124138 0.000177849 0.000451953 0.000181327 0.00041798)
(0.000294879 4.92524e-05 7.64883e-05 0.000302698 0.000138541 0.000264001)
(0.000128704 1.20979e-05 3.42892e-05 0.000210108 0.000105966 0.000170085)
(0.000106279 -8.33067e-06 9.95419e-06 0.000170694 8.41672e-05 0.000141552)
(0.000106958 -1.24922e-05 2.2735e-06 0.000146579 6.56669e-05 0.000128576)
(0.000110148 -1.439e-05 -5.9828e-06 0.000130884 5.0307e-05 0.000121453)
(0.000110161 -1.00454e-05 -1.51131e-06 0.0001218 3.81883e-05 0.000116978)
(0.000113359 -9.44074e-06 -8.10691e-06 0.000117137 2.86723e-05 0.000115557)
(0.000111889 -5.62493e-06 6.40532e-07 0.000114619 2.16795e-05 0.000113974)
(0.00011495 -5.39887e-06 -8.07748e-06 0.000113984 1.61324e-05 0.000114387)
(0.000112865 -2.8821e-06 3.51145e-06 0.000113339 1.2292e-05 0.000113547)
(0.000116021 -2.99479e-06 -8.50552e-06 0.000113893 9.17782e-06 0.000114554)
(0.000113512 -1.35208e-06 6.39929e-06 0.000113539 7.14353e-06 0.000113764)
(0.000116994 -1.61687e-06 -9.7561e-06 0.000114482 5.53237e-06 0.000115021)
(0.000114089 -4.66027e-07 9.34723e-06 0.000113956 4.52268e-06 0.000114071)
(0.000118822 -8.05242e-07 -1.18168e-05 0.0001158 3.91232e-06 0.000116156)
(0.000127481 -1.66568e-06 1.40087e-05 0.000126132 3.64725e-06 0.00012628)
(0.029479 -0.000673678 0.00445441 0.00761093 -0.000179877 0.00807836)
(0.0234799 -0.00293039 0.00544245 0.00789509 -0.000611714 0.00722632)
(0.026865 -0.00200959 0.0073748 0.00938442 -0.000643538 0.00890129)
(0.0230969 -0.00167602 0.00691962 0.00847248 -0.000638951 0.00804653)
(0.0212021 -0.00127687 0.00649815 0.00779199 -0.000533149 0.00748836)
(0.0185882 -0.00106752 0.00581206 0.00689295 -0.000473428 0.00665946)
(0.0173712 -0.000924851 0.00545169 0.00643597 -0.000416499 0.00623137)
(0.0161913 -0.000847866 0.00510125 0.00602358 -0.000388873 0.00581807)
(0.0153783 -0.000782479 0.00484334 0.00572467 -0.00036267 0.005516)
(0.0146477 -0.000735889 0.00460521 0.00545589 -0.000345305 0.0052356)
(0.0141682 -0.000697336 0.00443435 0.00527675 -0.000333011 0.00503246)
(0.0138752 -0.000670034 0.00432355 0.00515662 -0.000327578 0.00489339)
(0.0136911 -0.000638506 0.00424098 0.00507977 -0.000323053 0.0047845)
(0.0135271 -0.000597255 0.00416953 0.00499722 -0.000314955 0.00468332)
(0.0132896 -0.00054719 0.00407903 0.00489352 -0.000304031 0.00455825)
(0.0128769 -0.000473476 0.00394265 0.00471891 -0.000281633 0.00438148)
(0.0121605 -0.000383393 0.00372186 0.00444284 -0.000249466 0.00411343)
(0.0112048 -0.000282651 0.00343379 0.00408428 -0.00020741 0.00377587)
(0.0100098 -0.000186172 0.00307638 0.00364916 -0.000161953 0.00336991)
(0.00868397 -0.00010061 0.00267777 0.00317263 -0.000116164 0.00292859)
(0.00734287 -3.527e-05 0.00226878 0.00269592 -7.68486e-05 0.00248612)
(0.00612076 1.02089e-05 0.00188955 0.00226307 -4.63563e-05 0.00208312)
(0.0050533 3.82456e-05 0.00155248 0.00188569 -2.50618e-05 0.00173146)
(0.00418312 5.43067e-05 0.00127154 0.00157715 -1.15407e-05 0.00144392)
(0.00350897 6.34577e-05 0.00104867 0.00133745 -3.68443e-06 0.00122035)
(0.00298618 6.93265e-05 0.000871841 0.00115158 1.18969e-06 0.00104698)
(0.00256066 7.3154e-05 0.000724515 0.00100065 4.49216e-06 0.000906387)
(0.00223169 7.55042e-05 0.000605649 0.000884129 6.56784e-06 0.000797595)
(0.00200661 7.7134e-05 0.000517652 0.000804396 7.53788e-06 0.000722211)
(0.00186343 7.88297e-05 0.000453871 0.000753501 7.70953e-06 0.000673141)
(0.00178118 8.11746e-05 0.000407513 0.000723841 7.2533e-06 0.000643736)
(0.00174085 8.50079e-05 0.000371697 0.000708608 6.34156e-06 0.000627934)
(0.00172768 9.09612e-05 0.000340596 0.000702761 5.18114e-06 0.00062164)
(0.00172851 9.93975e-05 0.000308318 0.000701985 4.01898e-06 0.000622059)
(0.00173917 0.000110045 0.000270684 0.000705075 3.01424e-06 0.000629484)
(0.00176338 0.000121805 0.000225331 0.000713114 2.09662e-06 0.000646935)
(0.00180735 0.000132254 0.000169413 0.000726973 8.75527e-07 0.000678349)
(0.00188451 0.000138592 0.000101671 0.000749439 -1.69166e-06 0.000729871)
(0.00201138 0.000138611 2.22617e-05 0.000783905 -6.27485e-06 0.000808286)
(0.00220567 0.000129733 -6.73806e-05 0.000834522 -1.21252e-05 0.000919567)
(0.00244372 0.000107198 -0.000159388 0.000890332 -1.57465e-05 0.00104937)
(0.00270457 7.3327e-05 -0.000233231 0.000945997 -1.36467e-05 0.00117834)
(0.00293213 2.89626e-05 -0.000274459 0.000986577 -3.22508e-06 0.00126711)
(0.00247855 -2.00562e-05 -0.00023278 0.000818828 2.28747e-05 0.0010682)
(0.00123578 -3.90461e-05 -0.000119907 0.000417977 3.38023e-05 0.000540836)
(0.000184213 -1.30824e-05 -2.12984e-05 7.18369e-05 8.90699e-06 8.99313e-05)
(1.80315e-05 -3.06022e-06 -2.04715e-06 1.71039e-05 2.62438e-06 2.12343e-05)
(1.73221e-05 -2.72222e-06 -1.17071e-06 1.79772e-05 1.92289e-06 2.08733e-05)
(1.96552e-05 -2.44083e-06 -9.78606e-07 1.95358e-05 1.39497e-06 2.16281e-05)
(2.07556e-05 -1.97351e-06 -4.75479e-07 2.05705e-05 1.0179e-06 2.19751e-05)
(2.17865e-05 -1.56004e-06 -5.35428e-07 2.12232e-05 7.26677e-07 2.22421e-05)
(2.18486e-05 -1.17575e-06 -8.32091e-08 2.15874e-05 5.30593e-07 2.22389e-05)
(2.23711e-05 -8.93797e-07 -3.70738e-07 2.18362e-05 3.81232e-07 2.23369e-05)
(2.20579e-05 -6.49872e-07 1.27623e-07 2.19268e-05 2.80816e-07 2.22294e-05)
(2.24996e-05 -4.8815e-07 -3.5321e-07 2.20513e-05 2.08004e-07 2.23149e-05)
(2.20175e-05 -3.35911e-07 2.79183e-07 2.20181e-05 1.53999e-07 2.21657e-05)
(2.25464e-05 -2.51003e-07 -4.19105e-07 2.21476e-05 1.22581e-07 2.22968e-05)
(2.2009e-05 -1.46372e-07 4.29497e-07 2.21013e-05 9.31507e-08 2.21834e-05)
(2.57196e-05 -1.22073e-07 -5.5205e-07 2.52753e-05 8.58412e-08 2.53725e-05)
(8.43342e-05 -1.32795e-06 9.52602e-07 8.44665e-05 9.53176e-08 8.47235e-05)
(0.0118264 -0.000206661 0.000835523 0.00286604 -0.000115337 0.00294835)
(0.00543579 -0.000690129 0.00116655 0.00181816 -0.000170337 0.001658)
(0.00500491 -0.000370001 0.00131732 0.00174916 -0.000144855 0.00165872)
(0.00355307 -0.00023532 0.00103186 0.00131113 -0.000102517 0.00124036)
(0.0028038 -0.000143935 0.000828671 0.00104178 -7.25779e-05 0.00099101)
(0.00218502 -9.87547e-05 0.000652976 0.000820713 -5.52572e-05 0.000781769)
(0.00190395 -7.32047e-05 0.00056437 0.000718469 -4.56451e-05 0.000681239)
(0.00171523 -6.07791e-05 0.000504931 0.000652456 -4.12324e-05 0.000615327)
(0.00160066 -5.07145e-05 0.000465184 0.000612435 -3.81897e-05 0.000574156)
(0.00153381 -4.48848e-05 0.000439043 0.000590084 -3.69159e-05 0.000549543)
(0.00152164 -4.12212e-05 0.000428365 0.000587692 -3.69575e-05 0.000544056)
(0.00153463 -3.88968e-05 0.000424614 0.000594222 -3.76349e-05 0.000547311)
(0.00158707 -3.75786e-05 0.000431838 0.000615081 -3.93398e-05 0.000563812)
(0.00163211 -3.45436e-05 0.000436333 0.000632426 -4.02888e-05 0.000577949)
(0.0016737 -3.10119e-05 0.000439542 0.000649007 -4.10628e-05 0.00059151)
(0.00167556 -2.39146e-05 0.000430231 0.000650564 -4.01109e-05 0.000593213)
(0.00162558 -1.50364e-05 0.000404685 0.000634576 -3.78313e-05 0.000579788)
(0.00153067 -4.98068e-06 0.000363423 0.000603272 -3.4478e-05 0.000553561)
(0.00140134 3.7694e-06 0.00030901 0.000560961 -3.10748e-05 0.000518294)
(0.00125952 1.04495e-05 0.00024635 0.000515142 -2.83359e-05 0.000481156)
(0.0011341 1.38706e-05 0.000183317 0.000476028 -2.71666e-05 0.000451265)
(0.00104796 1.46079e-05 0.000126776 0.000451239 -2.79018e-05 0.000435332)
(0.00100314 1.31946e-05 7.80073e-05 0.000441238 -3.01993e-05 0.000434168)
(0.00100144 1.06033e-05 3.78606e-05 0.000446285 -3.37442e-05 0.000447878)
(0.00103756 7.77351e-06 5.67542e-06 0.000464391 -3.82016e-05 0.00047384)
(0.00110263 5.22417e-06 -2.10819e-05 0.000492502 -4.33046e-05 0.000508633)
(0.00118844 2.74694e-06 -4.55276e-05 0.000527747 -4.87706e-05 0.000550157)
(0.00129552 2.05308e-07 -6.88407e-05 0.000570169 -5.45483e-05 0.000598521)
(0.0014245 -2.06086e-06 -9.04579e-05 0.000619588 -6.08049e-05 0.000652272)
(0.0015743 -3.64779e-06 -0.000111083 0.000675158 -6.77737e-05 0.000710626)
(0.00174579 -4.1287e-06 -0.000131869 0.000736536 -7.58417e-05 0.000773858)
(0.00194468 -2.68151e-06 -0.000154249 0.000805146 -8.57744e-05 0.000844205)
(0.00218183 1.54281e-06 -0.000180016 0.000884559 -9.84676e-05 0.00092654)
(0.00247611 9.58058e-06 -0.000212445 0.000981326 -0.000115188 0.00102931)
(0.00285936 2.23043e-05 -0.000256122 0.00110589 -0.000137361 0.00116547)
(0.00337245 4.05974e-05 -0.000315724 0.00127086 -0.000166407 0.00135137)
(0.00406935 6.38938e-05 -0.000397044 0.0014911 -0.000202887 0.00160829)
(0.00500687 9.10445e-05 -0.000505082 0.00178071 -0.000246826 0.00195954)
(0.00623273 0.000120835 -0.000644036 0.00214905 -0.000295781 0.00242642)
(0.0077514 0.000142899 -0.000817693 0.00259277 -0.000339346 0.00300925)
(0.00944608 0.000123204 -0.0010237 0.00307078 -0.000355545 0.00364823)
(0.0108658 3.78126e-05 -0.00118258 0.00343078 -0.000329798 0.00414791)
(0.0116372 -0.000107613 -0.00120649 0.00356524 -0.000266554 0.00434845)
(0.00985739 -0.000175953 -0.000912371 0.00299198 -0.000105872 0.00365937)
(0.00536996 -0.00016057 -0.000471297 0.00168674 5.48906e-05 0.00204557)
(0.00108546 -6.22669e-05 -0.000112083 0.000361648 3.02631e-05 0.000424132)
(3.61189e-05 -3.43123e-06 -4.54831e-06 1.32428e-05 1.04602e-06 1.55605e-05)
(2.86028e-06 -4.06281e-07 -2.70385e-07 2.39591e-06 1.47262e-07 2.83226e-06)
(2.34709e-06 -2.89705e-07 -1.26455e-07 2.26572e-06 7.64775e-08 2.53343e-06)
(2.35041e-06 -2.24281e-07 -6.95646e-08 2.28995e-06 4.47457e-08 2.45951e-06)
(2.36231e-06 -1.67486e-07 -4.56814e-08 2.28091e-06 2.52074e-08 2.39552e-06)
(2.31112e-06 -1.25319e-07 -2.13701e-08 2.26965e-06 1.58612e-08 2.34136e-06)
(2.31205e-06 -9.10828e-08 -1.9453e-08 2.25047e-06 9.27466e-09 2.30279e-06)
(2.2508e-06 -6.70097e-08 -3.53242e-09 2.23277e-06 6.34214e-09 2.26442e-06)
(2.26536e-06 -4.8127e-08 -1.16352e-08 2.21882e-06 3.92481e-09 2.2449e-06)
(2.20198e-06 -3.42053e-08 4.41836e-09 2.20094e-06 2.77001e-09 2.2159e-06)
(2.23955e-06 -2.41222e-08 -1.10759e-08 2.20065e-06 1.927e-09 2.21463e-06)
(2.25005e-06 -1.55556e-08 9.79573e-09 2.25984e-06 1.33481e-09 2.26831e-06)
(5.59861e-06 -2.74334e-08 -1.50915e-08 5.51811e-06 1.12749e-09 5.53697e-06)
(7.1213e-05 -1.1572e-06 2.42583e-08 7.13522e-05 -1.0138e-09 7.15541e-05)
(0.00526703 -5.36638e-05 -9.53247e-06 0.00121373 -0.000133731 0.0013312)
(0.00145208 -0.00019297 0.000298802 0.00048366 -5.83934e-05 0.000448645)
(0.00105629 -7.23737e-05 0.000264763 0.000370676 -3.48081e-05 0.000350447)
(0.000633432 -3.54186e-05 0.000171896 0.000239334 -1.91464e-05 0.000224044)
(0.00046021 -1.7347e-05 0.000120047 0.000178703 -1.29899e-05 0.000166838)
(0.000351776 -1.03849e-05 8.4013e-05 0.000141771 -1.01002e-05 0.000132116)
(0.000317431 -7.04065e-06 6.62622e-05 0.000132191 -9.64582e-06 0.000122615)
(0.000306446 -6.1244e-06 5.43776e-05 0.00013192 -1.01328e-05 0.000122666)
(0.000314178 -5.77125e-06 4.54546e-05 0.000139115 -1.14015e-05 0.000129652)
(0.000335418 -6.39629e-06 3.82665e-05 0.000151856 -1.33161e-05 0.00014233)
(0.000370942 -7.53607e-06 3.23007e-05 0.000170354 -1.59045e-05 0.000160934)
(0.000416981 -9.26386e-06 2.60743e-05 0.000193302 -1.91087e-05 0.000183955)
(0.000477449 -1.13222e-05 2.03863e-05 0.000221789 -2.30605e-05 0.000212833)
(0.000546822 -1.34921e-05 1.24618e-05 0.000254167 -2.75925e-05 0.00024586)
(0.000627101 -1.598e-05 2.65561e-06 0.000290968 -3.27178e-05 0.000283772)
(0.000716183 -1.84217e-05 -1.21741e-05 0.00033179 -3.85296e-05 0.000326883)
(0.000815181 -2.15327e-05 -3.35089e-05 0.000377536 -4.49094e-05 0.00037661)
(0.000932317 -2.57839e-05 -6.29697e-05 0.000431664 -5.23823e-05 0.000436481)
(0.00107386 -3.23287e-05 -0.00010114 0.000496432 -6.10692e-05 0.000509595)
(0.00125166 -4.208e-05 -0.000149591 0.00057658 -7.12888e-05 0.000602185)
(0.00147336 -5.63871e-05 -0.000208777 0.000674616 -8.28242e-05 0.000717389)
(0.00174314 -7.53671e-05 -0.000277671 0.000790902 -9.58751e-05 0.000854934)
(0.00205823 -9.92723e-05 -0.000355381 0.000923312 -0.000110232 0.00101385)
(0.00241303 -0.000127222 -0.000440553 0.00106792 -0.00012618 0.00119024)
(0.00279416 -0.00015697 -0.000529304 0.00121824 -0.000143833 0.00137466)
(0.00319599 -0.00018739 -0.000618033 0.00137222 -0.000162642 0.00156271)
(0.00362273 -0.000219996 -0.000708687 0.00153287 -0.000181254 0.00175777)
(0.00407813 -0.000255578 -0.000804222 0.00170156 -0.000199714 0.0019623)
(0.00454315 -0.000290617 -0.000896992 0.00186922 -0.000219231 0.00216114)
(0.00500263 -0.00032031 -0.000979597 0.00202708 -0.000241694 0.00234128)
(0.00548065 -0.000346531 -0.00105856 0.00218317 -0.00026835 0.00251513)
(0.00600987 -0.000370061 -0.00114091 0.00234761 -0.000301888 0.00269994)
(0.00663084 -0.000391868 -0.0012339 0.00253292 -0.00034476 0.00291337)
(0.00740305 -0.000411636 -0.00134786 0.00275662 -0.000400713 0.00317837)
(0.0084296 -0.000432435 -0.00149834 0.00305079 -0.000474411 0.00353195)
(0.00984667 -0.00045922 -0.00170435 0.0034567 -0.000571505 0.0040224)
(0.0118546 -0.000506173 -0.00199494 0.00403057 -0.000695784 0.00472395)
(0.014689 -0.000591697 -0.00239715 0.00483211 -0.000852369 0.0057153)
(0.0185905 -0.000725305 -0.00293861 0.00590742 -0.00104741 0.00706506)
(0.0236804 -0.000929128 -0.00361979 0.00727979 -0.00125907 0.00879986)
(0.029514 -0.00126976 -0.00431795 0.00882283 -0.00140183 0.0106767)
(0.0339952 -0.00160178 -0.00463657 0.00993318 -0.00141777 0.0119071)
(0.0345773 -0.00161153 -0.00405842 0.0098854 -0.00125428 0.0117051)
(0.0282033 -0.0010469 -0.00264049 0.00800306 -0.000751321 0.00937877)
(0.0160616 -0.000537389 -0.00131064 0.00471972 -0.000124974 0.00545015)
(0.00428707 -0.000210736 -0.000386211 0.00137771 7.18123e-05 0.00154292)
(0.000210302 -1.78854e-05 -2.43482e-05 6.90187e-05 4.38157e-06 7.71243e-05)
(5.95745e-06 -5.0736e-07 -6.37988e-07 2.07924e-06 9.31697e-08 2.33547e-06)
(3.50649e-07 -3.85525e-08 -2.7272e-08 2.66397e-07 8.94957e-09 2.9919e-07)
(2.14507e-07 -2.03568e-08 -8.49556e-09 2.03824e-07 3.67153e-09 2.19705e-07)
(1.86531e-07 -1.32269e-08 -4.33533e-09 1.78215e-07 1.64169e-09 1.87322e-07)
(1.68804e-07 -9.15215e-09 -2.21738e-09 1.64677e-07 8.90495e-10 1.69997e-07)
(1.59155e-07 -6.25922e-09 -1.33017e-09 1.54448e-07 4.10534e-10 1.58057e-07)
(1.5047e-07 -4.47789e-09 -6.28723e-10 1.48944e-07 2.68229e-10 1.51108e-07)
(1.47605e-07 -3.12167e-09 -5.02239e-10 1.44462e-07 1.13978e-10 1.46184e-07)
(1.41801e-07 -2.20177e-09 -1.22845e-10 1.41629e-07 8.57666e-11 1.42634e-07)
(1.43732e-07 -1.53389e-09 -2.77028e-10 1.41244e-07 3.08805e-11 1.42171e-07)
(2.17774e-07 -1.48657e-09 4.65054e-11 2.18169e-07 3.40971e-11 2.19027e-07)
(3.52779e-06 -1.84318e-08 -1.29557e-09 3.48214e-06 -1.21856e-10 3.49554e-06)
(6.92173e-05 -1.11469e-06 -3.6293e-08 6.93471e-05 -1.29647e-09 6.95645e-05)
(0.00231164 -1.06745e-05 -0.00010345 0.000517127 -4.17761e-05 0.000631313)
(0.000447855 -5.5465e-05 8.28883e-05 0.000152993 -1.92289e-05 0.000143906)
(0.000279624 -1.70177e-05 5.42767e-05 0.000106311 -1.07861e-05 9.96345e-05)
(0.000174295 -1.01894e-05 2.50685e-05 7.72707e-05 -7.3803e-06 7.17401e-05)
(0.000158233 -8.40091e-06 9.76554e-06 7.65137e-05 -7.46026e-06 7.1202e-05)
(0.000168613 -9.87284e-06 -1.68232e-06 8.63041e-05 -9.03852e-06 8.12428e-05)
(0.000204165 -1.2415e-05 -1.13996e-05 0.000107142 -1.19806e-05 0.000101848)
(0.000255001 -1.68193e-05 -2.24024e-05 0.000135364 -1.58151e-05 0.000130209)
(0.000324094 -2.25366e-05 -3.60549e-05 0.000172139 -2.1024e-05 0.000167506)
(0.000411494 -3.05084e-05 -5.32308e-05 0.000217561 -2.74064e-05 0.000214084)
(0.0005215 -4.06677e-05 -7.5497e-05 0.00027303 -3.53282e-05 0.000272165)
(0.000656983 -5.37619e-05 -0.000103924 0.000339877 -4.4973e-05 0.000342423)
(0.000822718 -6.95232e-05 -0.000139543 0.000418851 -5.64052e-05 0.000427006)
(0.00102916 -8.94602e-05 -0.000186 0.000515495 -6.98855e-05 0.000530557)
(0.00128369 -0.000114419 -0.00024494 0.000631849 -8.51852e-05 0.00065635)
(0.00160877 -0.000146467 -0.000323613 0.000777901 -0.000103163 0.000816322)
(0.0020268 -0.000189553 -0.000431111 0.000964076 -0.000123147 0.00102511)
(0.00257836 -0.000249029 -0.000581452 0.00120771 -0.000145909 0.00130131)
(0.0033012 -0.000331619 -0.000786527 0.001524 -0.000170423 0.00166441)
(0.00425634 -0.000447125 -0.00106862 0.00193745 -0.000196081 0.00214692)
(0.0054938 -0.000607873 -0.0014501 0.00246986 -0.000218769 0.002779)
(0.00704169 -0.000821724 -0.00193766 0.00312773 -0.000236565 0.00356552)
(0.00892413 -0.00109912 -0.00253582 0.00391641 -0.000246778 0.00451456)
(0.0110979 -0.00143539 -0.00323041 0.00481105 -0.000250242 0.00561228)
(0.0134352 -0.00180369 -0.0039712 0.00575134 -0.000254434 0.00678581)
(0.0158755 -0.00219517 -0.00472042 0.00671236 -0.000261205 0.00798209)
(0.0185759 -0.00265899 -0.00552798 0.00777236 -0.000254333 0.00927446)
(0.0217631 -0.00326025 -0.00646902 0.00904177 -0.000216927 0.0108063)
(0.0255474 -0.00404537 -0.00755801 0.0105798 -0.000156877 0.0126078)
(0.027022 -0.00438105 -0.00792077 0.0110895 -0.000133102 0.0131988)
(0.0263626 -0.0042462 -0.00760783 0.0106708 -0.000167466 0.0126858)
(0.0250636 -0.00390442 -0.00706348 0.00995659 -0.000255769 0.0118139)
(0.0246772 -0.00370817 -0.00675077 0.00960268 -0.000354138 0.0113441)
(0.0259321 -0.00383832 -0.00688755 0.00988819 -0.000448473 0.0116064)
(0.0279193 -0.00403569 -0.00717912 0.0103727 -0.000580207 0.0121351)
(0.0309589 -0.0043413 -0.00767225 0.0111618 -0.00076495 0.0130567)
(0.0357135 -0.00487336 -0.00849181 0.0124699 -0.00101213 0.0146327)
(0.0428529 -0.00574458 -0.00972486 0.0144868 -0.00133632 0.0170678)
(0.053314 -0.00697341 -0.0114215 0.0174115 -0.00182115 0.0205909)
(0.0684348 -0.00861298 -0.0136698 0.0216044 -0.00251636 0.0255486)
(0.0861091 -0.0103956 -0.0156696 0.0263505 -0.00325322 0.0308217)
(0.0947345 -0.010599 -0.0150721 0.0281032 -0.00365423 0.032385)
(0.0865296 -0.0078443 -0.0110571 0.0247174 -0.0034328 0.028285)
(0.0663334 -0.00391983 -0.00619651 0.0182978 -0.00245736 0.0207973)
(0.0384777 -0.0014807 -0.00291243 0.0107584 -0.000932546 0.0120013)
(0.0122827 -0.000499077 -0.00094513 0.00375852 1.09749e-05 0.00406644)
(0.00094355 -7.1218e-05 -9.64232e-05 0.000303686 1.35373e-05 0.000328636)
(3.65309e-05 -2.83777e-06 -3.64036e-06 1.15995e-05 3.7214e-07 1.26197e-05)
(9.79344e-07 -7.2754e-08 -9.0624e-08 3.28122e-07 8.38026e-09 3.58875e-07)
(4.20554e-08 -3.48774e-09 -2.80223e-09 2.76449e-08 5.34117e-10 3.0046e-08)
(1.65928e-08 -1.15201e-09 -4.88257e-10 1.5432e-08 1.48208e-10 1.62687e-08)
(1.25723e-08 -6.68297e-10 -2.04408e-10 1.21332e-08 6.79038e-11 1.25413e-08)
(1.04353e-08 -4.05172e-10 -1.01201e-10 1.00805e-08 2.65681e-11 1.03124e-08)
(9.31736e-09 -2.73937e-10 -5.13434e-11 9.19393e-09 1.72102e-11 9.32543e-09)
(8.75743e-09 -1.83182e-10 -3.03345e-11 8.56228e-09 5.95345e-12 8.6601e-09)
(8.29346e-09 -1.27186e-10 -1.53051e-11 8.27321e-09 5.44431e-12 8.32964e-09)
(9.50471e-09 -9.9117e-11 -1.25549e-11 9.34656e-09 1.40041e-12 9.40461e-09)
(8.80749e-08 -5.84051e-10 -5.72489e-11 8.78534e-08 1.98451e-11 8.81739e-08)
(3.40147e-06 -1.79515e-08 -1.25415e-09 3.35651e-06 8.05072e-11 3.36901e-06)
(6.90449e-05 -1.11184e-06 -3.26429e-08 6.9149e-05 5.27546e-09 6.93534e-05)
(0.00141516 5.77852e-06 -0.000121393 0.000324531 -8.80107e-05 0.000439143)
(0.00021644 -2.9503e-05 9.85082e-06 9.42487e-05 -1.1701e-05 9.20132e-05)
(0.000212307 -2.60521e-05 -1.30175e-05 0.000112287 -6.87525e-06 0.000105624)
(0.00026038 -3.88488e-05 -3.58959e-05 0.000151324 -5.30785e-06 0.000142469)
(0.000353899 -5.3735e-05 -6.07484e-05 0.000207034 -6.20172e-06 0.000196834)
(0.000466308 -7.20972e-05 -8.71775e-05 0.000271404 -8.45285e-06 0.000260675)
(0.000607478 -9.21359e-05 -0.000120382 0.000350196 -1.25431e-05 0.000340246)
(0.000787006 -0.000119443 -0.000163297 0.000449077 -1.77578e-05 0.000442456)
(0.00101545 -0.000153324 -0.000220607 0.00057232 -2.53418e-05 0.00057156)
(0.00130987 -0.000198797 -0.000296515 0.000728994 -3.50725e-05 0.000739013)
(0.00168958 -0.000258819 -0.000398536 0.000926573 -4.76328e-05 0.000954182)
(0.00217632 -0.000336444 -0.000533139 0.00117436 -6.455e-05 0.00122702)
(0.00279277 -0.000433337 -0.000706514 0.00148128 -8.68931e-05 0.0015686)
(0.00361784 -0.000563352 -0.000942677 0.00188413 -0.000115892 0.0020162)
(0.00470658 -0.000736324 -0.00125268 0.00240686 -0.000154138 0.00259178)
(0.00620885 -0.000975856 -0.00168295 0.00311597 -0.00020618 0.00337326)
(0.0083032 -0.00131792 -0.00230069 0.00410001 -0.000267475 0.00446871)
(0.0112826 -0.00181273 -0.00320649 0.00549073 -0.000341469 0.00601874)
(0.0155386 -0.00253572 -0.00451833 0.00746048 -0.00042674 0.00820276)
(0.0216626 -0.00360974 -0.00644064 0.0102661 -0.000513811 0.0113224)
(0.0302867 -0.00518334 -0.00919868 0.0141901 -0.000578082 0.0156987)
(0.0418554 -0.00738865 -0.012904 0.0194218 -0.000597586 0.0214618)
(0.0577013 -0.0105541 -0.017893 0.0265338 -0.000515478 0.0291462)
(0.0789738 -0.0149948 -0.0244659 0.0359668 -0.000251938 0.039328)
(0.104801 -0.0205052 -0.0323722 0.0471931 0.000161332 0.051664)
(0.134174 -0.0268131 -0.041241 0.0598003 0.000543255 0.0657999)
(0.168427 -0.0344637 -0.0512 0.0744441 0.000961357 0.0820838)
(0.206013 -0.0432133 -0.0617142 0.0901506 0.00167738 0.0995958)
(0.228334 -0.0491145 -0.0676275 0.0988704 0.00257184 0.109753)
(0.227241 -0.0502929 -0.066895 0.0976556 0.00338657 0.108746)
(0.205125 -0.0468911 -0.060271 0.0878968 0.00382635 0.0978205)
(0.171561 -0.0403161 -0.0504731 0.073483 0.00358649 0.0814829)
(0.139097 -0.0332989 -0.0407597 0.0594937 0.00285188 0.0652584)
(0.118221 -0.028623 -0.0340604 0.0504387 0.00205229 0.0542803)
(0.11272 -0.0275377 -0.031644 0.0479052 0.00158893 0.05063)
(0.113347 -0.0275977 -0.0308644 0.0475558 0.00114289 0.049815)
(0.119811 -0.0285056 -0.0315695 0.0489367 0.000538983 0.0515761)
(0.134638 -0.0307944 -0.0340856 0.0528669 -0.00027261 0.0567093)
(0.157721 -0.0343699 -0.0377658 0.0590895 -0.00152375 0.0646675)
(0.191017 -0.0393604 -0.0425341 0.068159 -0.00322686 0.0755394)
(0.221865 -0.0428643 -0.0449881 0.0756734 -0.00478445 0.0837848)
(0.21739 -0.0377425 -0.0389359 0.070806 -0.00569329 0.0782869)
(0.178409 -0.0242876 -0.0256537 0.0543477 -0.00612296 0.0605552)
(0.131156 -0.0105325 -0.0130277 0.0369624 -0.00543518 0.0411076)
(0.0779126 -0.00294587 -0.00552614 0.0212701 -0.00292247 0.0231601)
(0.0280873 -0.000897672 -0.00182327 0.00816335 -0.000444032 0.00865173)
(0.00323618 -0.000194104 -0.000271428 0.00101286 1.58478e-05 0.00106797)
(0.000184209 -1.3038e-05 -1.64585e-05 5.76441e-05 1.04955e-06 6.1361e-05)
(7.2454e-06 -4.9884e-07 -6.22405e-07 2.27011e-06 3.63569e-08 2.42818e-06)
(1.79056e-07 -1.20481e-08 -1.47459e-08 5.80648e-08 8.39006e-10 6.22754e-08)
(5.39699e-09 -3.74207e-10 -3.009e-10 3.35271e-09 3.70332e-11 3.51235e-09)
(2.4035e-09 -1.33425e-10 -4.46563e-11 2.30141e-09 1.39679e-11 2.35811e-09)
(2.27039e-09 -8.99632e-11 -2.39607e-11 2.19213e-09 6.03683e-12 2.23279e-09)
(2.17477e-09 -6.41746e-11 -1.3765e-11 2.14325e-09 4.15227e-12 2.16896e-09)
(2.18142e-09 -4.53888e-11 -8.26793e-12 2.13181e-09 1.3528e-12 2.15377e-09)
(2.13016e-09 -3.21729e-11 -4.85231e-12 2.12238e-09 1.4428e-12 2.13562e-09)
(3.44885e-09 -3.49741e-11 -4.60922e-12 3.39518e-09 2.63178e-13 3.41532e-09)
(8.22638e-08 -5.41823e-10 -6.28308e-11 8.19795e-08 1.69264e-11 8.22841e-08)
(3.39789e-06 -1.79553e-08 -1.47905e-09 3.35189e-06 -1.08556e-10 3.3649e-06)
(6.908e-05 -1.10065e-06 -4.26424e-08 6.91642e-05 2.20522e-09 6.93751e-05)
(0.00180959 -0.00018271 -0.000278579 0.000614848 -7.70137e-05 0.000789606)
(0.000869369 -0.00011931 -0.00012273 0.000470269 -1.40337e-05 0.000464612)
(0.00168205 -0.000297285 -0.000325648 0.000950453 -1.61606e-05 0.000898523)
(0.00269188 -0.000544786 -0.00056396 0.00155168 -1.19921e-05 0.00146331)
(0.0037957 -0.000786199 -0.00084674 0.0021719 -4.39842e-06 0.0020672)
(0.00474693 -0.0010024 -0.00106871 0.00269761 -1.64281e-06 0.002571)
(0.00569343 -0.00119629 -0.00131412 0.00321415 -1.31555e-06 0.0030804)
(0.00681122 -0.00143478 -0.00160961 0.00383014 9.715e-06 0.00370813)
(0.00807728 -0.0016958 -0.00196687 0.0045222 1.6691e-05 0.00440831)
(0.00969992 -0.00203851 -0.00242901 0.0054004 1.95515e-05 0.00529793)
(0.011776 -0.0024826 -0.00304872 0.00651667 2.92966e-05 0.00645238)
(0.0143713 -0.00302803 -0.00384949 0.00787238 1.52058e-05 0.00789241)
(0.0177187 -0.00371831 -0.00489534 0.00958183 -2.61382e-05 0.00973935)
(0.0223764 -0.00466742 -0.00634697 0.0119105 -9.88742e-05 0.0122489)
(0.0283811 -0.00587738 -0.00817296 0.0148395 -0.000224446 0.0153268)
(0.037391 -0.00770993 -0.0108629 0.0191537 -0.00039808 0.0198188)
(0.0510341 -0.010525 -0.0150246 0.0256621 -0.000562032 0.0267804)
(0.070353 -0.0145645 -0.0210519 0.0348654 -0.000759465 0.0368091)
(0.0978952 -0.0203934 -0.0296526 0.0479365 -0.00103226 0.0509987)
(0.139095 -0.0292158 -0.0425545 0.0673437 -0.00127456 0.0721139)
(0.199751 -0.0423477 -0.0617821 0.0956222 -0.00110723 0.103265)
(0.274186 -0.0589052 -0.0854627 0.130383 -0.000418378 0.141642)
(0.369936 -0.0806013 -0.115133 0.175345 0.000114117 0.190206)
(0.504798 -0.113017 -0.154138 0.238852 0.00078998 0.256835)
(0.629921 -0.145902 -0.186664 0.296422 0.00265107 0.314131)
(0.707428 -0.167514 -0.204521 0.329719 0.00465758 0.346212)
(0.766786 -0.185172 -0.216782 0.354009 0.00632678 0.370099)
(0.826597 -0.202191 -0.22828 0.376884 0.00788892 0.393382)
(0.871349 -0.21388 -0.236742 0.390894 0.00974377 0.410248)
(0.878602 -0.216615 -0.237112 0.388296 0.012295 0.411604)
(0.833835 -0.208246 -0.225779 0.365604 0.0153802 0.391339)
(0.734499 -0.187867 -0.201904 0.32277 0.0179166 0.348549)
(0.597397 -0.157515 -0.168344 0.26536 0.0181473 0.288302)
(0.455659 -0.124112 -0.131956 0.206064 0.0159055 0.224147)
(0.342242 -0.0954657 -0.100507 0.157443 0.0119094 0.170347)
(0.281788 -0.0799069 -0.0812355 0.130877 0.00835181 0.138405)
(0.261909 -0.0752092 -0.0723407 0.121593 0.00625763 0.123987)
(0.267377 -0.0768127 -0.0704188 0.12269 0.00559231 0.12158)
(0.292929 -0.0826038 -0.0738085 0.130822 0.00612969 0.128979)
(0.331879 -0.0896485 -0.078957 0.141222 0.00589896 0.141274)
(0.352791 -0.0888978 -0.0763972 0.141435 0.00228542 0.14362)
(0.323916 -0.0728429 -0.0624775 0.121616 -0.00277099 0.125832)
(0.25879 -0.0469678 -0.0416673 0.088892 -0.00640809 0.0939774)
(0.192935 -0.0222531 -0.0223701 0.0592124 -0.00753325 0.0633757)
(0.13171 -0.00572143 -0.0092097 0.0369694 -0.00560608 0.0392382)
(0.0552778 -0.00105575 -0.00288268 0.0156052 -0.00154052 0.0163515)
(0.00883423 -0.000348615 -0.000548388 0.00266972 -5.07224e-05 0.00277179)
(0.000746735 -4.45381e-05 -5.56282e-05 0.000229899 1.09214e-07 0.000240216)
(3.76008e-05 -2.32073e-06 -2.80532e-06 1.16345e-05 4.47542e-08 1.22288e-05)