/*--------------------------------*- C++ -*----------------------------------*\
| =========                 |                                                 |
| \\      /  F ield         | OpenFOAM: The Open Source CFD Toolbox           |
|  \\    /   O peration     | Version:  2.1.1                                 |
|   \\  /    A nd           | Web:      www.OpenFOAM.org                      |
|    \\/     M anipulation  |                                                 |
\*---------------------------------------------------------------------------*/
FoamFile
{
    version     2.0;
    format      ascii;
    class       volScalarField;
    location    "0.001";
    object      TLS;
}
// * * * * * * * * * * * * * * * * * * * * * * * * * * * * * * * * * * * * * //

dimensions      [0 1 0 0 0 0 0];

internalField   nonuniform List<scalar> 
36520
(
0.000455391
0.000399245
0.000356914
0.000349809
0.000341452
0.000339519
0.000337865
0.000338031
0.000339395
0.000341429
0.000344631
0.000347976
0.00035227
0.000356558
0.000361668
0.000367022
0.000373341
0.000380418
0.000388754
0.000398286
0.000409368
0.000421853
0.000435973
0.00045161
0.000468903
0.000487771
0.000508367
0.000530601
0.000554345
0.000579349
0.000605515
0.000632578
0.000660371
0.000688755
0.000717843
0.00074814
0.000780646
0.000817077
0.000860062
0.000912861
0.000980397
0.00106651
0.00116585
0.0012921
0.00148592
0.0016771
0.00174877
0.00178643
0.00180824
0.0018243
0.00182735
0.00183428
0.00183033
0.00183492
0.00182866
0.00183344
0.00182597
0.00183173
0.00182041
0.00178471
0.000786635
0.000442881
0.000412084
0.000408379
0.000404446
0.000408089
0.000410177
0.000414374
0.000418746
0.000423457
0.000427571
0.000430137
0.00043198
0.00043316
0.000434387
0.000436305
0.00043995
0.000445193
0.000452517
0.000461798
0.000472829
0.000484367
0.000495439
0.000504211
0.000508931
0.000508478
0.000502585
0.000491578
0.000477243
0.000461319
0.000444942
0.000428093
0.000410101
0.000389903
0.00036701
0.000342047
0.000316278
0.000291764
0.000270517
0.000253778
0.00024181
0.000234119
0.000229134
0.000227784
0.000237997
0.000276778
0.000639806
0.000898613
0.000904754
0.000904652
0.000906869
0.000906214
0.000908785
0.000906639
0.000909795
0.000905434
0.000910077
0.000903065
0.000930778
0.00286362
0.000995661
0.000491389
0.000464096
0.00046519
0.000467248
0.000477481
0.000484088
0.000490425
0.000495002
0.000497094
0.000496029
0.000492441
0.000486553
0.00048034
0.000473678
0.000467285
0.00046098
0.000453597
0.00044394
0.00043055
0.000413331
0.00039392
0.00037472
0.000357866
0.000344232
0.000333235
0.000323954
0.000316057
0.000309382
0.000303446
0.000297849
0.000292303
0.000286624
0.000280708
0.000274595
0.000268485
0.000262687
0.000257535
0.000253278
0.000249917
0.00024701
0.000244078
0.000240291
0.000236041
0.000240399
0.000261564
0.000301882
0.000565962
0.000708792
0.000701954
0.000698389
0.000694863
0.000695588
0.000692507
0.000694917
0.000690434
0.000694449
0.000688648
0.000807974
0.0029869
0.00122026
0.000534816
0.000509515
0.000510577
0.000507092
0.000500992
0.000486708
0.000469651
0.000452045
0.000435798
0.000421672
0.000409229
0.000398645
0.000388524
0.000379012
0.000369145
0.000359158
0.00034927
0.000339953
0.000331423
0.000323943
0.000317506
0.000311846
0.000306769
0.000302185
0.000297951
0.000293909
0.000289947
0.000286301
0.000283497
0.000280753
0.000277523
0.000273763
0.000269739
0.000265628
0.000261548
0.00025761
0.000253947
0.0002507
0.000247807
0.000244955
0.000242267
0.000241724
0.000244817
0.000247975
0.000264316
0.000290699
0.000317321
0.000510213
0.000614724
0.000599723
0.000589473
0.00058525
0.000581005
0.000581373
0.000577414
0.000579918
0.00060615
0.000893847
0.00300807
0.00149596
0.000521716
0.000463267
0.000407691
0.000371797
0.000352009
0.000343631
0.000338725
0.000335305
0.000332135
0.000328802
0.000325172
0.000321137
0.000316438
0.000311287
0.00030562
0.000299551
0.000293182
0.00028678
0.00028043
0.000274124
0.000267913
0.000261758
0.00025579
0.000250257
0.000245156
0.000240086
0.000234409
0.000227617
0.000226796
0.000231145
0.000237926
0.000242117
0.00024118
0.000239604
0.000237774
0.000235588
0.000233037
0.000229703
0.000223928
0.000214882
0.00020859
0.000211452
0.000223122
0.000245215
0.000268508
0.000292476
0.000308942
0.000320467
0.00044123
0.000531518
0.000504962
0.000484255
0.000473239
0.000467674
0.000462484
0.000471634
0.000634509
0.000924809
0.00301014
0.00167923
0.000267882
0.000219071
0.000201134
0.000197859
0.000200814
0.000206195
0.000212413
0.000219122
0.000225172
0.000230082
0.00023415
0.000237365
0.000238253
0.000237591
0.000235561
0.000232477
0.000228636
0.000224348
0.000219818
0.000215247
0.000210875
0.000206241
0.000201207
0.000196339
0.000191634
0.000187151
0.000183312
0.000181043
0.000180687
0.000182547
0.000186904
0.000193523
0.0001996
0.000201529
0.000202008
0.000201643
0.000199376
0.000192778
0.000175261
0.00014925
0.000135474
0.000134075
0.000142665
0.000173785
0.000254384
0.000295633
0.000310969
0.000315945
0.000320903
0.000362121
0.000384498
0.000380414
0.000377278
0.000377314
0.000375332
0.000415724
0.000646624
0.000927662
0.00300987
0.00152372
0.000172701
0.00016127
0.000156052
0.000153295
0.000153789
0.000155409
0.000157683
0.000160951
0.000164986
0.00016915
0.000173692
0.00017819
0.000181628
0.000184368
0.000185269
0.000184439
0.000182844
0.000180917
0.000178517
0.00017549
0.000172688
0.000170229
0.0001669
0.000164391
0.000163231
0.00016235
0.000161489
0.00016102
0.000160526
0.000160707
0.000162472
0.000165272
0.000169327
0.000174403
0.000177426
0.000174241
0.00016008
0.000133238
0.000106366
8.23717e-05
6.9664e-05
6.54476e-05
6.87018e-05
8.71395e-05
0.000195601
0.00029899
0.000314328
0.000321782
0.000326722
0.000334811
0.000366914
0.000370582
0.000369317
0.000370592
0.000369052
0.00041308
0.000647216
0.000927608
0.00300969
0.000855614
0.000170167
0.000159296
0.000153343
0.00014969
0.000148752
0.000148526
0.000148694
0.000149572
0.00015087
0.000152276
0.000153826
0.000153994
0.000154214
0.000156235
0.000157487
0.000155442
0.000152408
0.000149614
0.000147261
0.000145168
0.000143779
0.000143347
0.000143369
0.000143439
0.00014348
0.000143694
0.000144135
0.000144586
0.000145036
0.000146197
0.000147944
0.000150726
0.000153686
0.000156913
0.00016162
0.000167359
0.000165155
0.000141655
8.24358e-05
4.56442e-05
3.87587e-05
3.91237e-05
4.2665e-05
5.70303e-05
0.000163117
0.000302371
0.000324603
0.000335585
0.00034222
0.000347032
0.000362779
0.000370334
0.000368933
0.00037044
0.000368827
0.000412937
0.000647089
0.000927412
0.00300946
0.000640418
0.000163358
0.000150627
0.00014413
0.000140704
0.00013867
0.00013726
0.000134733
0.000134024
0.000133846
0.00013342
0.000133334
0.000133699
0.000133792
0.000133858
0.000134696
0.000135648
0.000135876
0.000135693
0.000135392
0.000134603
0.000133121
0.000131442
0.000130086
0.000129496
0.000129204
0.000127968
0.000125618
0.000124205
0.000124438
0.000125748
0.000127169
0.000128147
0.000129437
0.000132909
0.000140851
0.000148139
0.000150256
0.000147735
0.0001152
5.27153e-05
3.4976e-05
3.5482e-05
4.00606e-05
5.43843e-05
0.000175839
0.000335686
0.000354723
0.000364698
0.000371277
0.000375694
0.000376065
0.000370631
0.000368762
0.000370445
0.000368586
0.000412928
0.000646658
0.000927497
0.00300968
0.000637587
0.000164812
0.000153082
0.000148376
0.000146249
0.000145622
0.000145668
0.000145159
0.000144483
0.000144991
0.000145818
0.000145709
0.000145249
0.000144887
0.000145388
0.000146084
0.000146099
0.000145333
0.000144295
0.00014261
0.00013973
0.00013609
0.000132133
0.000129064
0.000128657
0.000129467
0.000129739
0.000129722
0.000129391
0.000129081
0.000129727
0.000129846
0.000129658
0.000130746
0.000133504
0.000137603
0.000140527
0.00014322
0.000147745
0.000129243
6.40373e-05
4.11174e-05
4.14155e-05
4.58758e-05
6.05252e-05
0.000193141
0.000349293
0.000365043
0.000373434
0.000379076
0.000382841
0.000381563
0.000370942
0.000368607
0.000370475
0.000368478
0.000413003
0.000646622
0.000927644
0.0030098
0.000683944
0.000180554
0.00016742
0.000151309
0.000147235
0.000145331
0.000144228
0.00014274
0.000141574
0.000140966
0.000140335
0.00013936
0.000138211
0.000137126
0.000136423
0.000136555
0.000136798
0.00013629
0.000135703
0.000135905
0.00013595
0.000135676
0.000134951
0.000133948
0.000133866
0.000134943
0.000136105
0.000136785
0.000136974
0.000137172
0.000138258
0.000138959
0.000139279
0.000141194
0.000145624
0.000151654
0.000158582
0.000164302
0.000167413
0.000142837
6.80059e-05
3.86213e-05
3.71541e-05
4.03057e-05
5.01694e-05
0.000142219
0.00031471
0.000333369
0.000344977
0.000353426
0.000359581
0.000365191
0.000370306
0.00036863
0.000370478
0.000368523
0.000413087
0.000647122
0.000928315
0.00301084
0.000665955
0.000188242
0.000172226
0.000154207
0.000149131
0.000142061
0.000138311
0.000135285
0.000133032
0.000131167
0.000129756
0.000128716
0.000128153
0.000128162
0.00012926
0.00013202
0.000135285
0.000135792
0.00013226
0.000128945
0.000128345
0.000127264
0.000123282
0.000119483
0.000122673
0.000128792
0.00013047
0.00012593
0.000113104
0.000114951
0.00011787
0.000132418
0.000139862
0.00014053
0.000143547
0.000149548
0.000156153
0.000162742
0.000167064
0.000143493
6.87001e-05
3.67958e-05
3.14314e-05
3.2461e-05
3.67676e-05
7.32268e-05
0.000239531
0.000265964
0.000279352
0.000290118
0.000298746
0.000318417
0.000368315
0.000369121
0.000370439
0.000368872
0.000413185
0.000648173
0.000929473
0.00301257
0.000606449
0.000177009
0.00016477
0.000155187
0.000148696
0.00014135
0.000137132
0.000134192
0.000132054
0.000130288
0.000129
0.000128182
0.000127727
0.000127923
0.000129135
0.000131325
0.000133949
0.000135669
0.000135066
0.00013226
0.000129429
0.000129313
0.000129987
0.000126312
0.000110543
0.000113956
0.00012855
0.000131786
0.000133192
0.000134958
0.000122601
0.000122461
0.000124838
0.000136993
0.00014541
0.000148607
0.000154192
0.000162397
0.000163715
0.000138669
6.80821e-05
3.65318e-05
3.09285e-05
3.1989e-05
3.64794e-05
7.31033e-05
0.000236987
0.000263355
0.000276681
0.000287437
0.000296087
0.000316256
0.000368221
0.000369145
0.000370449
0.000368839
0.000413188
0.000647992
0.000929225
0.00301297
0.00064601
0.000170883
0.000160397
0.000151842
0.000149132
0.000146247
0.000143924
0.000142374
0.000141647
0.000140646
0.000139697
0.000138996
0.000138341
0.000138398
0.000139269
0.000141325
0.00014385
0.000143345
0.000145026
0.000146552
0.000146913
0.000146071
0.000144828
0.000143465
0.000141883
0.00014099
0.000140852
0.000140932
0.000140859
0.000140123
0.000139096
0.00013725
0.000138251
0.000141952
0.000147579
0.000153644
0.000159816
0.000164445
0.000163976
0.000133237
6.29975e-05
3.78082e-05
3.64716e-05
3.93418e-05
5.08587e-05
0.000160529
0.00030654
0.00032489
0.000337291
0.000346316
0.000352919
0.000360367
0.000370054
0.000369073
0.000370437
0.000368859
0.00041308
0.000647601
0.000928235
0.00301183
0.000613089
0.000159934
0.000149869
0.000144751
0.000141833
0.000139307
0.000139295
0.000140028
0.000140387
0.000140626
0.000138913
0.000136798
0.000136435
0.000137418
0.000142059
0.000145534
0.000145688
0.000142456
0.00014325
0.000147438
0.00014857
0.000147619
0.000138398
0.00011674
0.000119103
0.000134189
0.000150727
0.000154081
0.00015523
0.000156524
0.000145819
0.000122489
0.000121099
0.000134332
0.000150035
0.000159092
0.000166747
0.000174368
0.000180512
0.00015593
7.31996e-05
4.20632e-05
4.03987e-05
4.39551e-05
6.1123e-05
0.000218797
0.000329197
0.000343929
0.00035346
0.000360092
0.000364746
0.00036865
0.00037033
0.00036926
0.000370399
0.000369053
0.000412973
0.000647588
0.000927757
0.00301086
0.000633861
0.000165017
0.000153905
0.000149522
0.000146677
0.000142953
0.000140645
0.000138807
0.00013785
0.000137175
0.000136623
0.000136396
0.000136628
0.000137832
0.000138021
0.000136426
0.000136878
0.000137351
0.000139301
0.000140415
0.000139482
0.000130354
0.000121856
0.000125866
0.000136731
0.00014618
0.000150841
0.000139362
0.000119793
0.00012102
0.000122066
0.00012951
0.000145929
0.00015559
0.000160651
0.000165739
0.000171975
0.000177429
0.000175561
0.000133163
5.77686e-05
3.76096e-05
3.76616e-05
4.16307e-05
5.75951e-05
0.00020202
0.000317849
0.000333538
0.000344219
0.000351854
0.000357403
0.000364699
0.000370264
0.000369082
0.000370419
0.000368881
0.000412901
0.000647111
0.000927327
0.00301037
0.000857601
0.000182447
0.000170524
0.000165088
0.000162063
0.000160819
0.000160099
0.000159483
0.000159668
0.000160039
0.000159457
0.000158125
0.000157409
0.000157243
0.000157226
0.000156899
0.000156949
0.0001568
0.000156292
0.000154771
0.000152061
0.000150195
0.000151333
0.000154134
0.000154969
0.000152237
0.00013986
0.00013546
0.000136532
0.00013962
0.000146484
0.000154674
0.000159909
0.000162938
0.0001664
0.000170791
0.00017514
0.000176941
0.000164305
0.000104297
5.06361e-05
3.88699e-05
3.90461e-05
4.31816e-05
6.02544e-05
0.000178916
0.000292326
0.000310991
0.000322292
0.000330159
0.000336921
0.000361043
0.000369929
0.000368096
0.000370183
0.000368224
0.00041288
0.000646609
0.000927529
0.00301019
0.00151725
0.00018314
0.000170773
0.000165921
0.0001639
0.000164408
0.000165908
0.000167706
0.000170487
0.000173744
0.000176684
0.000179325
0.000181571
0.000182621
0.000183703
0.000184169
0.000184255
0.000183846
0.000183171
0.000181998
0.000180546
0.000179423
0.000178607
0.000177622
0.000176262
0.000174344
0.000172752
0.000172016
0.000172405
0.000174569
0.000178727
0.000183331
0.00018557
0.000186673
0.000186763
0.000185998
0.000184013
0.000179479
0.000166071
0.000131254
8.77405e-05
6.73466e-05
6.38373e-05
6.89636e-05
9.1608e-05
0.000207302
0.000293717
0.00030949
0.000318648
0.000325619
0.000344979
0.000388308
0.000382534
0.000376539
0.000374216
0.000371113
0.00041361
0.000647083
0.000927922
0.00300978
0.00160343
0.00029263
0.000236369
0.000223198
0.000221632
0.000224702
0.000228835
0.00023323
0.000237981
0.000242281
0.000245606
0.00024777
0.000248843
0.000248701
0.000247868
0.000246522
0.000244891
0.000242984
0.000241007
0.000238967
0.000237221
0.000235991
0.000235103
0.000234156
0.000233036
0.000231814
0.000231072
0.000231041
0.000231658
0.00023234
0.000232115
0.000230526
0.000227706
0.000223792
0.000218998
0.000213664
0.000208014
0.000202882
0.00019826
0.00019558
0.000185705
0.000170339
0.000165151
0.000167211
0.000189499
0.000256923
0.000295122
0.000312379
0.000319961
0.00033531
0.000443342
0.000451927
0.000427343
0.000410318
0.000396197
0.00038781
0.000418916
0.000646407
0.000928405
0.00301045
0.00137816
0.000521157
0.000448642
0.000388299
0.000363457
0.000353291
0.000349369
0.000346914
0.000344695
0.000342387
0.000339711
0.000336674
0.000333356
0.000329798
0.000326115
0.000322305
0.000318459
0.000314499
0.000310527
0.00030648
0.000302387
0.000298293
0.000294226
0.0002901
0.000285922
0.000281704
0.000277507
0.000273282
0.000268885
0.000264167
0.000259082
0.000253646
0.000247886
0.000241861
0.000235656
0.000229447
0.000223243
0.000218505
0.000216183
0.000215859
0.000216839
0.000219144
0.000223601
0.000231988
0.000246823
0.000266959
0.000296161
0.00031475
0.000328851
0.000464334
0.000539407
0.000525767
0.000509276
0.000496859
0.000486183
0.000478154
0.000480517
0.000631753
0.000925444
0.00301166
0.00111075
0.000526142
0.000503697
0.000504598
0.000484077
0.000457824
0.000434614
0.000416602
0.000403302
0.000393394
0.000385496
0.000378603
0.000372629
0.000367062
0.00036176
0.000356443
0.000351098
0.000345638
0.000340187
0.000334771
0.000329487
0.000324356
0.000319322
0.000314323
0.000309338
0.000304322
0.000299257
0.000294061
0.000288679
0.00028307
0.000277228
0.000271191
0.000265023
0.0002588
0.000252616
0.00024662
0.000240914
0.000235533
0.000230483
0.000227077
0.000225786
0.000227086
0.000230744
0.000234476
0.000243163
0.000269374
0.000303342
0.000326421
0.000461964
0.000603638
0.000603464
0.000599069
0.000596494
0.000593096
0.000592574
0.000588967
0.000590291
0.000612569
0.000893859
0.00301058
0.000937594
0.000487739
0.000466845
0.0004799
0.00048198
0.000497057
0.000504099
0.000510105
0.000511237
0.000507846
0.000500612
0.000491991
0.000482352
0.000472755
0.000463178
0.000453427
0.00044329
0.000432109
0.000419815
0.000406345
0.000392649
0.000379624
0.000367433
0.000356131
0.000345648
0.000336027
0.000327298
0.000319244
0.000311641
0.000304237
0.000296771
0.000289048
0.000280998
0.000272652
0.000264167
0.000255743
0.000247426
0.000240238
0.000235137
0.000232468
0.000232111
0.000232694
0.000231166
0.000231302
0.000243339
0.000273617
0.000315566
0.000542904
0.000711302
0.000712882
0.000712144
0.000709877
0.000709394
0.000706888
0.000707453
0.000704034
0.000706067
0.000701213
0.000819164
0.00299187
0.000774928
0.00044618
0.000420283
0.000423976
0.000421742
0.000429212
0.000433797
0.000441073
0.000447876
0.000454993
0.000459671
0.000464006
0.00046649
0.000468946
0.000470449
0.000472995
0.000476802
0.000482198
0.000489249
0.000497728
0.000506703
0.000514496
0.000520098
0.000522333
0.000520488
0.000513953
0.000502998
0.000488482
0.000471778
0.000453827
0.000435016
0.000414888
0.000392829
0.000368727
0.000343222
0.000317893
0.000295114
0.000276097
0.00026127
0.000250102
0.000241505
0.000233725
0.000229801
0.000232358
0.000249918
0.000305795
0.000732975
0.000924791
0.000928997
0.000927405
0.000927325
0.000924885
0.000925141
0.000922207
0.000923334
0.000919444
0.000922065
0.00091661
0.000941727
0.00288602
0.000433656
0.000403661
0.000367433
0.000362299
0.000356545
0.000355443
0.000355151
0.00035617
0.000358405
0.000361069
0.000364883
0.000368765
0.000373684
0.00037857
0.000384413
0.00039056
0.000397805
0.000405828
0.000415206
0.000425772
0.000437866
0.000451265
0.000466223
0.000482613
0.00050066
0.000520249
0.000541342
0.000563568
0.000586711
0.000610522
0.000634947
0.000659854
0.000685549
0.000712708
0.000742503
0.000776377
0.000815863
0.000864319
0.000924129
0.000998018
0.00108869
0.00119742
0.0013206
0.00146136
0.0016317
0.00175395
0.001804
0.00183331
0.00185132
0.00186655
0.00187099
0.00187959
0.00187749
0.00188379
0.00187859
0.00188478
0.00187755
0.00188468
0.00187362
0.00184771
0.000456702
0.000417879
0.000377739
0.000369663
0.000361526
0.00035915
0.00035777
0.000358035
0.000359895
0.000362314
0.000366131
0.000370152
0.000375359
0.000380668
0.000386945
0.000393493
0.000401178
0.000409779
0.000419847
0.00043124
0.000444248
0.000458676
0.000474746
0.000492309
0.000511455
0.000531879
0.000553563
0.000576292
0.000599939
0.000624255
0.000649143
0.000674425
0.000700299
0.00072727
0.000756355
0.00078899
0.000826648
0.000871667
0.000927525
0.0009962
0.00108024
0.00118165
0.00130007
0.00144146
0.0016189
0.00175677
0.00181224
0.00184203
0.00185944
0.00187355
0.00187726
0.00188514
0.00188281
0.00188869
0.00188351
0.00188942
0.00188237
0.00188911
0.00187599
0.0018228
0.000805186
0.000462526
0.000432422
0.000431063
0.000426103
0.000429786
0.000432109
0.000436819
0.000441938
0.000448792
0.000453714
0.000460135
0.000465186
0.000469282
0.000471417
0.000473241
0.000476303
0.000481392
0.000488591
0.00049727
0.000506239
0.000513396
0.000517265
0.000516499
0.000510446
0.000499099
0.000483463
0.000464644
0.000444084
0.000422884
0.000401618
0.000380052
0.000357977
0.000335117
0.000311608
0.000288918
0.000268633
0.000251858
0.00023872
0.00022879
0.000221203
0.000214582
0.000210758
0.000213299
0.000232169
0.000289415
0.000696427
0.000908287
0.000915813
0.000916285
0.00091875
0.000917306
0.000919817
0.000916762
0.000920048
0.000915306
0.000919878
0.000912963
0.000940946
0.00286815
0.00101333
0.000506971
0.000481189
0.000488088
0.000486698
0.000496644
0.000500863
0.000505709
0.000506966
0.000506026
0.000500205
0.000493069
0.000483605
0.000473227
0.000462516
0.00045144
0.000439714
0.000426572
0.000411828
0.000395615
0.000379281
0.000364133
0.000350576
0.000338529
0.000327692
0.000317905
0.000308807
0.000300127
0.000291734
0.00028353
0.000275385
0.000267152
0.000258808
0.000250378
0.000241995
0.000233833
0.000225963
0.000219043
0.000213838
0.000210652
0.000209784
0.000210511
0.000209914
0.000212078
0.000227141
0.000262058
0.000308989
0.000536946
0.000697051
0.000700853
0.000702924
0.000702105
0.000703896
0.000701712
0.000704081
0.000700486
0.000703847
0.000698787
0.000822784
0.002988
0.00119038
0.000544952
0.000518204
0.000515176
0.000493801
0.000466052
0.000439702
0.000417719
0.000401135
0.000388373
0.000378327
0.000369503
0.000361961
0.000354872
0.000348436
0.000341909
0.00033517
0.000328259
0.000321374
0.000314562
0.000307947
0.000301558
0.000295393
0.000289394
0.000283509
0.000277675
0.000271855
0.00026603
0.000260196
0.000254304
0.000248254
0.000241898
0.000235144
0.000227995
0.000220577
0.000213025
0.000205426
0.000197753
0.000189732
0.000185353
0.000187285
0.00019493
0.000205905
0.000215049
0.000228205
0.000259414
0.000298257
0.000324569
0.000433516
0.000581336
0.000588321
0.000587922
0.000589663
0.000587842
0.000589952
0.000586872
0.000589752
0.000616175
0.000898851
0.00300872
0.00137074
0.00053678
0.000464404
0.000400457
0.00037208
0.000354595
0.000343837
0.000335214
0.000327768
0.000321254
0.000315338
0.000309941
0.000304982
0.000300246
0.000295706
0.00029115
0.000286244
0.000281037
0.00027571
0.000270252
0.000264793
0.000259413
0.000254223
0.000249259
0.000244473
0.000239679
0.000234802
0.000229913
0.000225064
0.00022033
0.000215698
0.000210946
0.000205815
0.000200027
0.000193593
0.000186738
0.000179767
0.000173046
0.000167063
0.000163125
0.000167406
0.000178765
0.000194043
0.000209259
0.000228786
0.000257113
0.000291772
0.000317034
0.000327457
0.000366655
0.000462459
0.000468318
0.000470521
0.000469937
0.000471537
0.000469658
0.000479814
0.000636151
0.000925631
0.00301159
0.00152809
0.000353507
0.000285841
0.000264618
0.000259591
0.000255325
0.000251055
0.000246852
0.000242754
0.000239181
0.000235854
0.000232968
0.00023076
0.000229002
0.000229145
0.000229673
0.000228054
0.000225746
0.000223392
0.000221258
0.000219526
0.000218122
0.000217057
0.000216443
0.000216265
0.00021606
0.000215172
0.000213431
0.000210986
0.000208102
0.000204834
0.000201007
0.000196384
0.000190905
0.000184788
0.000178332
0.000171957
0.000166426
0.000162129
0.000158787
0.000163121
0.000170639
0.00017489
0.000176765
0.000184825
0.000227851
0.000280614
0.00030379
0.000312783
0.000320152
0.000354907
0.000379432
0.00038039
0.000379581
0.000380255
0.000379082
0.000417701
0.000647859
0.000929035
0.00301279
0.00160396
0.000197279
0.000182117
0.000176074
0.000175345
0.000174781
0.000173863
0.000172642
0.000171259
0.000170083
0.000169024
0.000168359
0.000168425
0.000169035
0.000170747
0.000172612
0.000172537
0.000171426
0.000170187
0.000169153
0.00016825
0.00016739
0.000166553
0.000166003
0.000166055
0.000166852
0.000168162
0.000169762
0.000171473
0.00017344
0.000175904
0.00017798
0.00017839
0.000176836
0.00017371
0.000169475
0.000164571
0.000160337
0.000157481
0.000155551
0.000148259
0.000122048
9.63815e-05
8.43824e-05
8.862e-05
0.000143259
0.000263867
0.000289529
0.000300844
0.000308991
0.000323602
0.000367884
0.000370904
0.000369907
0.000370762
0.00036951
0.000413289
0.000648356
0.000928751
0.00301241
0.00134141
0.000167254
0.000155472
0.000149232
0.000149732
0.000150742
0.000151711
0.000152354
0.000152569
0.000152724
0.000152761
0.000152641
0.00015279
0.000152918
0.000154018
0.000154872
0.000154373
0.000152469
0.000150305
0.000148218
0.000146055
0.000143891
0.000141853
0.000140121
0.000138783
0.000137813
0.000137091
0.000136779
0.000136897
0.000137509
0.000138969
0.000141428
0.000144998
0.000149543
0.000153901
0.000156053
0.000156826
0.000156855
0.000153077
0.000133192
9.01649e-05
5.81209e-05
4.52539e-05
4.38313e-05
5.11846e-05
0.00010695
0.000259532
0.0002882
0.000302579
0.000312657
0.00032165
0.0003594
0.000370396
0.000369115
0.000370488
0.000368872
0.000413116
0.000647523
0.000928161
0.00301127
0.000787178
0.000166416
0.000153582
0.000146076
0.000144409
0.000143394
0.000142709
0.000141818
0.000141049
0.00014066
0.000140057
0.00013898
0.000138295
0.000137141
0.000136209
0.000136835
0.000136978
0.000134102
0.000131067
0.000128797
0.000127101
0.000126057
0.000125698
0.000125698
0.000126021
0.000126581
0.000127257
0.000127888
0.000128425
0.000128984
0.000129764
0.000130924
0.000132431
0.000134194
0.000136187
0.000138715
0.000143402
0.000150058
0.000150619
0.000112571
5.50156e-05
3.60772e-05
3.30212e-05
3.56399e-05
4.45643e-05
0.000114394
0.000284608
0.000307906
0.000321085
0.000330418
0.000337403
0.000354537
0.000370178
0.000368573
0.000370468
0.000368545
0.000412983
0.000646906
0.000927793
0.0030105
0.000624058
0.000148342
0.000138804
0.00013383
0.000130017
0.000128274
0.000127253
0.000126302
0.000125942
0.000127102
0.00012755
0.000127363
0.000127344
0.000127625
0.000128042
0.00012881
0.000129356
0.000128852
0.000127014
0.000124224
0.000120216
0.000115204
0.000111105
0.000110759
0.000112522
0.000114145
0.000114489
0.00011374
0.000113441
0.000114358
0.000115645
0.000118632
0.000122544
0.000125811
0.000130332
0.000135701
0.000138191
0.000138922
0.000139539
0.000117385
5.3511e-05
3.34145e-05
3.35787e-05
3.76804e-05
4.9805e-05
0.000165209
0.000326996
0.000344036
0.000354685
0.000362201
0.000367548
0.000371039
0.000370518
0.000368662
0.000370446
0.000368543
0.000412918
0.000646901
0.000927869
0.00301063
0.00064011
0.000160888
0.000143582
0.000137094
0.000137615
0.000138035
0.000138648
0.000139289
0.000140507
0.00014161
0.000142218
0.000142469
0.000142563
0.000142719
0.000142565
0.000141809
0.00014204
0.000143084
0.000143566
0.00014318
0.000141381
0.00013794
0.000135264
0.000134204
0.00013407
0.000134466
0.000134028
0.00013152
0.000127832
0.000124214
0.00012144
0.00012024
0.000121136
0.000124056
0.000130637
0.000140347
0.000147477
0.000152317
0.000156533
0.000138542
6.28757e-05
3.98577e-05
4.12833e-05
4.56842e-05
6.38862e-05
0.00024039
0.000348315
0.000361073
0.000369129
0.000374689
0.000378479
0.000378356
0.000370758
0.000368932
0.000370425
0.000368763
0.000412986
0.000647398
0.000928084
0.00301095
0.000642213
0.000183243
0.000147419
0.000131354
0.000131563
0.000131786
0.000132128
0.000132882
0.000133891
0.000135023
0.000136173
0.000137035
0.000136827
0.000137262
0.000137871
0.000137125
0.000135044
0.000136293
0.000138223
0.000139503
0.000139136
0.000137985
0.000136964
0.000136241
0.000135649
0.000134835
0.000133692
0.000131973
0.000129061
0.000124088
0.000117704
0.000114194
0.000115656
0.000122136
0.000135197
0.000148281
0.000159421
0.00017164
0.000181335
0.000154808
6.61082e-05
4.08804e-05
4.17305e-05
4.61564e-05
7.19825e-05
0.00027827
0.000347657
0.000360745
0.000368732
0.000373984
0.000377409
0.000377088
0.000370681
0.000368924
0.000370432
0.000368773
0.000413027
0.000647533
0.000928237
0.00301159
0.000645098
0.000202771
0.000143185
0.000130077
0.000130904
0.000131278
0.000131811
0.000132819
0.000133887
0.00013509
0.000135436
0.000135513
0.000136769
0.000139678
0.000140497
0.000139591
0.000137005
0.000135627
0.000138812
0.000140695
0.000141463
0.00014196
0.000142817
0.000143696
0.000144824
0.00014634
0.000147751
0.000148479
0.000148369
0.000147624
0.000146158
0.000143038
0.00013816
0.000137077
0.000140737
0.000148276
0.000158337
0.000168271
0.000177304
0.000154297
6.76883e-05
4.0341e-05
4.08177e-05
4.51644e-05
6.60699e-05
0.00025187
0.000342567
0.000355906
0.000364041
0.000369425
0.000373
0.000374057
0.000370581
0.000368921
0.000370436
0.00036872
0.000413056
0.000647517
0.000928408
0.0030121
0.00065195
0.000154783
0.000146146
0.000138966
0.000139925
0.000141662
0.000143325
0.000144773
0.000145943
0.000147192
0.000148533
0.000149324
0.000149719
0.000150039
0.000150437
0.000150675
0.000151388
0.000152667
0.000153964
0.000154691
0.000154761
0.00015418
0.000153756
0.000154215
0.000156044
0.000157752
0.000156769
0.00015465
0.000151817
0.000148963
0.000146591
0.000142899
0.000134959
0.000127397
0.000128755
0.000134923
0.000144249
0.000151409
0.00015435
0.000129895
6.06393e-05
3.82831e-05
3.8646e-05
4.21922e-05
5.53917e-05
0.000185118
0.000327444
0.000343303
0.000353175
0.000360063
0.000364914
0.000368731
0.000370406
0.00036887
0.000370436
0.000368729
0.000413043
0.000647415
0.000928344
0.00301185
0.000605907
0.000173546
0.000164867
0.000152784
0.000157657
0.000156537
0.000156244
0.00015564
0.000154595
0.000153038
0.000152005
0.000151136
0.00015023
0.000149382
0.000148991
0.000147815
0.00014737
0.000147032
0.000146442
0.00014611
0.000145775
0.000144913
0.000143006
0.000140973
0.000137293
0.000133499
0.000130166
0.000126906
0.000124289
0.00012498
0.000129474
0.000135054
0.000141398
0.000148357
0.000154691
0.000162582
0.000173766
0.000183784
0.000175098
0.000126993
6.39094e-05
3.87894e-05
3.63696e-05
3.83884e-05
4.57948e-05
0.000115688
0.000289236
0.000308764
0.000321066
0.000330537
0.000337842
0.000348772
0.000369507
0.000369026
0.000370419
0.000368877
0.00041301
0.00064743
0.000927784
0.0030106
0.000551398
0.000189893
0.000186092
0.000179246
0.00017145
0.000165073
0.000159493
0.000154603
0.000150185
0.000146222
0.000143455
0.000142117
0.000142055
0.000143756
0.000148165
0.000152327
0.000151667
0.000149484
0.000146337
0.000143126
0.000140301
0.000137259
0.000132362
0.000129459
0.000131556
0.00013412
0.000132965
0.000129936
0.000132024
0.000138785
0.000148604
0.000156814
0.000163658
0.000170407
0.000177953
0.000187155
0.000192331
0.00018922
0.000175576
0.000139374
7.45558e-05
4.58957e-05
3.77775e-05
3.8245e-05
4.44159e-05
9.67123e-05
0.000251068
0.000272289
0.000284167
0.000293459
0.000301193
0.000333254
0.000369703
0.00036917
0.000370412
0.000369063
0.000413032
0.000647951
0.000928016
0.00301063
0.00079007
0.000190718
0.000180125
0.000171954
0.000164951
0.000159086
0.000153864
0.000149782
0.000146101
0.000143566
0.000141991
0.000141303
0.000140945
0.00014193
0.000145131
0.000148676
0.000148732
0.000147
0.000144663
0.000142341
0.000139922
0.000136968
0.000134048
0.000133256
0.000134162
0.000135922
0.000136971
0.000137057
0.000135836
0.000139735
0.00015003
0.0001658
0.000172607
0.000172919
0.000173162
0.00017213
0.000170169
0.000157807
0.000125373
9.25467e-05
6.69692e-05
5.45364e-05
4.53769e-05
4.47649e-05
5.07104e-05
9.94447e-05
0.000240263
0.00026375
0.000276805
0.000287259
0.000296308
0.000335829
0.000369786
0.000369287
0.000370411
0.000369028
0.00041298
0.000647434
0.000927636
0.0030109