/*--------------------------------*- C++ -*----------------------------------*\
| =========                 |                                                 |
| \\      /  F ield         | OpenFOAM: The Open Source CFD Toolbox           |
|  \\    /   O peration     | Version:  2.1.1                                 |
|   \\  /    A nd           | Web:      www.OpenFOAM.org                      |
|    \\/     M anipulation  |                                                 |
\*---------------------------------------------------------------------------*/
FoamFile
{
    version     2.0;
    format      ascii;
    class       volVectorField;
    location    "0.001";
    object      U;
}
// * * * * * * * * * * * * * * * * * * * * * * * * * * * * * * * * * * * * * //

dimensions      [0 1 -1 0 0 0 0];

internalField   nonuniform List<vector> 
36520
(
(-1.04995 -1.41803 -0.57613)
(-0.986269 -0.246552 0.0486961)
(-2.43446 -0.14589 0.166376)
(-2.76407 0.236505 0.127496)
(-3.32826 0.325487 0.107092)
(-3.57555 0.417575 0.0822168)
(-3.82274 0.421473 0.0655026)
(-4.019 0.43613 0.0549575)
(-4.14541 0.400949 0.0423942)
(-4.26491 0.394675 0.0318583)
(-4.31469 0.364979 0.022009)
(-4.377 0.374347 0.0207369)
(-4.39441 0.383824 0.0177663)
(-4.44295 0.424667 0.0228487)
(-4.47755 0.480073 0.0322352)
(-4.57253 0.55944 0.0468891)
(-4.70343 0.645191 0.0622522)
(-4.90493 0.726229 0.0780629)
(-5.15027 0.786766 0.091608)
(-5.44373 0.815479 0.100517)
(-5.7404 0.805497 0.102449)
(-6.02976 0.759635 0.0993432)
(-6.27809 0.685882 0.092101)
(-6.48471 0.60383 0.0831335)
(-6.64824 0.530177 0.0760571)
(-6.79286 0.469198 0.0721511)
(-6.92038 0.421317 0.0690392)
(-7.03177 0.387146 0.0639459)
(-7.12533 0.371511 0.0597052)
(-7.21209 0.376722 0.0578655)
(-7.2944 0.407103 0.0606407)
(-7.39092 0.465643 0.070356)
(-7.52225 0.549974 0.0906945)
(-7.71933 0.657013 0.122369)
(-8.01785 0.769194 0.165293)
(-8.46388 0.867413 0.222199)
(-9.10379 0.920285 0.290935)
(-9.97298 0.898243 0.366865)
(-11.0947 0.749932 0.434557)
(-12.3949 0.380712 0.471962)
(-13.5834 -0.331525 0.407334)
(-14.3207 -1.35433 0.246536)
(-14.2974 -2.61679 0.0316065)
(-13.2235 -4.01106 -0.261233)
(-10.6941 -5.3037 -0.574385)
(-7.37729 -5.80318 -0.741146)
(-4.25614 -5.23159 -0.555837)
(-2.3372 -4.33473 -0.368666)
(-1.01231 -3.38604 -0.217366)
(-0.531787 -2.59618 -0.122433)
(-0.0357999 -1.95747 -0.064046)
(-0.0871665 -1.48524 -0.0290103)
(0.196711 -1.10712 -0.00994853)
(-0.0451351 -0.850741 0.00137256)
(0.238285 -0.633558 0.00684916)
(-0.0990815 -0.503551 0.0107514)
(0.24325 -0.38369 0.0108831)
(-0.17089 -0.326988 0.0132867)
(0.248648 -0.273396 0.0117638)
(-0.234504 -0.254425 0.0133846)
(-2.54985 -1.35532 -0.316778)
(-3.05954 0.0156468 0.206195)
(-4.24422 -0.000416785 0.329243)
(-4.57493 0.378334 0.24111)
(-5.07029 0.36381 0.212353)
(-5.29426 0.461332 0.136088)
(-5.54492 0.417513 0.121124)
(-5.71787 0.422327 0.0821853)
(-5.84636 0.367398 0.0627398)
(-5.95079 0.345967 0.0345259)
(-6.00057 0.302644 0.0225228)
(-6.05195 0.298121 0.0134995)
(-6.06204 0.298576 0.0191521)
(-6.11672 0.323291 0.0287186)
(-6.13397 0.370603 0.0571034)
(-6.23164 0.431958 0.0940562)
(-6.34786 0.509316 0.134872)
(-6.54565 0.573103 0.175417)
(-6.77289 0.625004 0.211)
(-7.05776 0.639462 0.234179)
(-7.33454 0.620171 0.238841)
(-7.60859 0.562211 0.230139)
(-7.83096 0.479089 0.209831)
(-8.01184 0.386295 0.183195)
(-8.13878 0.305024 0.16166)
(-8.24741 0.238181 0.150453)
(-8.33699 0.186345 0.140419)
(-8.41251 0.147537 0.126349)
(-8.4658 0.126218 0.115796)
(-8.51015 0.12476 0.112427)
(-8.54604 0.149091 0.121341)
(-8.59287 0.201772 0.151953)
(-8.67303 0.280178 0.215653)
(-8.81774 0.380082 0.318787)
(-9.0582 0.488129 0.462965)
(-9.44256 0.589471 0.647973)
(-10.0143 0.649485 0.863242)
(-10.814 0.638673 1.08394)
(-11.865 0.513342 1.27396)
(-13.11 0.172568 1.33497)
(-14.263 -0.568767 1.10315)
(-14.9413 -1.67063 0.607326)
(-14.8517 -3.0154 -0.0567265)
(-13.7537 -4.58003 -0.944169)
(-11.0787 -6.02299 -1.85312)
(-7.41482 -6.53022 -2.33231)
(-4.08456 -5.73149 -1.75223)
(-2.17155 -4.66233 -1.17004)
(-0.872166 -3.59606 -0.713322)
(-0.451093 -2.73562 -0.429154)
(0.0323015 -2.05187 -0.249837)
(-0.0608156 -1.55109 -0.14998)
(0.232109 -1.15044 -0.0860538)
(-0.0442922 -0.881594 -0.050751)
(0.263811 -0.653632 -0.0295879)
(-0.112146 -0.517178 -0.0172224)
(0.268145 -0.39231 -0.0118492)
(-0.193092 -0.333863 -0.00649789)
(0.276727 -0.278574 -0.00665202)
(-0.264391 -0.258843 -0.00389952)
(-2.9738 -1.21819 0.0916596)
(-3.52441 0.103383 0.435714)
(-4.71101 0.0683946 0.53241)
(-5.04258 0.411922 0.396161)
(-5.4626 0.36295 0.34853)
(-5.66467 0.477762 0.252552)
(-5.89498 0.404322 0.212377)
(-6.05742 0.418621 0.166677)
(-6.17902 0.357346 0.120413)
(-6.27893 0.329484 0.0853542)
(-6.326 0.289569 0.0558093)
(-6.36515 0.279898 0.0379692)
(-6.37071 0.291506 0.0430391)
(-6.41833 0.315216 0.0561196)
(-6.42165 0.374877 0.0984999)
(-6.51249 0.442925 0.157468)
(-6.61464 0.533989 0.222831)
(-6.80398 0.607984 0.28848)
(-7.01728 0.672403 0.348649)
(-7.29519 0.694133 0.389586)
(-7.55746 0.676821 0.39752)
(-7.81963 0.614 0.382908)
(-8.02594 0.522175 0.344846)
(-8.18882 0.420944 0.295502)
(-8.294 0.33719 0.253704)
(-8.38559 0.272858 0.230877)
(-8.46459 0.224374 0.214486)
(-8.53066 0.185345 0.186838)
(-8.57165 0.161628 0.162813)
(-8.60229 0.159272 0.151783)
(-8.62104 0.181874 0.15426)
(-8.6447 0.237558 0.18664)
(-8.69743 0.32594 0.27189)
(-8.80829 0.447691 0.414419)
(-9.00465 0.591905 0.625072)
(-9.33129 0.746917 0.905095)
(-9.82688 0.875106 1.23825)
(-10.5271 0.951881 1.58335)
(-11.4665 0.932498 1.87675)
(-12.6284 0.709919 1.95742)
(-13.7312 -0.00833669 1.57493)
(-14.4206 -1.22597 0.782856)
(-14.5193 -2.80412 -0.257286)
(-13.8428 -4.69298 -1.57078)
(-11.5767 -6.64164 -3.14726)
(-7.42676 -7.35622 -3.9126)
(-3.74738 -6.24491 -2.91983)
(-1.83527 -4.92428 -1.90901)
(-0.634489 -3.7274 -1.15927)
(-0.297247 -2.8023 -0.695102)
(0.125156 -2.08711 -0.405274)
(-0.00365297 -1.56957 -0.242739)
(0.267892 -1.15844 -0.134369)
(-0.0221384 -0.886678 -0.0763146)
(0.277338 -0.655648 -0.0388722)
(-0.104267 -0.519266 -0.0188027)
(0.27364 -0.393419 -0.00705716)
(-0.191153 -0.334803 -0.000333036)
(0.279362 -0.27913 0.00203016)
(-0.265033 -0.259361 0.0049215)
(-3.10351 -1.23776 0.578193)
(-3.63214 0.166192 0.623602)
(-4.84598 0.157428 0.678072)
(-5.17669 0.48081 0.498962)
(-5.56823 0.414965 0.446187)
(-5.75841 0.51725 0.31986)
(-5.99118 0.454232 0.292489)
(-6.14639 0.450612 0.213586)
(-6.26989 0.391074 0.166236)
(-6.36192 0.35305 0.119291)
(-6.40358 0.308849 0.0802367)
(-6.42803 0.292849 0.0521998)
(-6.42205 0.312228 0.0584082)
(-6.44494 0.340577 0.0755232)
(-6.43023 0.412902 0.134025)
(-6.49992 0.494226 0.217501)
(-6.58555 0.602079 0.30532)
(-6.75887 0.691039 0.390967)
(-6.95858 0.769741 0.468029)
(-7.22727 0.800009 0.520296)
(-7.47817 0.781957 0.518416)
(-7.72398 0.715778 0.48783)
(-7.90746 0.617932 0.427897)
(-8.04071 0.50703 0.345575)
(-8.11107 0.417085 0.272499)
(-8.16763 0.356405 0.233706)
(-8.21988 0.313316 0.204364)
(-8.25672 0.275706 0.15337)
(-8.2715 0.251465 0.10683)
(-8.27583 0.244559 0.0781317)
(-8.26679 0.263678 0.0711643)
(-8.24928 0.320749 0.114583)
(-8.24625 0.42189 0.229418)
(-8.28003 0.572655 0.412608)
(-8.37026 0.768922 0.684301)
(-8.55846 1.00755 1.04148)
(-8.86995 1.24078 1.46161)
(-9.32049 1.42846 1.87729)
(-9.93261 1.53797 2.19474)
(-10.6945 1.45032 2.21248)
(-11.3051 0.708137 1.63895)
(-11.7167 -0.702437 0.637544)
(-12.0542 -2.43574 -0.550059)
(-12.2709 -4.62013 -2.10814)
(-11.4618 -7.33434 -4.29804)
(-7.46341 -8.76099 -5.60465)
(-3.2217 -7.0866 -4.08504)
(-1.31466 -5.31116 -2.57161)
(-0.280796 -3.91783 -1.55719)
(-0.0727473 -2.90237 -0.935668)
(0.260936 -2.13446 -0.552345)
(0.0821538 -1.59344 -0.329507)
(0.319685 -1.16721 -0.186323)
(0.0105006 -0.890767 -0.109358)
(0.295962 -0.654645 -0.0591581)
(-0.0924192 -0.517826 -0.0330659)
(0.280029 -0.389716 -0.0167934)
(-0.187421 -0.331242 -0.00826425)
(0.281307 -0.274741 -0.00434747)
(-0.264115 -0.255989 -0.00100379)
(-3.03222 -0.862681 1.14461)
(-3.69882 0.418806 0.805623)
(-4.9231 0.248808 0.918112)
(-5.30142 0.533064 0.649527)
(-5.65198 0.465835 0.6045)
(-5.82342 0.557208 0.4604)
(-6.04051 0.495563 0.424037)
(-6.17505 0.479221 0.317227)
(-6.28083 0.410576 0.246805)
(-6.35317 0.365398 0.181621)
(-6.37378 0.319382 0.111301)
(-6.37832 0.299217 0.068707)
(-6.33939 0.333373 0.053733)
(-6.3304 0.377327 0.0642483)
(-6.27948 0.471077 0.121354)
(-6.31763 0.580836 0.227165)
(-6.37365 0.711857 0.33281)
(-6.51019 0.826583 0.441469)
(-6.664 0.930793 0.547154)
(-6.88261 0.982745 0.620651)
(-7.06768 0.972765 0.619007)
(-7.22315 0.901618 0.581992)
(-7.29955 0.78553 0.501561)
(-7.3104 0.655226 0.387369)
(-7.25 0.560227 0.29222)
(-7.19188 0.50584 0.232338)
(-7.14246 0.465544 0.18578)
(-7.08806 0.418543 0.105993)
(-7.03141 0.385422 0.0162219)
(-6.98894 0.373922 -0.0454136)
(-6.94089 0.390336 -0.0693622)
(-6.88314 0.457088 -0.0462103)
(-6.82638 0.58473 0.0511397)
(-6.76162 0.785414 0.241695)
(-6.69172 1.05098 0.52679)
(-6.6409 1.38129 0.929786)
(-6.59291 1.72365 1.40521)
(-6.48673 2.00553 1.84325)
(-6.21056 2.22272 2.16677)
(-5.74037 2.23586 2.08319)
(-4.88785 1.44735 1.3442)
(-4.37354 -0.0304087 0.295227)
(-4.82851 -1.65184 -0.638844)
(-6.33703 -3.91317 -2.24516)
(-8.1919 -7.40641 -5.01896)
(-7.31499 -10.3065 -7.06085)
(-2.45656 -8.30883 -5.24738)
(-0.590302 -5.79807 -3.10403)
(0.17711 -4.16432 -1.87156)
(0.215184 -3.02453 -1.12032)
(0.437043 -2.1926 -0.659109)
(0.192765 -1.62357 -0.392092)
(0.38608 -1.17971 -0.222559)
(0.0528215 -0.897804 -0.131376)
(0.320399 -0.656228 -0.0709797)
(-0.0763271 -0.518843 -0.040172)
(0.288954 -0.388479 -0.0195822)
(-0.181808 -0.331 -0.0095787)
(0.284128 -0.27337 -0.00377465)
(-0.263099 -0.255269 -0.000788921)
(-3.42551 -0.828707 1.1389)
(-3.96321 0.459196 0.981162)
(-5.02409 0.38386 1.06156)
(-5.35259 0.683349 0.754954)
(-5.65704 0.58665 0.693472)
(-5.80043 0.670318 0.54917)
(-6.00381 0.61886 0.528052)
(-6.11391 0.5739 0.395095)
(-6.18949 0.512532 0.311957)
(-6.23181 0.449655 0.250084)
(-6.21276 0.398567 0.176019)
(-6.16865 0.379642 0.124093)
(-6.08918 0.444879 0.102503)
(-6.01151 0.51767 0.10161)
(-5.90186 0.635571 0.17469)
(-5.86483 0.774323 0.325256)
(-5.85747 0.934237 0.447654)
(-5.87359 1.07308 0.559963)
(-5.87964 1.18628 0.649548)
(-5.90866 1.24573 0.709223)
(-5.85251 1.22235 0.659845)
(-5.70256 1.12003 0.545762)
(-5.39912 0.952788 0.399842)
(-5.01079 0.762817 0.208703)
(-4.57795 0.625364 0.0361647)
(-4.20042 0.555282 -0.09142)
(-3.83851 0.503882 -0.152395)
(-3.48616 0.41586 -0.254031)
(-3.2421 0.327702 -0.364469)
(-3.08626 0.276307 -0.44973)
(-2.98753 0.253114 -0.497413)
(-2.87319 0.285854 -0.494163)
(-2.70935 0.382662 -0.41703)
(-2.48122 0.560289 -0.244265)
(-2.15464 0.823022 0.0352762)
(-1.7142 1.16616 0.463619)
(-1.05856 1.52961 0.957942)
(-0.111529 1.78165 1.38023)
(1.06239 1.89961 1.65848)
(2.48634 1.81815 1.46535)
(4.21462 1.05114 0.721843)
(5.09483 -0.107491 0.0236552)
(4.85618 -1.25119 -0.636915)
(3.31884 -2.92143 -2.01691)
(0.167465 -6.72112 -5.26883)
(-4.7288 -11.1657 -7.98744)
(-1.41731 -9.7379 -6.27972)
(0.377106 -6.37463 -3.5008)
(0.729635 -4.43638 -2.07388)
(0.562197 -3.15663 -1.22971)
(0.646273 -2.25534 -0.721985)
(0.322869 -1.65682 -0.430094)
(0.464232 -1.19322 -0.245728)
(0.102325 -0.905646 -0.146602)
(0.349147 -0.656318 -0.0803001)
(-0.057451 -0.519404 -0.0468397)
(0.299374 -0.385576 -0.023869)
(-0.175246 -0.329503 -0.0129992)
(0.287245 -0.270146 -0.00609803)
(-0.262074 -0.253238 -0.00353929)
(-3.27104 1.69836 2.14983)
(-4.09844 1.20744 1.09931)
(-4.93034 0.704671 1.32485)
(-5.32779 0.757106 0.928559)
(-5.50285 0.63096 0.896486)
(-5.59736 0.699513 0.732772)
(-5.74542 0.666008 0.683718)
(-5.81039 0.630068 0.487577)
(-5.77535 0.567329 0.358556)
(-5.73656 0.507068 0.234064)
(-5.61355 0.459099 0.113651)
(-5.45606 0.441833 0.0221335)
(-5.28341 0.503309 -0.056227)
(-5.06792 0.576936 -0.116376)
(-4.82475 0.709369 -0.0641254)
(-4.62487 0.900793 0.0892526)
(-4.4349 1.089 0.207314)
(-4.20233 1.2661 0.318819)
(-3.89311 1.42383 0.409915)
(-3.48923 1.51149 0.448551)
(-2.88988 1.49442 0.361041)
(-2.22847 1.40822 0.235019)
(-1.41828 1.20585 0.121878)
(-0.508109 0.926163 -0.00939353)
(0.404019 0.688659 -0.127339)
(1.13805 0.595564 -0.222587)
(1.76562 0.565955 -0.296936)
(2.36923 0.490747 -0.39295)
(2.82887 0.401407 -0.516077)
(3.1453 0.316221 -0.628672)
(3.30239 0.221329 -0.695281)
(3.38633 0.172076 -0.711869)
(3.47605 0.18728 -0.616881)
(3.65093 0.297791 -0.396298)
(4.05985 0.483755 -0.0616819)
(4.70708 0.70744 0.392353)
(5.62574 0.963388 0.825555)
(6.92798 1.16024 1.12253)
(8.42855 1.309 1.27867)
(10.1955 1.27687 1.04757)
(12.1372 0.740923 0.401262)
(13.2226 -0.120787 -0.260681)
(13.6607 -1.02342 -1.09605)
(13.2812 -2.30916 -2.24475)
(11.4283 -4.71195 -4.08323)
(3.38235 -9.85927 -7.09731)
(0.160188 -10.9085 -6.72312)
(1.58083 -6.95862 -3.69663)
(1.38542 -4.69306 -2.12739)
(0.957046 -3.28253 -1.25186)
(0.883116 -2.31585 -0.733526)
(0.469856 -1.68691 -0.437462)
(0.553274 -1.20537 -0.250254)
(0.15922 -0.910443 -0.150283)
(0.382848 -0.656569 -0.0816523)
(-0.0351325 -0.519087 -0.0484259)
(0.31209 -0.383059 -0.0239806)
(-0.167118 -0.328562 -0.0131983)
(0.291149 -0.267708 -0.00541339)
(-0.261133 -0.251893 -0.00342736)
(-4.12843 -0.87763 0.950346)
(-4.37746 0.193444 0.73291)
(-4.45866 0.565856 1.33402)
(-4.60182 0.886459 1.04624)
(-4.42703 0.842901 0.972042)
(-4.35074 0.894929 0.900872)
(-4.2542 0.870774 0.926987)
(-4.14225 0.735208 0.565225)
(-3.86779 0.568558 0.374394)
(-3.58175 0.433068 0.28482)
(-3.21836 0.265894 0.152248)
(-2.80603 0.227705 0.0491807)
(-2.36584 0.343375 -0.0586953)
(-1.85195 0.523605 -0.20342)
(-1.36644 0.781366 -0.152623)
(-0.875852 1.084 0.12699)
(-0.257304 1.33012 0.310799)
(0.417687 1.53845 0.359378)
(1.15696 1.72419 0.389877)
(1.98449 1.83864 0.38967)
(3.00363 1.80112 0.24747)
(3.98262 1.60685 -0.00187239)
(5.00593 1.33013 -0.259529)
(6.06081 1.05083 -0.500495)
(7.02647 0.780502 -0.659047)
(7.76644 0.602865 -0.681126)
(8.38237 0.490362 -0.714031)
(8.90074 0.363789 -0.76821)
(9.22357 0.269889 -0.83353)
(9.33075 0.214537 -0.906855)
(9.30089 0.139866 -0.989679)
(9.15897 0.0568966 -1.1027)
(8.95551 0.0664188 -1.1556)
(8.87182 0.154897 -1.13192)
(8.97123 0.338877 -1.0402)
(9.38815 0.687017 -0.732853)
(10.1204 1.05476 -0.0703831)
(11.119 1.23832 0.778)
(12.3151 0.98144 1.2107)
(15.2204 0.227915 0.58751)
(17.8604 -0.358374 -0.173559)
(19.065 -0.676509 -0.664927)
(19.3672 -1.04357 -1.13481)
(18.8872 -1.70098 -1.64502)
(17.3542 -3.11734 -2.55512)
(11.1757 -7.28109 -4.79513)
(2.7783 -11.3124 -6.09266)
(2.92923 -7.46834 -3.63541)
(2.11641 -4.89304 -2.06217)
(1.39582 -3.37065 -1.20864)
(1.15029 -2.35033 -0.708102)
(0.637924 -1.69772 -0.42309)
(0.657557 -1.204 -0.242594)
(0.226391 -0.904703 -0.146712)
(0.424013 -0.649114 -0.081324)
(-0.00833166 -0.512082 -0.0503402)
(0.328576 -0.375674 -0.0268517)
(-0.157588 -0.322999 -0.017144)
(0.297009 -0.261347 -0.00971676)
(-0.260917 -0.246877 -0.0078895)
(-3.69726 19.1746 4.02795)
(-4.53433 4.93303 1.11247)
(-3.67885 1.6264 1.95133)
(-2.99287 0.631544 1.38324)
(-1.77126 -0.135009 1.34961)
(-0.789734 -0.335654 1.08195)
(0.700735 -0.352684 0.950946)
(2.08599 -0.323045 0.735308)
(2.67301 -0.219652 0.533215)
(3.32221 -0.120975 0.367249)
(3.73023 -0.172205 0.211636)
(3.90284 -0.143813 0.0540792)
(4.17269 0.0181063 -0.123787)
(4.69047 0.0944321 -0.283043)
(5.02048 0.145139 -0.316688)
(5.58934 0.225669 -0.232021)
(6.76596 0.271037 -0.136803)
(8.23351 0.309486 -0.0895648)
(9.8369 0.321344 -0.0758466)
(11.5716 0.342953 -0.126173)
(13.5091 0.301576 -0.211784)
(15.1263 0.171612 -0.293451)
(16.4357 0.148181 -0.408989)
(17.3945 0.193071 -0.53743)
(17.9514 0.213027 -0.579559)
(18.273 0.210077 -0.517567)
(18.5134 0.184465 -0.478913)
(18.6106 0.190288 -0.462963)
(18.5986 0.204312 -0.44803)
(18.4605 0.192823 -0.432782)
(18.1261 0.222145 -0.455127)
(17.8059 0.331181 -0.5486)
(17.6554 0.360487 -0.635478)
(17.6221 0.297645 -0.616436)
(17.5751 0.150193 -0.431446)
(17.5019 0.0394307 -0.0843698)
(17.6263 0.0738297 0.439712)
(18.3256 0.166373 0.856495)
(20.4247 0.264621 0.49096)
(22.8758 0.161979 -0.261553)
(23.2388 -0.221692 -0.298997)
(22.9758 -0.503032 -0.290715)
(22.1713 -0.999426 -0.553614)
(20.9896 -1.71915 -1.03571)
(19.2758 -2.92893 -1.79737)
(13.9426 -6.82447 -3.67066)
(5.47235 -11.3665 -4.79298)
(4.27249 -7.95327 -3.07364)
(2.8109 -5.18853 -1.72514)
(1.7758 -3.55454 -1.00249)
(1.36 -2.4602 -0.58333)
(0.758087 -1.76359 -0.348714)
(0.726509 -1.24179 -0.202175)
(0.265219 -0.926494 -0.124086)
(0.445912 -0.661216 -0.0681673)
(0.00358198 -0.519107 -0.0427967)
(0.335798 -0.378891 -0.0224277)
(-0.154694 -0.32516 -0.0148937)
(0.299405 -0.261812 -0.00790807)
(-0.261691 -0.247289 -0.00712074)
(-2.79817 19.7898 7.42376)
(-4.05605 4.78373 2.73775)
(-2.77709 1.71515 2.1014)
(-0.709922 1.28029 1.03312)
(1.88674 0.563418 0.963621)
(4.41548 0.100431 0.753963)
(6.56219 -0.0608059 0.465946)
(8.49314 -0.0805565 0.362163)
(9.95526 -0.0861349 0.33459)
(10.8995 -0.0111769 0.281436)
(11.4002 -0.0147797 0.22164)
(11.6855 -0.0916351 0.0625483)
(11.6177 -0.0357389 -0.144765)
(11.4139 -0.0122654 -0.383132)
(11.0731 0.0910626 -0.435116)
(11.0396 0.13036 -0.406417)
(11.521 0.107059 -0.366678)
(12.5903 0.111041 -0.371918)
(13.8897 0.116232 -0.339249)
(15.3045 0.137038 -0.31675)
(16.7088 0.103753 -0.349415)
(17.856 0.0275103 -0.39186)
(18.7851 0.013413 -0.435207)
(19.4222 0.0242294 -0.48115)
(19.7528 0.0437066 -0.484211)
(20.0063 0.0807927 -0.428014)
(20.202 0.0590047 -0.392152)
(20.278 0.0871817 -0.368841)
(20.3494 0.0595784 -0.354922)
(20.361 0.0367922 -0.326783)
(20.2626 0.122908 -0.295361)
(19.9355 0.17689 -0.488951)
(19.5137 0.17786 -0.82157)
(19.329 0.173765 -0.848514)
(19.3655 0.114412 -0.672147)
(19.8529 0.0110256 -0.26757)
(21.4899 -0.122511 0.353076)
(24.1163 -0.212849 0.568732)
(25.8445 -0.135058 0.187383)
(25.8441 -0.0139805 0.0438749)
(25.1073 -0.0534594 0.0068708)
(23.4295 -0.539308 -0.143364)
(22.388 -1.00566 -0.325624)
(21.2195 -1.66312 -0.666309)
(19.564 -2.83881 -1.26747)
(14.4488 -6.86252 -3.00765)
(6.03282 -11.4632 -3.83423)
(4.57528 -8.17808 -2.32767)
(2.98179 -5.36469 -1.26898)
(1.8647 -3.67437 -0.733938)
(1.40088 -2.54122 -0.427656)
(0.77149 -1.81957 -0.256514)
(0.728557 -1.28186 -0.149909)
(0.262833 -0.955507 -0.0923874)
(0.443313 -0.682641 -0.0505691)
(-0.00145742 -0.535137 -0.0311965)
(0.332522 -0.391281 -0.015134)
(-0.158046 -0.335067 -0.00926264)
(0.297796 -0.270164 -0.00348761)
(-0.262317 -0.254533 -0.00251704)
(-2.30565 13.2491 5.17403)
(-3.23705 1.70025 2.45686)
(1.68016 -0.470045 1.47862)
(4.21802 -0.248393 0.243211)
(6.23561 -0.147111 0.058667)
(8.29018 -0.0319596 0.0139301)
(10.5865 0.0387797 0.0722296)
(12.328 -0.0100199 0.114726)
(13.132 -0.0672754 0.202298)
(13.7314 -0.0705829 0.250435)
(14.091 -0.150721 0.225732)
(14.0288 -0.188449 0.191896)
(13.7455 -0.216534 0.138136)
(12.9038 -0.190709 0.080041)
(11.4869 -0.0820835 0.0191838)
(10.0447 0.140376 -0.170729)
(9.59662 0.321752 -0.445738)
(10.0813 0.423218 -0.607406)
(11.4152 0.455991 -0.633159)
(13.254 0.431536 -0.582586)
(15.3625 0.302962 -0.531096)
(17.4716 0.159906 -0.446614)
(19.1063 0.0785439 -0.373285)
(20.1175 0.0121513 -0.320994)
(20.6177 -0.0142972 -0.278653)
(20.9046 -0.00530934 -0.234404)
(21.0456 0.00222146 -0.190611)
(21.073 0.0329206 -0.179714)
(21.0843 0.0236943 -0.185098)
(21.1368 -0.0248238 -0.227786)
(21.1181 -0.00449477 -0.255781)
(20.8052 -0.00750934 -0.273077)
(19.4317 -0.0243555 -0.327146)
(17.1983 0.101898 -0.418612)
(15.918 0.375168 -0.475292)
(15.9095 0.614848 -0.550437)
(17.2054 0.950316 -0.396151)
(21.3354 0.988053 0.547952)
(24.6425 0.36746 0.874708)
(25.0976 -0.137027 0.678567)
(24.7576 -0.263068 0.660095)
(23.5206 -0.560988 0.296623)
(22.5755 -0.980686 0.0519241)
(21.6236 -1.56151 -0.162921)
(20.3387 -2.58152 -0.493668)
(16.7963 -5.67306 -1.58862)
(7.74594 -11.0748 -2.65173)
(5.10012 -8.2646 -1.56881)
(3.19116 -5.50864 -0.799809)
(1.94644 -3.76891 -0.443494)
(1.43421 -2.60301 -0.250226)
(0.784317 -1.86103 -0.143642)
(0.731628 -1.31086 -0.0762865)
(0.259823 -0.975625 -0.0417825)
(0.438769 -0.696848 -0.0192264)
(-0.00591228 -0.545192 -0.00938396)
(0.328702 -0.398912 -0.0011968)
(-0.1604 -0.340801 0.00140836)
(0.29555 -0.274667 0.00459399)
(-0.261988 -0.258598 0.00477743)
(-2.95417 1.83582 5.2834)
(-2.22199 -0.455019 2.18579)
(0.273734 -0.189709 -0.426178)
(-1.0116 0.577136 -0.546916)
(0.240516 1.12391 0.0564595)
(0.652876 1.43344 0.148644)
(1.84544 1.22141 0.176384)
(3.2465 0.760148 0.305869)
(4.62177 0.418062 0.409182)
(5.92137 0.174207 0.384088)
(7.06333 -0.0951027 0.35565)
(7.69284 -0.283271 0.342538)
(7.95258 -0.472493 0.426687)
(7.86638 -0.680491 0.516686)
(7.49178 -0.912458 0.415343)
(7.1327 -0.759866 0.0269792)
(7.03846 -0.109755 -0.407661)
(7.37247 0.495967 -0.634582)
(8.10774 0.916319 -0.691154)
(9.17341 1.1477 -0.707328)
(10.3483 1.1015 -0.787919)
(11.5525 0.824164 -0.824032)
(12.5088 0.501758 -0.729378)
(13.2154 0.251421 -0.587703)
(13.7878 0.122977 -0.459185)
(14.192 0.121358 -0.326137)
(14.3808 0.151702 -0.212262)
(14.3664 0.157186 -0.180898)
(14.3388 0.112734 -0.182442)
(14.3528 -0.00485181 -0.212176)
(14.3599 -0.147601 -0.130225)
(14.2718 -0.301173 0.194397)
(13.8323 -0.396632 0.606544)
(13.4538 -0.290379 0.562753)
(13.3673 0.0526019 0.175181)
(13.7474 0.6648 -0.231147)
(14.7538 1.82951 -0.567591)
(16.9138 2.72479 -0.311033)
(21.15 1.76134 0.47017)
(23.0908 -0.294295 0.630891)
(22.9009 -1.0572 0.448242)
(22.6898 -0.979329 0.302705)
(22.2658 -1.13001 0.166714)
(21.5022 -1.6774 0.0685771)
(20.5033 -2.60562 -0.0707922)
(18.3582 -4.54503 -0.364132)
(9.67845 -10.0262 -0.639958)
(5.16611 -8.2415 -0.468242)
(3.11867 -5.50251 -0.233206)
(1.8744 -3.76641 -0.130082)
(1.38183 -2.60727 -0.0734268)
(0.74726 -1.86796 -0.0412828)
(0.70442 -1.31953 -0.0207943)
(0.240104 -0.98349 -0.00990227)
(0.423665 -0.704162 -0.00251565)
(-0.0161824 -0.550806 0.00061731)
(0.32025 -0.402819 0.00367416)
(-0.163906 -0.344117 0.00456484)
(0.291124 -0.277996 0.00636326)
(-0.260638 -0.261326 0.00601222)
(-2.90375 1.38192 -4.50678)
(-2.03547 -1.04295 -1.46505)
(-1.32586 0.310568 0.62222)
(-1.46087 0.690234 0.86615)
(-0.241054 1.26379 0.585448)
(0.560611 1.45932 0.383418)
(1.75014 1.1941 0.163193)
(2.91497 0.774873 0.203119)
(4.28671 0.439554 0.239219)
(5.68057 0.177269 0.147981)
(6.88003 -0.0790073 0.0361979)
(7.51369 -0.283065 -0.038597)
(7.78039 -0.486146 -0.11024)
(7.69098 -0.687241 -0.123951)
(7.34887 -0.868745 0.0874056)
(6.94144 -0.679901 0.331318)
(6.73819 -0.101801 0.291193)
(6.9405 0.467873 0.0442873)
(7.51358 0.918009 -0.152312)
(8.40376 1.18408 -0.169658)
(9.5141 1.10157 -0.0657029)
(10.7212 0.787264 0.000746996)
(11.5225 0.529157 0.0325568)
(11.8756 0.405411 0.0681573)
(12.1446 0.291232 0.124919)
(12.486 0.213988 0.199199)
(12.9548 0.14762 0.291294)
(13.3144 0.117449 0.312585)
(13.4046 0.0967245 0.221044)
(13.2284 0.0794285 0.0368769)
(12.6385 0.0184653 -0.160096)
(12.3815 -0.030661 -0.104527)
(12.3646 -0.0447952 0.045261)
(12.5284 -0.0313694 0.166663)
(12.7223 0.164385 0.309444)
(13.0444 0.652441 0.477354)
(13.949 1.56786 0.680016)
(16.245 2.25505 1.08984)
(20.1494 1.60593 1.47495)
(22.5372 -0.192625 1.13632)
(22.8324 -0.937262 0.787306)
(22.6883 -0.904038 0.545064)
(22.2548 -1.16393 0.338138)
(21.4379 -1.78888 0.145372)
(20.3994 -2.75692 0.0278059)
(18.2297 -4.74006 0.105383)
(9.66446 -10.0761 0.856549)
(5.16113 -8.18971 0.52094)
(3.12588 -5.47013 0.256334)
(1.87821 -3.74402 0.14294)
(1.38396 -2.58905 0.0853445)
(0.748846 -1.85211 0.0553394)
(0.705541 -1.30535 0.036577)
(0.241098 -0.971432 0.0274809)
(0.424337 -0.694489 0.0201006)
(-0.0152115 -0.543272 0.0174559)
(0.320903 -0.397644 0.0150361)
(-0.163228 -0.340301 0.01437)
(0.291378 -0.274719 0.0132722)
(-0.260324 -0.258761 0.0136299)
(-2.0184 12.1008 -5.0371)
(-3.46599 1.02042 -1.88365)
(0.765281 -0.339987 -0.982048)
(2.77616 -0.0518735 -0.162527)
(5.30237 0.0217969 0.0245963)
(7.80228 -0.019897 0.000335973)
(9.8016 -0.00901391 -0.0170137)
(11.1789 -0.00716991 0.0789295)
(12.3641 -0.0772898 0.0654142)
(13.2399 -0.119541 -0.0356905)
(13.7578 -0.154228 -0.0659731)
(13.7993 -0.185217 0.00551311)
(13.2966 -0.220353 0.157709)
(12.1267 -0.205104 0.331008)
(10.7064 -0.122764 0.448842)
(9.42791 0.0148725 0.456585)
(9.14682 0.128417 0.31471)
(9.68326 0.236135 0.0732826)
(10.7724 0.314502 -0.191001)
(12.3205 0.343376 -0.34076)
(14.2144 0.261312 -0.378099)
(16.0726 0.142671 -0.302176)
(17.3014 0.11208 -0.0918257)
(17.9551 0.103964 0.125848)
(18.1814 0.0635542 0.208643)
(18.2887 0.0759839 0.19835)
(18.4983 0.0501307 0.204466)
(18.6406 0.0346516 0.238494)
(18.6596 0.0174923 0.24994)
(18.479 0.0156704 0.257469)
(17.6318 0.0651762 0.292805)
(16.16 0.0487146 0.439223)
(14.8608 0.0905005 0.619575)
(13.8279 0.256367 0.790952)
(13.2557 0.562349 1.00715)
(13.2902 0.964528 1.17917)
(14.0808 1.5586 1.09842)
(16.3587 1.97341 0.629122)
(20.1291 1.02713 0.168238)
(22.3712 -0.568297 0.187581)
(22.6546 -0.8242 0.230085)
(22.6227 -0.804461 0.212555)
(22.387 -0.945677 0.221215)
(21.6593 -1.48977 0.220707)
(20.2382 -2.70829 0.294005)
(15.9001 -6.66527 1.19567)
(7.67778 -10.9921 2.70507)
(4.96759 -8.07504 1.53507)
(3.16778 -5.43038 0.813768)
(1.93475 -3.73038 0.463359)
(1.42732 -2.57974 0.273853)
(0.780927 -1.84486 0.17136)
(0.728221 -1.29802 0.107884)
(0.258068 -0.965683 0.0741865)
(0.435863 -0.688799 0.0477751)
(-0.0064437 -0.538993 0.0357306)
(0.326634 -0.393193 0.025388)
(-0.159721 -0.336566 0.0214342)
(0.29385 -0.270719 0.0175452)
(-0.26046 -0.255594 0.0167711)
(-2.86768 18.8311 -6.53464)
(-4.19341 6.53176 -2.51344)
(-3.371 2.90477 -1.88802)
(-2.21535 1.88001 -0.886754)
(-0.340999 1.11083 -0.741891)
(0.850431 0.740497 -0.418417)
(1.96829 0.546388 -0.143963)
(3.2423 0.38171 0.114637)
(4.15129 0.137417 0.192388)
(4.93406 0.0342026 0.214385)
(5.17926 -0.0135469 0.235866)
(5.3016 -0.0289518 0.395783)
(5.43903 -0.00251395 0.631029)
(5.75972 0.0166805 0.80911)
(6.17516 0.0290257 0.883626)
(6.53743 0.0701447 0.706475)
(6.78677 0.0882303 0.370521)
(7.08233 0.12374 0.0491964)
(7.3921 0.13629 -0.189984)
(7.77339 0.130526 -0.263393)
(8.03042 0.127239 -0.202117)
(8.21363 0.159184 -0.0638717)
(8.68727 0.231498 0.218635)
(9.52292 0.26582 0.531326)
(10.3271 0.22819 0.658316)
(10.9428 0.200981 0.633578)
(11.3758 0.198355 0.643908)
(11.6599 0.21918 0.749145)
(11.7476 0.210549 0.846612)
(11.7286 0.226164 0.963075)
(11.7298 0.265027 1.09241)
(11.8501 0.288296 1.1377)
(12.1191 0.334426 1.12975)
(12.4018 0.399866 1.13461)
(12.7642 0.639473 1.12706)
(13.564 1.06706 1.02874)
(15.4112 1.62925 0.665085)
(18.3668 1.91002 0.365261)
(21.7787 1.29318 0.46125)
(23.5174 -0.158025 0.531077)
(23.4187 -0.739852 0.43632)
(22.9558 -0.755125 0.419237)
(22.0599 -1.13365 0.558452)
(20.9693 -1.91288 0.781289)
(19.2452 -3.31857 1.22505)
(13.1473 -8.55292 2.98452)
(6.54074 -11.1518 3.6759)
(4.44253 -7.84058 2.19131)
(2.95802 -5.2737 1.25705)
(1.83773 -3.63687 0.739352)
(1.3813 -2.52354 0.436266)
(0.761077 -1.81114 0.265232)
(0.719029 -1.27796 0.155876)
(0.255422 -0.954655 0.0983706)
(0.433669 -0.682338 0.0592648)
(-0.00471646 -0.536281 0.0416256)
(0.326356 -0.392085 0.0265813)
(-0.157447 -0.337259 0.0214437)
(0.293124 -0.271544 0.0160367)
(-0.258746 -0.257241 0.0151736)
(-3.95836 16.6625 -2.7373)
(-4.66454 3.24218 -0.236847)
(-3.92251 0.910817 -0.931408)
(-3.59663 1.0655 -0.774071)
(-2.50653 0.803987 -0.842158)
(-1.76178 0.822828 -0.601188)
(-0.765347 0.664467 -0.525158)
(0.353781 0.445841 -0.418767)
(1.26644 0.217682 -0.277117)
(2.22857 0.0179396 -0.112477)
(2.87749 -0.0768576 0.0253755)
(3.37925 -0.104326 0.112741)
(3.85709 -0.0841196 0.219633)
(4.43549 -0.0517103 0.346401)
(4.97791 0.0501404 0.487052)
(5.59232 0.170116 0.589204)
(6.09096 0.230475 0.568373)
(6.62286 0.263563 0.4913)
(6.96529 0.306234 0.444696)
(7.26413 0.331895 0.496029)
(7.60665 0.318604 0.560203)
(7.72889 0.30315 0.507516)
(7.91142 0.320061 0.447482)
(8.34502 0.339827 0.468709)
(8.86865 0.327439 0.549307)
(9.24853 0.298645 0.626794)
(9.50049 0.305054 0.724446)
(9.83762 0.395645 0.811016)
(10.4204 0.423185 0.812511)
(11.0139 0.438791 0.76206)
(11.4898 0.428961 0.726886)
(11.9108 0.457913 0.761968)
(12.3781 0.577187 0.971602)
(12.9005 0.759565 1.35671)
(13.4718 1.06113 1.74524)
(14.092 1.46632 1.74766)
(14.7989 1.91776 1.17339)
(16.1365 1.94002 0.196067)
(18.7503 0.794897 -0.355749)
(20.742 -1.02792 0.123407)
(21.4517 -1.32222 0.498734)
(21.5755 -1.13844 0.540031)
(21.4778 -1.17792 0.590448)
(20.9506 -1.56048 0.899003)
(19.5865 -2.64602 1.77964)
(13.804 -7.40914 4.54445)
(6.32584 -10.8875 4.70354)
(4.17292 -7.59127 2.94817)
(2.77438 -5.10012 1.70753)
(1.73284 -3.52268 1.0088)
(1.32643 -2.44928 0.595501)
(0.734412 -1.76221 0.362114)
(0.707781 -1.24492 0.212866)
(0.256191 -0.931864 0.134256)
(0.438153 -0.666117 0.0795411)
(0.000954902 -0.524351 0.0545524)
(0.330322 -0.383093 0.0331828)
(-0.153903 -0.329955 0.0255752)
(0.29502 -0.265569 0.0175354)
(-0.258317 -0.25169 0.016774)
(-4.71406 -0.0937804 -1.47751)
(-4.77079 -0.0801067 -0.601827)
(-4.52399 0.275197 -0.842689)
(-4.50643 0.706935 -0.650814)
(-4.32686 0.798132 -0.755472)
(-4.19855 0.89759 -0.622488)
(-3.96691 0.8511 -0.558366)
(-3.73313 0.750568 -0.408349)
(-3.36044 0.576168 -0.284696)
(-2.93489 0.440533 -0.158015)
(-2.43848 0.339512 -0.00704579)
(-1.85558 0.266018 0.0949275)
(-1.26642 0.288713 0.195382)
(-0.694327 0.388115 0.297458)
(-0.140517 0.535642 0.363736)
(0.347199 0.73742 0.378833)
(0.707452 0.969451 0.355849)
(1.07219 1.18434 0.353076)
(1.37908 1.40725 0.383518)
(1.78441 1.52571 0.432993)
(2.3387 1.44274 0.574954)
(2.85181 1.21943 0.674023)
(3.35509 0.975502 0.659508)
(3.93295 0.721601 0.646125)
(4.62263 0.453012 0.661384)
(5.26425 0.251289 0.67041)
(5.83892 0.117526 0.679558)
(6.41812 -0.051651 0.666813)
(6.87023 -0.33181 0.65544)
(7.08849 -0.510841 0.692089)
(7.09776 -0.490259 0.755072)
(7.01253 -0.0619883 0.880998)
(7.0513 0.67851 1.00164)
(7.46644 1.44738 1.12657)
(8.2474 2.16182 1.22081)
(9.32822 2.73558 1.184)
(10.6102 2.85912 0.758815)
(11.9248 2.11355 -0.394307)
(13.213 0.704044 -1.57248)
(15.7032 -0.58109 -1.21366)
(17.9545 -1.1812 -0.210864)
(18.8182 -1.36467 0.281212)