/*--------------------------------*- C++ -*----------------------------------*\
| =========                 |                                                 |
| \\      /  F ield         | OpenFOAM: The Open Source CFD Toolbox           |
|  \\    /   O peration     | Version:  2.1.1                                 |
|   \\  /    A nd           | Web:      www.OpenFOAM.org                      |
|    \\/     M anipulation  |                                                 |
\*---------------------------------------------------------------------------*/
FoamFile
{
    version     2.0;
    format      ascii;
    class       volVectorField;
    location    "0.001";
    object      UFLUK;
}
// * * * * * * * * * * * * * * * * * * * * * * * * * * * * * * * * * * * * * //

dimensions      [0 1 -1 0 0 0 0];

internalField   nonuniform List<vector> 
36520
(
(-2.26444e-05 -0.576119 1.41812)
(-2.78918e-05 0.0487161 0.246654)
(5.39293e-06 0.166414 0.146059)
(6.98742e-06 0.127549 -0.236284)
(9.24246e-06 0.107167 -0.325193)
(1.09782e-05 0.0823142 -0.417219)
(1.20824e-05 0.0656246 -0.421059)
(1.20496e-05 0.0551022 -0.435675)
(1.09765e-05 0.0425594 -0.400468)
(9.33987e-06 0.0320388 -0.394182)
(7.999e-06 0.0222012 -0.364481)
(7.59403e-06 0.0209376 -0.373843)
(8.63417e-06 0.0179752 -0.38331)
(1.07167e-05 0.0230676 -0.424136)
(1.3439e-05 0.032466 -0.479522)
(1.67004e-05 0.0471342 -0.558861)
(2.09452e-05 0.0625139 -0.644573)
(2.69996e-05 0.0783462 -0.725555)
(3.54153e-05 0.0919213 -0.786013)
(4.61145e-05 0.100872 -0.814618)
(5.82775e-05 0.10286 -0.804507)
(7.07865e-05 0.0998224 -0.758501)
(8.22495e-05 0.0926565 -0.684602)
(9.15809e-05 0.0837685 -0.602417)
(9.76448e-05 0.0767694 -0.528667)
(9.88771e-05 0.0729335 -0.467636)
(9.327e-05 0.0698782 -0.419761)
(7.98589e-05 0.0648222 -0.38566)
(6.00236e-05 0.0605939 -0.370162)
(3.74786e-05 0.0587383 -0.375568)
(1.76442e-05 0.061467 -0.406195)
(7.52563e-06 0.0711097 -0.465015)
(1.56008e-05 0.0913688 -0.549624)
(4.9759e-05 0.122997 -0.65689)
(0.000108486 0.16595 -0.76921)
(0.000175906 0.222978 -0.8675)
(0.000231211 0.291895 -0.920431)
(0.000260189 0.368015 -0.898484)
(0.000252884 0.435855 -0.750321)
(0.000197332 0.473332 -0.381256)
(9.53671e-05 0.408678 0.330874)
(-2.03905e-05 0.247792 1.35367)
(-0.000107065 0.0326995 2.61623)
(-0.000161077 -0.260425 4.01068)
(-0.000147582 -0.574033 5.30406)
(-5.58528e-05 -0.741075 5.80333)
(-4.39858e-06 -0.555836 5.23159)
(-2.68805e-08 -0.368666 4.33473)
(-6.55441e-10 -0.217366 3.38604)
(-4.27806e-12 -0.122433 2.59618)
(-2.0667e-14 -0.064046 1.95747)
(-8.74739e-17 -0.0290103 1.48524)
(-3.44114e-19 -0.00994853 1.10712)
(-1.24032e-21 0.00137256 0.850741)
(-3.33657e-24 0.00684916 0.633558)
(-6.37659e-27 0.0107514 0.503551)
(-8.64302e-30 0.0108831 0.38369)
(-8.01584e-33 0.0132867 0.326988)
(-4.90387e-36 0.0117638 0.273396)
(-1.94e-39 0.0133846 0.254425)
(-1.80302e-05 -0.316702 1.3555)
(-2.27707e-06 0.206317 -0.0154591)
(3.04216e-05 0.329424 0.000666673)
(3.40559e-05 0.241334 -0.37806)
(3.64267e-05 0.21262 -0.363503)
(3.26714e-05 0.136387 -0.461017)
(2.7494e-05 0.121453 -0.417194)
(2.05421e-05 0.0825331 -0.422023)
(1.46023e-05 0.0630996 -0.367115)
(1.05833e-05 0.0348901 -0.345712)
(9.8575e-06 0.0228934 -0.302416)
(1.17998e-05 0.0138787 -0.297919)
(1.59865e-05 0.0195467 -0.298396)
(2.04384e-05 0.0291322 -0.323131)
(2.56573e-05 0.0575391 -0.370462)
(3.28855e-05 0.0945164 -0.431835)
(4.36985e-05 0.135362 -0.509206)
(5.89652e-05 0.17595 -0.573001)
(7.74392e-05 0.211593 -0.624904)
(9.63295e-05 0.234848 -0.639363)
(0.000112225 0.239599 -0.62007)
(0.000122968 0.23099 -0.56211)
(0.000126452 0.210773 -0.478992)
(0.000122021 0.184221 -0.386206)
(0.000110205 0.162762 -0.304948)
(9.14246e-05 0.151624 -0.23812)
(6.52401e-05 0.141644 -0.186303)
(3.23793e-05 0.127609 -0.147513)
(-5.55831e-06 0.117071 -0.126226)
(-4.75759e-05 0.113688 -0.124805)
(-9.05937e-05 0.122548 -0.149179)
(-0.000124391 0.153068 -0.201899)
(-0.000130343 0.21668 -0.280327)
(-9.40363e-05 0.319798 -0.380237)
(-2.93634e-05 0.464089 -0.488307)
(2.58753e-05 0.649336 -0.589698)
(4.08646e-05 0.864861 -0.649791)
(1.10976e-05 1.08566 -0.639084)
(-3.75579e-05 1.27552 -0.513883)
(-7.88008e-05 1.33623 -0.17326)
(-3.93985e-05 1.09459 0.518505)
(-1.8502e-05 0.595375 1.60095)
(-6.45187e-06 -0.0696066 2.94028)
(0.000182364 -0.954605 4.51861)
(0.00019041 -1.85357 6.02043)
(-0.000206836 -2.33178 6.53064)
(-2.48503e-05 -1.75223 5.7315)
(-1.82535e-07 -1.17004 4.66233)
(-8.49569e-09 -0.713322 3.59606)
(-9.21192e-11 -0.429154 2.73562)
(-6.40544e-13 -0.249837 2.05187)
(-3.52875e-15 -0.14998 1.55109)
(-1.67641e-17 -0.0860538 1.15044)
(-6.80354e-20 -0.050751 0.881594)
(-1.95177e-22 -0.0295879 0.653632)
(-3.96734e-25 -0.0172224 0.517178)
(-5.6349e-28 -0.0118492 0.39231)
(-5.57262e-31 -0.00649789 0.333863)
(-3.74652e-34 -0.00665202 0.278574)
(-2.81611e-37 -0.00389952 0.258843)
(-2.6897e-07 0.0918189 1.21838)
(1.61554e-05 0.435888 -0.103269)
(3.03452e-05 0.532634 -0.0682855)
(2.73466e-05 0.396401 -0.411837)
(2.20943e-05 0.348778 -0.362883)
(1.2844e-05 0.252793 -0.477716)
(4.50116e-06 0.212615 -0.404293)
(-3.00219e-06 0.166906 -0.418609)
(-7.57794e-06 0.120632 -0.35735)
(-1.01538e-05 0.0855637 -0.329501)
(-1.05306e-05 0.056015 -0.289601)
(-9.99518e-06 0.0381758 -0.279946)
(-9.16975e-06 0.0432533 -0.291571)
(-8.49326e-06 0.0563463 -0.315296)
(-7.29402e-06 0.0987447 -0.374964)
(-4.62987e-06 0.157733 -0.443019)
(-4.79373e-07 0.223121 -0.534093)
(4.40376e-06 0.288802 -0.608099)
(8.98434e-06 0.349011 -0.672533)
(1.27447e-05 0.389995 -0.694283)
(1.52137e-05 0.397977 -0.676996)
(1.61557e-05 0.383411 -0.614208)
(1.55648e-05 0.345387 -0.522422)
(1.37966e-05 0.29607 -0.421236)
(1.09576e-05 0.254292 -0.337534)
(7.03053e-06 0.23149 -0.273257)
(3.53485e-06 0.214976 -0.225385)
(-7.42971e-06 0.183818 -0.199164)
(-1.97061e-05 0.157142 -0.185165)
(-2.63579e-05 0.143904 -0.190893)
(-2.80097e-05 0.144462 -0.220483)
(-2.07524e-05 0.175197 -0.282173)
(-7.53611e-06 0.258836 -0.376524)
(-1.17026e-06 0.399527 -0.505231)
(-1.35882e-06 0.607921 -0.658161)
(-1.59336e-06 0.885185 -0.823991)
(-1.86618e-06 1.2151 -0.9649)
(-2.16272e-06 1.55679 -1.05537)
(-2.45397e-06 1.84687 -1.05005)
(-0.000652111 1.92429 -0.841806)
(-0.000800412 1.53887 -0.137227)
(-0.000490919 0.742614 1.07131)
(0.000159158 -0.300257 2.64638)
(0.000878041 -1.6122 4.54905)
(0.00107512 -3.17936 6.5347)
(0.000263466 -3.92195 7.31416)
(-0.000134912 -2.91982 6.24492)
(-5.07501e-07 -1.90901 4.92428)
(-3.80018e-08 -1.15927 3.7274)
(-6.85101e-10 -0.695102 2.8023)
(-6.72446e-12 -0.405274 2.08711)
(-4.7818e-14 -0.242739 1.56957)
(-2.82927e-16 -0.134369 1.15844)
(-1.19849e-18 -0.0763146 0.886678)
(-3.58696e-21 -0.0388722 0.655648)
(-7.50329e-24 -0.0188027 0.519266)
(-1.0944e-26 -0.00705716 0.393419)
(-1.11918e-29 -0.000333036 0.334803)
(-1.1207e-32 0.00203016 0.27913)
(-1.67392e-35 0.0049215 0.259361)
(-2.41767e-05 0.578342 1.23784)
(-9.59787e-06 0.623745 -0.166179)
(3.18176e-06 0.678225 -0.157441)
(1.17128e-06 0.499101 -0.480843)
(-1.15971e-06 0.446313 -0.415013)
(-3.97525e-06 0.31997 -0.517307)
(-5.77654e-06 0.292592 -0.454289)
(-7.31855e-06 0.213683 -0.450668)
(-8.2578e-06 0.166328 -0.391129)
(-9.18361e-06 0.11938 -0.353104)
(-1.03625e-05 0.0803255 -0.308903)
(-1.13396e-05 0.0522901 -0.292921)
(-9.65337e-06 0.0584382 -0.312537)
(-3.86484e-06 0.0753209 -0.341674)
(-3.10014e-08 0.133422 -0.415354)
(-5.17505e-08 0.216281 -0.498797)
(-8.75778e-08 0.303022 -0.610325)
(-1.4676e-07 0.386859 -0.705408)
(-2.35469e-07 0.461143 -0.79342)
(-3.47289e-07 0.509807 -0.835671)
(-4.62295e-07 0.504135 -0.830206)
(-5.65782e-07 0.470155 -0.775379)
(-6.55845e-07 0.407321 -0.687397)
(-7.34822e-07 0.322541 -0.585055)
(-8.04934e-07 0.247383 -0.502521)
(-1.66815e-05 0.206754 -0.44845)
(-0.000367264 0.175705 -0.411564)
(-0.000622246 0.12319 -0.37995)
(-0.000630894 0.075315 -0.361127)
(-0.000681142 0.045522 -0.358889)
(-0.000713583 0.0375915 -0.382356)
(-0.000771068 0.0800744 -0.443895)
(-0.00101778 0.193957 -0.550013)
(-0.00161811 0.37604 -0.706735)
(-0.00279935 0.646147 -0.910587)
(-0.00509007 1.00019 -1.15883)
(-0.00909487 1.41519 -1.40445)
(-0.0145778 1.82319 -1.60757)
(-0.0195012 2.12952 -1.73514)
(-0.0190912 2.1323 -1.66728)
(-0.0123215 1.53898 -0.941741)
(-0.00474938 0.515612 0.464566)
(0.00283226 -0.682371 2.20679)
(0.00889315 -2.24293 4.42702)
(0.0115226 -4.41669 7.2011)
(0.0188718 -5.6672 8.68949)
(0.025636 -4.0851 7.08626)
(-2.16899e-06 -2.57161 5.31117)
(-1.0762e-07 -1.55719 3.91783)
(-2.86857e-09 -0.935668 2.90237)
(-3.93567e-11 -0.552345 2.13446)
(-3.77232e-13 -0.329507 1.59344)
(-2.54149e-15 -0.186323 1.16721)
(-1.16826e-17 -0.109358 0.890767)
(-3.7499e-20 -0.0591581 0.654645)
(-8.29328e-23 -0.0330659 0.517826)
(-1.27944e-25 -0.0167934 0.389716)
(-1.67395e-28 -0.00826425 0.331242)
(-4.48126e-31 -0.00434747 0.274741)
(-8.52311e-34 -0.00100379 0.255989)
(-2.91365e-05 1.14472 0.862648)
(-1.96112e-05 0.805707 -0.418845)
(-1.2422e-05 0.918194 -0.248854)
(-1.16558e-05 0.649588 -0.533149)
(-1.09846e-05 0.604545 -0.46601)
(-5.32506e-06 0.460427 -0.557582)
(-6.77718e-09 0.424021 -0.496412)
(-6.84942e-09 0.317122 -0.481025)
(-7.11794e-09 0.246574 -0.413968)
(-7.70167e-09 0.18116 -0.371302)
(-1.19577e-05 0.110364 -0.329009)
(-0.000147534 0.0668919 -0.313884)
(-0.000533908 0.0503762 -0.354802)
(-0.000966313 0.0587044 -0.407297)
(-0.00130006 0.113048 -0.511163)
(-0.00173366 0.215155 -0.632943)
(-0.00222639 0.316153 -0.777516)
(-0.00276898 0.419896 -0.906016)
(-0.0033575 0.520612 -1.02416)
(-0.00376381 0.588969 -1.09096)
(-0.00392918 0.582052 -1.09706)
(-0.00409237 0.539665 -1.04297)
(-0.00416955 0.453719 -0.944875)
(-0.00412379 0.334086 -0.833043)
(-0.00404694 0.233857 -0.755848)
(-0.00404171 0.169285 -0.718081)
(-0.00387439 0.117916 -0.694372)
(-0.00317551 0.0327778 -0.665578)
(-0.00221931 -0.0630385 -0.652252)
(-0.00158 -0.126766 -0.646874)
(-0.00150458 -0.149488 -0.657809)
(-0.00154995 -0.123907 -0.715091)
(-0.00204149 -0.0254979 -0.837437)
(-0.00418724 0.163452 -1.04086)
(-0.00917521 0.445561 -1.31174)
(-0.0188138 0.842822 -1.6506)
(-0.0352181 1.30797 -2.00613)
(-0.0589687 1.73001 -2.30577)
(-0.0814404 2.03133 -2.54586)
(-0.0784479 1.91586 -2.58837)
(-0.047018 1.12614 -1.81644)
(-0.0172773 0.035068 -0.322163)
(0.00469772 -0.903148 1.34066)
(0.0176611 -2.49279 3.66784)
(0.0246784 -5.22084 7.23508)
(0.0475968 -7.17884 10.2086)
(0.0764906 -5.24902 8.30729)
(0.000365336 -3.10401 5.79808)
(-8.07352e-07 -1.87156 4.16432)
(-1.26654e-08 -1.12032 3.02453)
(-1.83744e-10 -0.659109 2.1926)
(-2.08147e-12 -0.392092 1.62357)
(-1.55313e-14 -0.222559 1.17971)
(-7.90266e-17 -0.131376 0.897804)
(-2.77983e-19 -0.0709797 0.656228)
(-6.68787e-22 -0.040172 0.518843)
(-1.1954e-24 -0.0195822 0.388479)
(-4.14178e-27 -0.0095787 0.331)
(-1.84654e-29 -0.00377465 0.27337)
(-3.76274e-32 -0.000788921 0.255269)
(-4.27669e-05 1.13897 0.828601)
(-2.38727e-05 0.981147 -0.459498)
(-4.26472e-05 1.06154 -0.385036)
(-0.00010966 0.754999 -0.68713)
(-0.000202704 0.692897 -0.597629)
(-0.000304154 0.546463 -0.693008)
(-0.000560265 0.526222 -0.648)
(-0.000652052 0.390595 -0.614088)
(-0.000733504 0.30479 -0.562779)
(-0.000813312 0.239912 -0.510082)
(-0.000877179 0.162424 -0.46951)
(-0.00100947 0.106912 -0.461553)
(-0.00121965 0.0814613 -0.538479)
(-0.00154203 0.0764095 -0.624463)
(-0.00221901 0.14505 -0.757126)
(-0.00354661 0.290191 -0.91332)
(-0.00536377 0.405763 -1.09437)
(-0.00789518 0.509758 -1.25887)
(-0.0120468 0.589147 -1.4029)
(-0.0178595 0.636113 -1.49968)
(-0.0248757 0.571466 -1.52063)
(-0.0361064 0.439916 -1.46774)
(-0.0512839 0.274129 -1.35686)
(-0.0652865 0.0599456 -1.23105)
(-0.0684511 -0.137032 -1.16153)
(-0.063829 -0.28949 -1.16009)
(-0.052022 -0.379967 -1.17791)
(-0.0324554 -0.514145 -1.1554)
(-0.0183924 -0.648479 -1.09968)
(-0.000962177 -0.738389 -1.04222)
(0.0086145 -0.766968 -0.98131)
(-6.59941e-05 -0.740749 -0.950426)
(-0.010096 -0.636947 -0.97816)
(-0.0129808 -0.441177 -1.10558)
(-0.0261137 -0.151295 -1.35148)
(-0.0530239 0.281246 -1.69076)
(-0.0788857 0.770468 -2.06121)
(-0.101112 1.1745 -2.33366)
(-0.131404 1.42805 -2.48183)
(-0.163453 1.18928 -2.43222)
(-0.109836 0.372417 -1.67075)
(-0.0455733 -0.374119 -0.452512)
(-0.00796632 -1.0366 0.803466)
(0.0194042 -2.36703 2.57434)
(0.0516724 -5.54241 6.47121)
(0.158041 -8.15567 11.0377)
(0.142044 -6.28308 9.73628)
(0.0296054 -3.50078 6.37465)
(-6.82769e-06 -2.07387 4.43639)
(-1.99535e-07 -1.22971 3.15663)
(-1.14586e-09 -0.721985 2.25534)
(-1.25849e-11 -0.430094 1.65682)
(-1.20567e-13 -0.245728 1.19322)
(-7.40068e-16 -0.146602 0.905646)
(-3.07234e-18 -0.0803001 0.656318)
(-8.39019e-21 -0.0468397 0.519404)
(-1.97801e-23 -0.023869 0.385576)
(-1.19795e-25 -0.0129992 0.329503)
(-6.04617e-28 -0.00609803 0.270146)
(-1.31834e-30 -0.00353929 0.253238)
(-0.000593257 2.14992 -1.69887)
(-0.0016138 1.10026 -1.21081)
(-0.00390121 1.32726 -0.73693)
(-0.00270246 0.916862 -0.842281)
(-0.00232223 0.876609 -0.73993)
(-0.00196264 0.712698 -0.822435)
(-0.00396378 0.670079 -0.801174)
(-0.00573214 0.471619 -0.779226)
(-0.00541131 0.335269 -0.730264)
(-0.00566654 0.204246 -0.685604)
(-0.00581862 0.0769011 -0.655812)
(-0.00646961 -0.0208712 -0.659107)
(-0.007893 -0.105789 -0.744357)
(-0.00965556 -0.174397 -0.846756)
(-0.0129748 -0.133058 -1.01029)
(-0.0201481 0.00664982 -1.24189)
(-0.0311425 0.105915 -1.48381)
(-0.0472591 0.192291 -1.72621)
(-0.0752903 0.249673 -1.96064)
(-0.114299 0.239529 -2.14142)
(-0.140998 0.0833518 -2.23701)
(-0.136301 -0.129435 -2.26311)
(-0.107743 -0.353203 -2.17402)
(-0.11119 -0.621947 -2.01919)
(-0.15624 -0.829743 -1.88345)
(-0.183199 -0.939463 -1.86327)
(-0.188529 -0.920356 -1.94036)
(-0.129116 -0.994624 -1.93027)
(-0.12151 -1.37105 -1.73909)
(-0.117333 -1.75889 -1.41695)
(-0.0148456 -1.77228 -1.31852)
(0.0280823 -1.74616 -1.18328)
(-0.0778623 -1.49845 -1.16414)
(-0.245863 -1.07113 -1.23346)
(-0.445769 -0.567128 -1.31387)
(-0.841933 0.0880321 -1.35454)
(-1.17636 0.735172 -1.29716)
(-1.20758 1.0677 -1.46647)
(-1.1055 1.12026 -1.80221)
(-0.565614 0.674478 -2.05631)
(-0.167466 -0.00550102 -1.58839)
(-0.073818 -0.747099 -0.613738)
(-0.0248345 -1.6419 0.501746)
(0.027917 -2.7075 1.90092)
(0.140067 -4.4673 4.42416)
(0.483158 -7.25227 9.76992)
(0.23491 -6.7259 10.9076)
(0.0675582 -3.69656 6.95865)
(-5.90049e-05 -2.12727 4.69314)
(-3.04106e-06 -1.25186 3.28253)
(-1.86377e-08 -0.733526 2.31585)
(-1.17272e-10 -0.437462 1.68691)
(-1.30713e-12 -0.250254 1.20537)
(-9.49557e-15 -0.150283 0.910443)
(-4.58473e-17 -0.0816523 0.656569)
(-1.42607e-19 -0.0484259 0.519087)
(-3.86614e-22 -0.0239806 0.383059)
(-2.67388e-24 -0.0131983 0.328562)
(-1.50637e-26 -0.00541339 0.267708)
(-3.58502e-29 -0.00342736 0.251893)
(-0.00870387 0.950938 0.877529)
(-0.0635019 0.745432 -0.192796)
(-0.261447 1.38444 -0.566273)
(-0.404806 1.13486 -0.893576)
(-0.462138 1.18038 -0.871697)
(-0.109815 1.35576 -0.932678)
(-0.00487908 0.898715 -1.38214)
(-0.0162503 0.494871 -1.29636)
(-0.0458389 0.339901 -1.17655)
(-0.0626885 0.259166 -1.08948)
(-0.0594261 0.117444 -0.974958)
(-0.0550966 0.0103854 -0.989041)
(-0.0539168 -0.102438 -1.18617)
(-0.0617938 -0.250042 -1.44327)
(-0.0845271 -0.195333 -1.74542)
(-0.120271 0.0695604 -2.13059)
(-0.153073 0.201281 -2.54885)
(-0.170983 0.175372 -2.9435)
(-0.18011 0.120086 -3.31224)
(-0.166476 0.0316343 -3.62199)
(-0.120986 -0.188295 -3.79181)
(-0.0903496 -0.473965 -3.77352)
(-0.10054 -0.721988 -3.61478)
(-0.133092 -0.959361 -3.39737)
(-0.164232 -1.11064 -3.15074)
(-0.165287 -1.06445 -2.98037)
(-0.134155 -1.06217 -2.84755)
(-0.109198 -1.11182 -2.67757)
(-0.101988 -1.15773 -2.52782)
(-0.0607716 -1.20537 -2.40996)
(0.00979562 -1.26325 -2.26782)
(0.0793392 -1.34837 -2.10609)
(0.0921428 -1.37319 -2.01524)
(0.0383476 -1.32732 -1.97242)
(0.00378082 -1.24892 -1.99028)
(-0.0182521 -1.04518 -2.13779)
(-1.19052 -0.729067 -1.85663)
(-1.61268 0.738771 -0.776745)
(-1.60085 1.27702 -0.715291)
(-1.58707 0.598373 -0.19921)
(-1.35496 -0.418335 -0.0409991)
(-0.235228 -1.29811 0.0173132)
(-0.0100302 -1.79422 0.592874)
(0.103211 -2.21872 1.37189)
(0.42535 -2.99561 2.90923)
(0.701906 -4.86342 7.26275)
(0.350496 -6.09399 11.3123)
(0.114842 -3.63524 7.46838)
(-0.00139267 -2.06128 4.89348)
(-3.38906e-05 -1.20863 3.37066)
(-2.4363e-07 -0.708102 2.35033)
(-1.0206e-09 -0.42309 1.69772)
(-1.05025e-11 -0.242594 1.204)
(-8.85266e-14 -0.146712 0.904703)
(-4.9465e-16 -0.081324 0.649114)
(-1.7631e-18 -0.0503402 0.512082)
(-5.44598e-21 -0.0268517 0.375674)
(-4.24387e-23 -0.017144 0.322999)
(-2.70363e-25 -0.00971676 0.261347)
(-7.15051e-28 -0.0078895 0.246877)
(0.000393277 3.58894 -19.3096)
(0.000376785 0.80195 -5.06164)
(0.000606845 1.44222 -1.8429)
(0.000877256 0.629903 -0.948575)
(0.00109499 0.400181 -0.261543)
(-0.000853028 -0.0640251 -0.141378)
(-0.00178353 -0.348142 -0.190658)
(0.00163093 -0.778839 -0.309307)
(0.00248172 -1.12722 -0.47389)
(0.00132168 -1.4139 -0.623632)
(0.00101025 -1.69713 -0.625674)
(0.000957494 -1.9568 -0.698809)
(0.000623839 -2.19188 -0.887136)
(0.00126516 -2.39245 -0.984341)
(0.00126774 -2.44219 -1.05498)
(-0.00981256 -2.32938 -1.16493)
(-0.0257357 -2.23435 -1.23206)
(-0.0333798 -2.23146 -1.30819)
(-0.03456 -2.27811 -1.35238)
(-0.0332374 -2.38721 -1.39097)
(-0.0247708 -2.53378 -1.3419)
(-0.0137776 -2.66557 -1.19406)
(-0.00611549 -2.80447 -1.15464)
(-0.00218644 -2.93037 -1.18684)
(-0.000759382 -2.94822 -1.19281)
(-0.00171054 -2.84418 -1.17123)
(-0.00443715 -2.75027 -1.12243)
(-0.00486781 -2.66831 -1.09956)
(-0.00199192 -2.57316 -1.07919)
(0.000788084 -2.46538 -1.02927)
(0.00161135 -2.38601 -1.01759)
(0.00103213 -2.37522 -1.08882)
(0.0014188 -2.36853 -1.08822)
(0.00538016 -2.27482 -1.0016)
(0.0127247 -2.03186 -0.831951)
(0.0135518 -1.62135 -0.693884)
(0.00380172 -0.997997 -0.688227)
(-0.00851592 -0.453728 -0.726623)
(-0.0739106 -0.694381 -0.746409)
(-0.816887 -1.21319 -0.357832)
(-1.19484 -0.818914 0.185149)
(-0.460208 -0.982381 0.123765)
(-0.0680194 -1.14077 0.576763)
(0.248834 -1.53159 1.37303)
(0.736083 -2.08494 2.75086)
(0.756253 -3.70652 6.8131)
(0.439992 -4.79391 11.3667)
(0.1722 -3.0731 7.95359)
(-0.00650826 -1.72165 5.19078)
(-0.000256996 -1.00243 3.55457)
(-2.33755e-06 -0.583329 2.4602)
(-9.01698e-09 -0.348714 1.76359)
(-6.32596e-11 -0.202175 1.24179)
(-5.90704e-13 -0.124086 0.926494)
(-3.67497e-15 -0.0681673 0.661216)
(-1.43204e-17 -0.0427967 0.519107)
(-4.77415e-20 -0.0224277 0.378891)
(-3.95531e-22 -0.0148937 0.32516)
(-2.66379e-24 -0.00790807 0.261812)
(-7.35057e-27 -0.00712074 0.247289)
(0.000359882 6.9651 -19.8752)
(0.000361357 2.41727 -4.86219)
(0.000600277 1.52394 -1.85508)
(0.000833693 0.197202 -1.4801)
(0.00104745 -0.100555 -0.81809)
(0.000990184 -0.472728 -0.391295)
(0.000410847 -0.882904 -0.257067)
(0.000247771 -1.10943 -0.266234)
(0.0010923 -1.26126 -0.290372)
(0.00204792 -1.43626 -0.394349)
(0.00180388 -1.61497 -0.419675)
(0.00121312 -1.89456 -0.371511)
(0.00123556 -2.21691 -0.454131)
(0.00159911 -2.54156 -0.498892)
(0.00159433 -2.61646 -0.610638)
(-0.000667599 -2.58215 -0.652168)
(-0.0105295 -2.55503 -0.635652)
(-0.0229896 -2.58515 -0.650145)
(-0.0286279 -2.56917 -0.657588)
(-0.0307242 -2.56217 -0.670777)
(-0.0214543 -2.62151 -0.636209)
(-0.0106565 -2.70228 -0.568028)
(-0.00438311 -2.79409 -0.566918)
(-0.000661343 -2.87767 -0.588107)
(0.00145639 -2.88124 -0.608727)
(0.00144187 -2.7794 -0.636104)
(0.000647547 -2.66694 -0.596563)
(0.000130056 -2.55261 -0.603045)
(-6.63296e-05 -2.43514 -0.551786)
(0.000773361 -2.29856 -0.504786)
(0.0013004 -2.15883 -0.56569)
(0.000759539 -2.24191 -0.593045)
(0.000489025 -2.44702 -0.562985)
(0.000623799 -2.31896 -0.521905)
(0.000720598 -1.97956 -0.425532)
(0.000261562 -1.43185 -0.292011)
(-0.000408917 -0.710772 -0.134901)
(-0.000684476 -0.411029 -0.0199062)
(-0.0150422 -0.697435 -0.0701766)
(-0.231394 -0.725864 -0.156643)
(-0.607811 -0.558114 -0.0364129)
(-0.326226 -0.742894 0.443312)
(-0.0761666 -0.886833 0.832571)
(0.269103 -1.15128 1.47191)
(0.758369 -1.50154 2.70682)
(0.750142 -3.03125 6.838)
(0.454056 -3.8344 11.4617)
(0.1841 -2.32707 8.17851)
(-0.00756539 -1.26476 5.36649)
(-0.000342485 -0.733864 3.6744)
(-3.24589e-06 -0.427656 2.54122)
(-1.25442e-08 -0.256514 1.81957)
(-7.95766e-11 -0.149909 1.28186)
(-7.34142e-13 -0.0923874 0.955507)
(-4.48519e-15 -0.0505691 0.682641)
(-1.70366e-17 -0.0311965 0.535137)
(-5.45501e-20 -0.015134 0.391281)
(-4.30296e-22 -0.00926264 0.335067)
(-2.71948e-24 -0.00348761 0.270164)
(-7.02194e-27 -0.00251704 0.254533)
(-2.1382e-05 4.7917 -13.3132)
(5.65277e-05 2.15265 -1.7668)
(0.000379183 0.643449 0.290305)
(0.000645353 -1.17611 -0.0338525)
(0.000600498 -1.69829 -0.194392)
(0.00069441 -2.00895 -0.358649)
(0.000448511 -2.17608 -0.472319)
(0.000297409 -2.3667 -0.470406)
(0.000265931 -2.49349 -0.457988)
(0.000321433 -2.63916 -0.498413)
(0.000350171 -2.86808 -0.465534)
(0.000137406 -3.11623 -0.473212)
(-0.000389378 -3.38148 -0.487532)
(-0.00144577 -3.61145 -0.548082)
(-0.0023165 -3.77593 -0.680419)
(-0.00508849 -4.01924 -0.909246)
(-0.0510261 -4.35932 -1.03408)
(-1.77691 -3.95214 1.35627)
(-0.474762 -4.71723 -0.709766)
(-0.0315669 -4.71671 -1.12714)
(-0.00824606 -4.76315 -1.05604)
(-0.00413768 -4.7695 -0.988877)
(-0.00261298 -4.76746 -0.963685)
(-0.000955419 -4.74299 -0.92257)
(0.000814712 -4.66206 -0.888922)
(0.00162303 -4.51383 -0.872335)
(0.000841718 -4.31842 -0.847891)
(-0.000600028 -4.11894 -0.851108)
(-0.001332 -3.89652 -0.824174)
(-0.000302097 -3.68758 -0.722616)
(0.000875959 -3.43917 -0.682371)
(0.000829646 -3.17069 -0.593126)
(0.000813656 -2.90566 -0.49097)
(0.00159088 -2.6094 -0.52269)
(0.00254089 -2.28893 -0.691181)
(0.00154606 -2.06817 -0.820781)
(-0.00495531 -1.68665 -1.07833)
(-0.0125382 -0.572947 -1.08928)
(-0.074376 -0.119768 -0.464804)
(-0.571071 -0.09179 0.0483214)
(-0.815685 0.135261 0.222705)
(-0.438858 -0.35822 0.559276)
(-0.147044 -0.598206 0.919262)
(0.276619 -0.711821 1.39085)
(0.741012 -0.660762 2.31099)
(0.766902 -1.57711 5.56789)
(0.507361 -2.64751 11.0615)
(0.214832 -1.56863 8.26509)
(-0.0176973 -0.79519 5.51145)
(-0.000592235 -0.443395 3.76894)
(-5.51262e-06 -0.250225 2.60301)
(-2.06124e-08 -0.143642 1.86103)
(-1.13979e-10 -0.0762865 1.31086)
(-1.01078e-12 -0.0417825 0.975625)
(-5.93786e-15 -0.0192264 0.696848)
(-2.1574e-17 -0.00938396 0.545192)
(-6.56061e-20 -0.0011968 0.398912)
(-4.90186e-22 0.00140836 0.340801)
(-2.89997e-24 0.00459399 0.274667)
(-6.98536e-27 0.00477743 0.258598)
(-0.0946273 5.60152 -1.86052)
(-0.00308225 2.51552 0.639187)
(0.578117 0.375555 0.0857499)
(-0.723898 0.162564 -1.40031)
(-0.902411 0.677697 -2.26669)
(-0.555903 -0.930548 -3.08844)
(-0.122129 -2.06385 -2.65116)
(-0.0572659 -2.58482 -2.32373)
(-0.0455593 -3.06276 -2.15791)
(-0.0459637 -3.64115 -2.06111)
(-0.0600592 -4.15542 -1.86772)
(-0.112555 -4.52823 -1.60891)
(-0.208483 -4.72621 -1.0994)
(-0.396181 -4.91253 0.457682)
(-0.746658 -3.89899 3.99343)
(-1.66264 -3.49201 4.14733)
(-3.55401 -3.5311 2.53001)
(-3.75106 -3.69989 1.56129)
(-2.3122 -5.16195 -0.594561)
(-0.348573 -5.62725 -2.28875)
(0.232294 -5.82869 -2.96924)
(-0.708906 -6.20972 -2.67938)
(-1.49631 -6.3666 -2.19193)
(-0.234402 -6.21183 -2.55807)
(1.10211 -4.33042 -4.58762)
(0.820553 -4.46768 -4.21928)
(-0.938784 -5.51417 -2.26145)
(-4.46222 -4.56663 -1.47812)
(-5.5966 -3.65387 -0.895131)
(0.531133 -5.10791 -0.118013)
(2.85461 -2.51597 -3.09601)
(2.1078 -2.46817 -2.31803)
(0.218543 -2.07334 -1.82837)
(-0.164337 -2.22657 -0.835064)
(0.136631 -2.22881 -0.699509)
(0.161051 -2.13925 -1.21869)
(0.0557486 -2.10668 -2.23878)
(-0.0850459 -1.66511 -2.81322)
(-1.47834 0.439753 -1.44971)
(-1.53206 0.831729 0.351826)
(-1.47211 0.0562173 0.994063)
(-0.656047 -0.666624 0.86343)
(-0.235716 -0.781505 1.0157)
(0.129245 -0.725172 1.46461)
(0.653361 -0.517009 2.30827)
(0.867727 -0.387524 4.47289)
(0.561943 -0.638169 10.0221)
(0.231884 -0.468164 8.24157)
(-0.0335381 -0.229382 5.5046)
(-0.000841489 -0.129996 3.76644)
(-5.44349e-06 -0.0734264 2.60727)
(-1.67645e-08 -0.0412828 1.86796)
(-9.50953e-11 -0.0207943 1.31953)
(-7.61424e-13 -0.00990227 0.98349)
(-3.96078e-15 -0.00251565 0.704162)
(-1.27347e-17 0.00061731 0.550806)
(-3.4003e-20 0.00367416 0.402819)
(-2.2331e-22 0.00456484 0.344117)
(-1.14281e-24 0.00636326 0.277996)
(-2.37828e-27 0.00601222 0.261326)
(-0.0210844 -4.14148 -1.24468)
(-0.13106 -1.4087 1.72191)
(-0.332084 0.616126 -1.30838)
(-0.763118 1.37807 -1.61533)
(-1.3094 1.84723 -1.4335)
(-0.71491 -0.997511 0.273728)
(-0.108752 -2.35195 0.370322)
(-0.0518693 -2.94313 0.988179)
(-0.0144737 -3.47133 1.56104)
(0.00803648 -4.18107 1.84604)
(-0.0205074 -4.85327 1.91912)
(-0.0768336 -5.29012 1.8497)
(-0.0292101 -5.62071 1.58291)
(-0.00769676 -5.74686 1.25693)
(-1.80943 -5.28832 0.504102)
(-5.58086 -3.14228 0.701116)
(-5.07006 -0.717598 2.99448)
(-0.489449 -4.66483 -1.03348)
(-0.683755 -4.30284 1.39573)
(-0.762223 -4.2241 1.64083)
(-0.194653 -4.57971 1.64078)
(0.320926 -4.92782 1.83424)
(-0.405038 -4.87091 2.46839)
(-3.18032 -4.18346 2.79236)
(-3.64842 -3.65267 3.05664)
(4.56865 -4.02905 1.45706)
(3.422 -4.41437 0.90454)
(0.350112 -4.42442 1.92366)
(0.0103121 -2.82798 3.68575)
(-1.87104 -2.96541 3.13718)
(-2.71863 -2.43621 2.97518)
(-0.755798 -3.86307 -0.121735)
(1.68912 -2.91846 -0.891889)
(1.36026 -2.53421 0.13455)
(0.272147 -2.03696 0.227964)
(-0.00850954 -1.4395 -0.377097)
(0.0584811 -0.894763 -1.45078)
(-0.0725491 -0.249446 -2.54761)
(-1.18833 1.8719 -2.36698)
(-1.74117 1.40702 -0.044889)
(-1.65551 0.207381 0.901893)
(-0.673385 -0.598709 1.01675)
(-0.234069 -0.707208 1.36924)
(0.117836 -0.682616 2.09452)
(0.599313 -0.421864 3.1432)
(0.871968 0.0812202 4.83271)
(0.563895 0.858518 10.0808)
(0.231528 0.521019 8.18962)
(-0.0326174 0.260271 5.46751)
(-0.000814485 0.143025 3.74398)
(-5.29582e-06 0.0853449 2.58905)
(-1.63694e-08 0.0553394 1.85211)
(-9.34181e-11 0.036577 1.30535)
(-7.50119e-13 0.0274809 0.971432)
(-3.9111e-15 0.0201006 0.694489)
(-1.2599e-17 0.0174559 0.543272)
(-3.37163e-20 0.0150361 0.397644)
(-2.22121e-22 0.01437 0.340301)
(-1.14104e-24 0.0132722 0.274719)
(-2.38458e-27 0.0136299 0.258761)
(-5.76663e-05 -5.45098 -12.0284)
(-0.000193396 -2.31945 -0.923666)
(-0.000767366 -2.05 0.569863)
(0.00232184 -1.75835 0.37414)
(0.00393205 -1.97006 0.35537)
(0.000519262 -2.41982 0.470582)
(-0.000258763 -2.80925 0.523979)
(-0.000686405 -2.99954 0.574798)
(-0.00187056 -3.2129 0.68341)
(-0.00282903 -3.45756 0.75377)
(-0.00241951 -3.61401 0.810643)
(-0.00179146 -3.66228 0.858385)
(-0.00118234 -3.60816 0.905272)
(-0.000258268 -3.49145 0.895926)
(0.000520509 -3.35925 0.821595)
(0.00183361 -3.25362 0.689335)
(-0.12806 -3.2366 0.695685)
(-2.42576 2.0987 -2.45031)
(-0.372139 2.48861 -2.36597)
(-0.0397929 -3.4985 0.949639)
(-0.0167347 -3.78922 0.497867)
(-0.00717325 -3.84128 0.534309)
(-0.00432926 -3.74912 0.535417)
(-0.0049194 -3.61049 0.496844)
(-0.00547867 -3.51979 0.602955)
(-0.0047149 -3.45581 0.617683)
(-0.00391276 -3.34584 0.624639)
(-0.00383593 -3.18776 0.617464)
(-0.0045646 -3.02621 0.604281)
(-0.00518619 -2.83933 0.569109)
(-0.0078681 -2.57712 0.488927)
(-0.00773262 -2.16184 0.381073)
(0.000292459 -1.65461 0.250908)
(0.00651716 -1.13721 0.0313026)
(0.00684056 -0.604394 -0.311489)
(0.00182323 -0.17459 -0.756005)
(-0.00925653 -0.0592265 -1.39098)
(-0.0272598 -0.398306 -1.83277)
(-0.143423 -0.780562 -0.878109)
(-0.759922 -0.509991 0.704891)
(-0.856871 -0.329562 0.901336)
(-0.396802 -0.509361 0.830702)
(-0.11379 -0.469992 0.998926)
(0.327135 -0.343039 1.65797)
(0.755154 0.213661 3.02516)
(0.743222 1.23022 6.80649)
(0.485509 2.71208 11.0132)
(0.20097 1.53551 8.07391)
(-0.0111609 0.817966 5.42731)
(-0.00042091 0.463427 3.73035)
(-3.79639e-06 0.273854 2.57974)
(-1.40718e-08 0.17136 1.84486)
(-8.32939e-11 0.107884 1.29802)
(-7.39478e-13 0.0741865 0.965683)
(-4.31015e-15 0.0477751 0.688799)
(-1.54971e-17 0.0357306 0.538993)
(-4.6561e-20 0.025388 0.393193)
(-3.43683e-22 0.0214342 0.336566)
(-2.00581e-24 0.0175452 0.270719)
(-4.76235e-27 0.0167711 0.255594)
(-0.287197 -6.1288 -18.7589)
(-0.170342 -2.05618 -6.52953)
(-0.199536 -1.38231 -2.18897)
(-1.12314 -0.0649599 -1.18177)
(-1.55794 0.708028 -1.21628)
(-1.34177 1.20719 -2.09078)
(-0.250431 1.11038 -2.6962)
(0.00152165 -2.47486 0.130063)
(-0.00545765 -2.48981 0.433741)
(-0.0136125 -2.54288 0.557408)
(-0.0268211 -2.58595 0.615271)
(-0.0326775 -2.46541 0.625784)
(-0.0261233 -2.26208 0.556624)
(0.147634 -2.08535 0.530684)
(0.540037 -1.98223 0.43904)
(1.41293 -1.03851 -2.08531)
(-1.81473 1.53233 -2.24953)
(-1.81246 2.17502 -1.31509)
(1.80638 2.23149 -0.290576)
(2.12029 2.00564 0.0368143)
(-0.970065 1.9817 -1.48671)
(-1.7658 0.266634 -2.38701)
(-2.46935 0.393266 -2.14491)
(-0.838732 -2.01766 -0.66387)
(0.277936 -1.91671 0.116262)
(0.513485 -1.82085 0.299126)
(0.563371 -1.65962 0.494167)
(0.369912 -1.27973 -1.32267)
(-0.00437447 -0.00309161 -2.17367)
(-0.530341 0.439012 -2.12948)
(-1.6156 1.11048 -1.78115)
(-1.65277 1.06677 -1.55173)
(0.39171 -0.410839 -0.295617)
(0.353868 -0.17438 -0.108021)
(0.103926 -0.026612 -0.381772)
(0.0120973 0.0266084 -0.846071)
(-0.00307473 -0.208865 -1.42866)
(-0.00754834 -0.41117 -1.71689)
(-0.086991 -0.242883 -1.10346)
(-0.639142 0.0596165 0.287817)
(-0.733231 0.071693 0.793287)
(-0.320998 -0.134253 0.841729)
(-0.0785394 0.0159565 1.27515)
(0.341007 0.32327 2.07504)
(0.829093 1.14533 3.40152)
(0.701803 2.98884 8.57068)
(0.40372 3.6764 11.1531)
(0.153038 2.1953 7.83899)
(-0.0038693 1.25906 5.27267)
(-0.000186804 0.739378 3.63685)
(-1.46876e-06 0.436266 2.52354)
(-5.37002e-09 0.265232 1.81114)
(-3.91191e-11 0.155876 1.27796)
(-3.49239e-13 0.0983706 0.954655)
(-2.03643e-15 0.0592648 0.682338)
(-7.36043e-18 0.0416256 0.536281)
(-2.24352e-20 0.0265813 0.392085)
(-1.68975e-22 0.0214437 0.337259)
(-1.01557e-24 0.0160367 0.271544)
(-2.48567e-27 0.0151736 0.257241)
(-0.00013779 -3.17713 -16.5334)
(-0.000157912 -0.636028 -3.09466)
(-0.000239279 -1.55241 -0.676085)
(-0.000695627 -1.61427 -0.743565)
(-0.0111135 -1.90951 -0.381553)
(-0.131374 -1.958 -0.124984)
(-0.126907 -2.12569 0.203354)
(-0.0788686 -2.36554 0.390408)
(-0.0445207 -2.43711 0.642893)
(-0.0227581 -2.43309 0.888777)
(-0.0170535 -2.40525 1.04268)
(-0.0162929 -2.36976 1.1351)
(0.00365478 -2.27985 1.19537)
(0.0152077 -2.12289 1.29419)
(-0.411339 -1.89427 1.32747)