/*--------------------------------*- C++ -*----------------------------------*\
| =========                 |                                                 |
| \\      /  F ield         | OpenFOAM: The Open Source CFD Toolbox           |
|  \\    /   O peration     | Version:  2.1.1                                 |
|   \\  /    A nd           | Web:      www.OpenFOAM.org                      |
|    \\/     M anipulation  |                                                 |
\*---------------------------------------------------------------------------*/
FoamFile
{
    version     2.0;
    format      ascii;
    class       Cloud<solidParticle>;
    location    "0.00145";
    object      positions;
}
// * * * * * * * * * * * * * * * * * * * * * * * * * * * * * * * * * * * * * //

44193
(
(0.000538661 0.0089866 0.00101502) 20041
(0.0266941 0.00596837 0.0017512) 6053
(0.0266063 0.00597336 0.00175913) 6053
(0.0265119 0.00597964 0.00176819) 6053
(0.0264141 0.00598731 0.00177844) 6052
(0.0263117 0.00599666 0.00179022) 6052
(0.0262044 0.00600788 0.00180361) 6052
(0.026091 0.0060212 0.00181861) 6052
(0.0259738 0.00603613 0.00183432) 13491
(0.0258517 0.0060526 0.0018508) 13491
(0.0257237 0.00607032 0.00186785) 13491
(0.0255906 0.00608877 0.00188514) 13491
(0.0254509 0.00610766 0.0019023) 13490
(0.0253039 0.00612659 0.00191839) 13490
(0.0251517 0.00614517 0.00193254) 13490
(0.0249957 0.00616332 0.00194447) 13489
(0.0248341 0.00618109 0.00195406) 13489
(0.0273511 0.00595141 0.00170166) 6054
(0.0272832 0.00594992 0.001703) 6054
(0.0272123 0.00594867 0.00170426) 6054
(0.0271386 0.00594793 0.00170622) 6054
(0.0270619 0.00594773 0.00170887) 6054
(0.0269811 0.0059483 0.00171249) 6053
(0.0268959 0.00594982 0.00171709) 6053
(0.0268065 0.00595217 0.0017224) 6053
(0.0267107 0.00595561 0.00172871) 6053
(0.026612 0.00596029 0.0017362) 6053
(0.0265072 0.00596664 0.00174535) 6053
(0.0263984 0.00597482 0.00175613) 6052
(0.0262842 0.00598503 0.00176845) 6052
(0.0261656 0.00599763 0.00178283) 6052
(0.0260421 0.0060128 0.00179931) 6052
(0.0259155 0.00603013 0.00181729) 6051
(0.0257818 0.00604942 0.0018363) 13491
(0.0256425 0.00606966 0.0018551) 13491
(0.0278849 0.00598505 0.00170101) 6055
(0.0254955 0.00609072 0.00187374) 13490
(0.0278284 0.00597798 0.00169767) 6055
(0.0190878 0.0028927 0.00339684) 32545
(0.0253427 0.00611139 0.00189077) 13490
(0.0277698 0.00597161 0.00169516) 6055
(0.0189065 0.00288658 0.00339738) 32401
(0.0251823 0.00613182 0.00190586) 13490
(0.0277088 0.00596561 0.00169272) 6055
(0.018717 0.00288063 0.00339834) 32401
(0.0250169 0.00615161 0.00191815) 13490
(0.0276461 0.00596003 0.00169014) 6055
(0.0185099 0.00287404 0.00340007) 32401
(0.0248422 0.00617124 0.00192766) 13489
(0.027581 0.00595502 0.00168819) 6055
(0.0182815 0.00286645 0.00340276) 32257
(0.0246547 0.00619112 0.00193464) 13489
(0.0275134 0.00595073 0.00168701) 6055
(0.0180285 0.00285746 0.00340656) 32257
(0.0274427 0.0059472 0.00168657) 6054
(0.0177508 0.00284682 0.00341151) 32113
(0.027369 0.0059441 0.00168609) 6054
(0.0174466 0.00283392 0.0034177) 31969
(0.0272921 0.00594147 0.00168597) 6054
(0.0171194 0.00281842 0.0034252) 31969
(0.0272115 0.00593945 0.00168679) 6054
(0.0167742 0.00280014 0.00343396) 31825
(0.027126 0.00593807 0.00168846) 6054
(0.0164236 0.00277929 0.0034436) 31681
(0.0270352 0.00593744 0.00169106) 6054
(0.0269415 0.00593766 0.00169407) 6053
(0.0268403 0.00593925 0.00169847) 6053
(0.0267339 0.00594231 0.00170445) 6053
(0.0207651 0.00293371 0.00340596) 32977
(0.0266218 0.00594692 0.00171194) 6053
(0.0206481 0.00292953 0.00340194) 32977
(0.0265032 0.00595325 0.00172058) 6053
(0.0205258 0.00292503 0.00339848) 32977
(0.0263785 0.00596219 0.00173154) 6052
(0.0203949 0.00291988 0.00339572) 32833
(0.0262476 0.00597408 0.00174513) 6052
(0.0282671 0.00606028 0.00173063) 6056
(0.0202588 0.0029144 0.00339334) 32833
(0.0261112 0.00598909 0.00176127) 6052
(0.0282241 0.00604615 0.00172414) 6056
(0.0201145 0.00290842 0.00339146) 32833
(0.0259692 0.00600748 0.00178012) 6051
(0.0281778 0.00603276 0.00171783) 6056
(0.0199634 0.00290213 0.00339001) 32689
(0.0258215 0.00602924 0.00180176) 6051
(0.028128 0.00602046 0.00171217) 6056
(0.0198054 0.00289552 0.00338899) 32689
(0.0256672 0.00605302 0.00182433) 13491
(0.0280753 0.00600864 0.00170584) 6056
(0.0196403 0.00288885 0.00338833) 32689
(0.0255033 0.00607794 0.00184648) 13491
(0.0280199 0.00599765 0.00169945) 6056
(0.0194657 0.00288208 0.00338807) 32545
(0.0253288 0.00610282 0.00186644) 13490
(0.0279611 0.0059877 0.00169371) 6055
(0.0192836 0.00287552 0.00338805) 32545
(0.025145 0.00612685 0.0018829) 13490
(0.0278987 0.00597884 0.00168902) 6055
(0.0190928 0.0028692 0.00338833) 32545
(0.0249488 0.00615052 0.00189584) 13489
(0.0278334 0.00597072 0.00168486) 6055
(0.0188832 0.00286218 0.00338946) 32401
(0.0247349 0.00617439 0.00190517) 13489
(0.0277657 0.00596311 0.00168019) 6055
(0.0186505 0.00285406 0.00339159) 32401
(0.0244967 0.00619896 0.00191082) 13488
(0.0276947 0.00595627 0.00167652) 6055
(0.0183925 0.00284455 0.00339485) 32257
(0.0276203 0.00595012 0.00167376) 6055
(0.0181089 0.00283339 0.00339929) 32257
(0.0275424 0.00594473 0.00167194) 6055
(0.0177969 0.00281997 0.003405) 32113
(0.0274604 0.0059398 0.00166996) 6054
(0.0179125 0.00449179 0.000831496) 13235
(0.0174627 0.00280396 0.0034121) 31969
(0.0273734 0.00593568 0.00166841) 6054
(0.017866 0.00450022 0.000828319) 13235
(0.0171089 0.00278459 0.00342074) 31969
(0.021736 0.00294746 0.00342904) 33265
(0.0272815 0.00593237 0.00166802) 6054
(0.0178173 0.00450841 0.000825032) 13235
(0.0167519 0.0027626 0.00343018) 31825
(0.0216371 0.00294492 0.00342313) 33265
(0.0271847 0.00592992 0.00166888) 6054
(0.0177669 0.00451639 0.000821705) 13235
(0.0164116 0.0027389 0.00343974) 31681
(0.0215342 0.00294205 0.00341742) 33265
(0.0270819 0.00592798 0.00166986) 6054
(0.0177149 0.00452417 0.00081835) 13235
(0.0214266 0.00293878 0.00341193) 33121
(0.0269726 0.00592721 0.00167198) 6053
(0.0176614 0.00453174 0.00081495) 13235
(0.0213134 0.00293507 0.00340672) 33121
(0.0268567 0.00592841 0.00167628) 6053
(0.0176065 0.0045391 0.000811517) 13235
(0.0211948 0.0029309 0.00340184) 33121
(0.026732 0.00593147 0.00168228) 6053
(0.0285662 0.00616118 0.00177848) 13497
(0.0175502 0.00454629 0.000808044) 13235
(0.0210715 0.00292631 0.00339729) 33121
(0.0266015 0.00593632 0.00168941) 6053
(0.0285277 0.00614429 0.0017685) 13497
(0.0174925 0.00455327 0.000804535) 13234
(0.0209416 0.00292116 0.00339332) 32977
(0.0264624 0.00594416 0.00169939) 6052
(0.028487 0.00612781 0.00175845) 13496
(0.0174328 0.00456007 0.000800972) 13234
(0.0208055 0.00291543 0.00338996) 32977
(0.0263153 0.00595561 0.00171244) 6052
(0.0284438 0.00611219 0.00174991) 13496
(0.0173708 0.00456674 0.00079734) 13234
(0.0206641 0.0029092 0.00338695) 32977
(0.0261597 0.00597093 0.0017285) 6052
(0.0283984 0.00609699 0.00174206) 13496
(0.0173069 0.00457333 0.000793634) 13234
(0.0205149 0.00290234 0.0033844) 32977
(0.0259979 0.00599077 0.00174831) 6051
(0.028351 0.00608196 0.00173393) 6056
(0.0172405 0.00457984 0.000789847) 13234
(0.0203612 0.00289521 0.00338216) 32833
(0.0258296 0.00601536 0.00177252) 6051
(0.0283042 0.00606473 0.00172635) 6056
(0.020201 0.0028877 0.00338033) 32833
(0.0256513 0.00604378 0.00179959) 6051
(0.0282545 0.0060476 0.00171874) 6056
(0.020035 0.0028802 0.00337877) 32833
(0.0254608 0.00607412 0.00182658) 13490
(0.0282002 0.00603176 0.00171168) 6056
(0.0198613 0.00287277 0.00337748) 32689
(0.0252551 0.00610415 0.00184977) 13490
(0.028142 0.00601684 0.00170367) 6056
(0.0190495 0.00507528 0.000416452) 7838
(0.0196796 0.00286557 0.00337639) 32689
(0.0250326 0.00613304 0.00186736) 13490
(0.0280793 0.00600323 0.00169555) 6056
(0.018987 0.00508201 0.000418496) 7837
(0.0194889 0.00285885 0.00337543) 32545
(0.0247879 0.0061613 0.00187923) 13489
(0.0280123 0.00599096 0.00168823) 6056
(0.0189213 0.00508845 0.00042024) 7837
(0.0192786 0.00285155 0.00337517) 32545
(0.024509 0.00619087 0.00188637) 13489
(0.0279409 0.00598004 0.00168215) 6055
(0.018691 0.00445226 0.000828411) 13237
(0.018853 0.00509467 0.000421733) 7837
(0.0190449 0.0028434 0.00337579) 32545
(0.0227362 0.00296045 0.00346378) 33553
(0.0278653 0.00596995 0.00167572) 6055
(0.0186467 0.0044615 0.000825549) 13237
(0.0187813 0.00510067 0.000422831) 7837
(0.0187839 0.00283375 0.0033774) 32401
(0.0226441 0.00295907 0.00345678) 33553
(0.0277857 0.00596082 0.00166967) 6055
(0.0186002 0.00447039 0.000822697) 13237
(0.0187069 0.00510651 0.000423689) 7837
(0.018494 0.00282223 0.00338034) 32257
(0.02255 0.00295757 0.00344991) 33553
(0.0277024 0.0059528 0.00166515) 6055
(0.0185512 0.00447897 0.000819838) 13237
(0.01863 0.00511223 0.000424345) 7837
(0.0181726 0.002808 0.00338477) 32257
(0.0224532 0.00295587 0.00344319) 33409
(0.0276149 0.00594557 0.00166182) 6055
(0.0185004 0.00448732 0.000816967) 13237
(0.0185508 0.00511786 0.000424816) 7837
(0.0178222 0.00279026 0.00339093) 32113
(0.022353 0.00295389 0.00343663) 33409
(0.027522 0.00593882 0.00165822) 6055
(0.0184476 0.00449542 0.000814077) 13236
(0.018469 0.00512343 0.000425102) 7836
(0.0174561 0.00276927 0.00339872) 31969
(0.0222494 0.00295164 0.00343021) 33409
(0.0274246 0.00593297 0.00165493) 6054
(0.018393 0.00450329 0.000811163) 13236
(0.018385 0.005129 0.000425247) 7836
(0.0170863 0.00274484 0.00340772) 31969
(0.0221417 0.00294903 0.00342388) 33409
(0.0194861 0.00370053 0.00346631) 14498
(0.0273193 0.00592836 0.00165324) 6054
(0.0288585 0.00634166 0.00188937) 13497
(0.0183377 0.00451097 0.00080856) 13236
(0.0183001 0.00513462 0.000425587) 7836
(0.0167457 0.00271992 0.00341699) 31825
(0.0220295 0.00294604 0.00341789) 33409
(0.0221897 0.00647632 0.00139297) 6764
(0.0194614 0.00370048 0.00346631) 14498
(0.0194368 0.00379408 0.00367164) 14558
(0.0272089 0.00592487 0.00165322) 6054
(0.0288279 0.00631523 0.00187149) 13497
(0.0182813 0.00451857 0.000805891) 13236
(0.0182129 0.00514033 0.000425755) 7836
(0.0164722 0.0026982 0.00342392) 31681
(0.0219135 0.00294265 0.00341194) 33265
(0.0219797 0.00649074 0.00138674) 6823
(0.0194366 0.0037004 0.00346632) 14498
(0.0194125 0.00379402 0.00367161) 14558
(0.0270913 0.0059219 0.00165315) 6054
(0.0287952 0.00629053 0.00185281) 13497
(0.0182233 0.00452602 0.000803164) 13236
(0.0181239 0.00514612 0.000425784) 7836
(0.0217918 0.00293871 0.00340614) 33265
(0.0217504 0.00650822 0.00138049) 6823
(0.0194325 0.00636569 0.00290485) 13538
(0.0194119 0.00370028 0.00346633) 14498
(0.0193882 0.00379393 0.0036716) 14558
(0.0269664 0.00592059 0.00165478) 6053
(0.0287602 0.00626611 0.00183634) 13497
(0.0181641 0.00453337 0.000800365) 13236
(0.0180334 0.00515201 0.000425701) 7836
(0.0202985 0.00500611 0.00038547) 7840
(0.0216669 0.0029343 0.00340046) 33265
(0.0214997 0.00652923 0.00137427) 6822
(0.0194089 0.00636555 0.00290497) 13538
(0.0193872 0.00370014 0.00346635) 14498
(0.0199053 0.00369444 0.00346805) 14499
(0.019364 0.00379382 0.00367161) 14558
(0.0268327 0.00592179 0.00165902) 6053
(0.0287236 0.00624175 0.00182123) 13497
(0.0181038 0.00454061 0.000797498) 13236
(0.0179411 0.00515802 0.000425492) 7835
(0.0202702 0.00501707 0.000391684) 7840
(0.0215379 0.00292944 0.00339498) 33265
(0.0212315 0.00655401 0.00136835) 6822
(0.0193852 0.00636544 0.00290509) 13538
(0.0193626 0.00369996 0.00346637) 14498
(0.0198806 0.00369484 0.00346801) 14499
(0.0193399 0.00379368 0.00367164) 14558
(0.0198465 0.00378901 0.00367745) 14559
(0.0266894 0.00592516 0.0016648) 6053
(0.0286863 0.00621793 0.00180589) 13497
(0.0180424 0.00454776 0.000794553) 13236
(0.0178473 0.00516418 0.000425186) 7835
(0.0202332 0.00502687 0.000396962) 7840
(0.0214024 0.00292389 0.00339004) 33121
(0.0210255 0.00656447 0.00136386) 6822
(0.0193615 0.00636536 0.00290521) 13538
(0.0198506 0.00637497 0.00290138) 13539
(0.0193379 0.00369975 0.0034664) 14498
(0.019856 0.00369522 0.00346797) 14499
(0.0193158 0.00379352 0.00367168) 14558
(0.0198218 0.00378932 0.00367718) 14559
(0.0265374 0.00593139 0.00167305) 6053
(0.0286464 0.00619544 0.00179255) 13497
(0.0179792 0.00455486 0.000791519) 13235
(0.017751 0.00517053 0.00042476) 7835
(0.0201937 0.00503613 0.000401894) 7840
(0.0212626 0.00291781 0.0033856) 33121
(0.0208701 0.00656965 0.00136118) 6821
(0.0193378 0.00636531 0.00290531) 13538
(0.0198281 0.00637437 0.00290157) 13539
(0.0193133 0.00369952 0.00346642) 14498
(0.0198313 0.00369558 0.00346793) 14499
(0.0192917 0.00379333 0.00367175) 14558
(0.0197971 0.00378962 0.00367692) 14559
(0.0263762 0.00594186 0.00168522) 6052
(0.0286031 0.00617391 0.00178087) 13497
(0.0179142 0.00456191 0.000788386) 13235
(0.0176528 0.00517711 0.000424257) 7835
(0.0201518 0.00504492 0.000406529) 7840
(0.021116 0.00291091 0.00338167) 33121
(0.0207277 0.00657387 0.00135892) 6821
(0.019314 0.00636529 0.00290541) 13538
(0.0198055 0.0063738 0.00290176) 13539
(0.0192888 0.00369925 0.00346645) 14498
(0.0198066 0.00369592 0.00346789) 14499
(0.0192677 0.00379312 0.00367182) 14558
(0.0197725 0.00378989 0.00367667) 14559
(0.0262051 0.005957 0.00170111) 6052
(0.0285576 0.00615336 0.00176867) 13497
(0.0178476 0.00456897 0.00078515) 13235
(0.0201074 0.00505326 0.000410867) 7840
(0.0209669 0.00290372 0.003378) 32977
(0.0205959 0.00657844 0.00135734) 6821
(0.0192902 0.0063653 0.0029055) 13538
(0.0197828 0.00637324 0.00290194) 13539
(0.0192643 0.00369896 0.00346649) 14498
(0.0197819 0.00369624 0.00346785) 14499
(0.0192437 0.00379289 0.00367192) 14558
(0.0197478 0.00379015 0.00367642) 14559
(0.0260241 0.00597755 0.0017213) 6052
(0.0285096 0.00613393 0.00175695) 13497
(0.0177791 0.00457602 0.000781803) 13235
(0.0200602 0.00506115 0.000414887) 7840
(0.0208116 0.0028959 0.00337474) 32977
(0.0204874 0.00658363 0.00135734) 6820
(0.0192664 0.00636534 0.00290558) 13538
(0.0197601 0.0063727 0.00290212) 13539
(0.0192398 0.00369863 0.00346652) 14498
(0.0197572 0.00369654 0.00346781) 14499
(0.0192198 0.00379263 0.00367202) 14558
(0.0197232 0.00379039 0.00367619) 14559
(0.0258338 0.00600429 0.00174681) 6051
(0.0284587 0.00611562 0.00174689) 13496
(0.0177089 0.00458308 0.000778341) 13235
(0.0200099 0.00506861 0.000418575) 7840
(0.0206511 0.00288773 0.00337184) 32977
(0.0203915 0.00658912 0.00135813) 6820
(0.0192425 0.00636542 0.00290566) 13538
(0.0197373 0.00637219 0.00290229) 13539
(0.0191219 0.00422593 0.00188793) 14138
(0.0192154 0.00369828 0.00346656) 14498
(0.0197324 0.00369682 0.00346777) 14499
(0.0202458 0.00368507 0.00346971) 14500
(0.0191959 0.00379235 0.00367214) 14558
(0.0196986 0.00379061 0.00367596) 14559
(0.0192469 0.0063714 0.00313406) 15278
(0.0256312 0.00603675 0.00177741) 6051
(0.028405 0.00609801 0.0017375) 13496
(0.0176368 0.00459011 0.000774762) 13235
(0.0199562 0.00507563 0.000421907) 7839
(0.0204842 0.00287922 0.00336934) 32833
(0.0238243 0.00297319 0.00349833) 33841
(0.0202943 0.00659464 0.00135867) 6820
(0.0192187 0.00636552 0.00290572) 13538
(0.0197144 0.00637169 0.00290247) 13539
(0.0190992 0.00422562 0.00188791) 14138
(0.019191 0.0036979 0.00346661) 14498
(0.0197077 0.00369707 0.00346773) 14499
(0.0202215 0.00368563 0.00346964) 14500
(0.0191721 0.00379204 0.00367228) 14558
(0.0196741 0.0037908 0.00367574) 14559
(0.0189776 0.00500928 0.00437741) 14857
(0.019223 0.00637158 0.00313421) 15278
(0.0197213 0.00637561 0.00313235) 15279
(0.0254136 0.00607232 0.00180903) 13490
(0.0283499 0.00607998 0.00172804) 6056
(0.0175629 0.00459716 0.000771087) 13235
(0.0194988 0.00442559 0.000825359) 13238
(0.0198987 0.00508225 0.000424876) 7839
(0.0203105 0.00287093 0.00336707) 32833
(0.0237332 0.00297227 0.00349151) 33841
(0.020196 0.00660013 0.00135897) 6820
(0.0191948 0.00636566 0.00290577) 13538
(0.0196914 0.00637122 0.00290264) 13539
(0.0201564 0.00638698 0.00289832) 13540
(0.0190764 0.0042253 0.00188787) 14138
(0.0191667 0.00369748 0.00346666) 14498
(0.0196829 0.0036973 0.0034677) 14499
(0.0201972 0.00368619 0.00346957) 14500
(0.0191483 0.00379171 0.00367243) 14558
(0.0196495 0.00379098 0.00367553) 14559
(0.0201598 0.00378154 0.00368406) 14560
(0.0189543 0.00500909 0.00437794) 14857
(0.0194466 0.00501263 0.00437468) 14858
(0.0191991 0.00637179 0.00313436) 15278
(0.0196981 0.00637521 0.0031324) 15279
(0.0251747 0.0061073 0.00183494) 13490
(0.0282951 0.00605954 0.00171909) 6056
(0.0174869 0.00460419 0.00076732) 13234
(0.0194583 0.00443593 0.000823205) 13238
(0.0198375 0.0050885 0.000427499) 7839
(0.0201318 0.00286342 0.0033648) 32833
(0.0236394 0.0029713 0.00348486) 33841
(0.0200977 0.00660537 0.00135905) 6820
(0.0191708 0.00636582 0.00290581) 13538
(0.0196684 0.00637077 0.0029028) 13539
(0.0201352 0.0063862 0.0028985) 13540
(0.0190537 0.00422496 0.00188782) 14138
(0.019522 0.00422532 0.00188314) 14139
(0.0191423 0.00369704 0.00346671) 14498
(0.0196582 0.0036975 0.00346766) 14499
(0.0201729 0.00368674 0.0034695) 14500
(0.0191246 0.00379136 0.00367259) 14558
(0.019625 0.00379113 0.00367533) 14559
(0.0201352 0.00378199 0.00368371) 14560
(0.0189309 0.00500891 0.00437848) 14857
(0.0194227 0.00501243 0.00437467) 14858
(0.0191752 0.00637203 0.00313452) 15278
(0.0196747 0.00637484 0.00313245) 15279
(0.0249122 0.00614063 0.00185267) 13489
(0.0282352 0.00604015 0.00171055) 6056
(0.0174085 0.0046112 0.000763423) 13234
(0.0194171 0.00444592 0.00082105) 13238
(0.0197726 0.00509445 0.000429791) 7839
(0.0199427 0.00285641 0.00336262) 32689
(0.0235433 0.0029702 0.00347835) 33841
(0.0199989 0.00661045 0.00135891) 6819
(0.0191468 0.00636601 0.00290584) 13538
(0.0196452 0.00637034 0.00290296) 13539
(0.0201138 0.00638543 0.00289867) 13540
(0.019031 0.0042246 0.00188776) 14138
(0.019499 0.00422537 0.00188344) 14138
(0.0191181 0.00369657 0.00346677) 14498
(0.0196334 0.00369767 0.00346763) 14499
(0.0201486 0.00368728 0.00346942) 14500
(0.0191009 0.00379098 0.00367277) 14558
(0.0196005 0.00379126 0.00367515) 14559
(0.0201106 0.00378244 0.00368336) 14560
(0.0189076 0.00500873 0.00437903) 14857
(0.0193988 0.00501223 0.00437469) 14858
(0.0191513 0.00637229 0.00313468) 15278
(0.0196514 0.00637449 0.0031325) 15279
(0.024611 0.00617402 0.00186284) 13489
(0.0281698 0.00602233 0.00170141) 6056
(0.0193736 0.00445551 0.00081891) 13238
(0.0197038 0.00510012 0.000431751) 7839
(0.0197336 0.00284897 0.00336094) 32689
(0.0234425 0.00296889 0.00347207) 33697
(0.0198993 0.00661541 0.00135852) 6819
(0.0234634 0.00646791 0.00140504) 6766
(0.0191229 0.00636623 0.00290586) 13538
(0.019622 0.00636994 0.00290313) 13539
(0.0200924 0.00638467 0.00289885) 13540
(0.0190083 0.00422422 0.00188768) 14138
(0.019476 0.0042254 0.00188372) 14138
(0.0190938 0.00369607 0.00346683) 14498
(0.0196086 0.00369782 0.0034676) 14499
(0.0201242 0.0036878 0.00346935) 14500
(0.0190773 0.00379058 0.00367297) 14558
(0.019576 0.00379137 0.00367498) 14559
(0.020086 0.00378287 0.00368302) 14560
(0.0188844 0.00500855 0.0043796) 14857
(0.0193749 0.00501202 0.00437474) 14858
(0.0191273 0.00637257 0.00313485) 15278
(0.0196279 0.00637417 0.00313256) 15279
(0.0242541 0.00620944 0.00186694) 13488
(0.0280997 0.00600628 0.00169146) 6056
(0.0193274 0.00446473 0.000816781) 13238
(0.0196314 0.00510554 0.000433411) 7839
(0.0194982 0.00284046 0.00336016) 32545
(0.02334 0.00296753 0.00346592) 33697
(0.0197985 0.00662056 0.00135786) 6819
(0.0233554 0.00646997 0.00140199) 6766
(0.0190988 0.00636648 0.00290587) 13538
(0.0195987 0.00636957 0.00290328) 13539
(0.0200708 0.00638392 0.00289903) 13540
(0.0189857 0.00422383 0.00188759) 14137
(0.019453 0.00422541 0.00188398) 14138
(0.0190696 0.00369554 0.0034669) 14498
(0.0195838 0.00369793 0.00346758) 14499
(0.0200998 0.00368831 0.00346928) 14500
(0.0190537 0.00379015 0.00367317) 14558
(0.0195516 0.00379146 0.00367482) 14559
(0.0200614 0.0037833 0.00368269) 14560
(0.0188611 0.00500837 0.00438019) 14857
(0.019351 0.00501181 0.00437482) 14858
(0.0191034 0.00637289 0.00313502) 15278
(0.0196044 0.00637387 0.00313263) 15279
(0.028023 0.00599187 0.00168253) 6056
(0.0192785 0.00447357 0.000814649) 13238
(0.0195554 0.00511078 0.000434793) 7839
(0.0192334 0.00283054 0.00336044) 32545
(0.0232358 0.00296608 0.00345984) 33697
(0.0196988 0.00662588 0.00135702) 6819
(0.0232294 0.00647378 0.00139794) 6766
(0.0190748 0.00636676 0.00290588) 13538
(0.0195753 0.00636922 0.00290344) 13539
(0.0200492 0.00638318 0.00289921) 13540
(0.0189631 0.00422342 0.00188748) 14137
(0.01943 0.00422541 0.00188424) 14138
(0.0190454 0.00369498 0.00346698) 14498
(0.0195589 0.00369801 0.00346756) 14499
(0.0200753 0.00368881 0.00346922) 14500
(0.0190301 0.00378971 0.0036734) 14558
(0.0195272 0.00379152 0.00367468) 14559
(0.0200367 0.00378371 0.00368236) 14560
(0.0188379 0.0050082 0.00438079) 14857
(0.0193271 0.00501159 0.00437493) 14858
(0.0190794 0.00637322 0.00313519) 15278
(0.0195808 0.00637361 0.0031327) 15279
(0.0279414 0.00597917 0.0016749) 6055
(0.019227 0.0044821 0.000812501) 13238
(0.0194759 0.00511586 0.000435901) 7838
(0.0189338 0.00281827 0.00336224) 32401
(0.0231275 0.00296442 0.00345392) 33697
(0.0195992 0.00663125 0.0013559) 6819
(0.0230853 0.00647946 0.00139305) 6766
(0.0190507 0.00636707 0.00290587) 13538
(0.0195518 0.0063689 0.00290359) 13539
(0.0200274 0.00638245 0.00289939) 13540
(0.019366 0.0044255 0.00177114) 14078
(0.0189405 0.004223 0.00188736) 14137
(0.0194069 0.00422539 0.00188447) 14138
(0.0190213 0.0036944 0.00346705) 14498
(0.0195341 0.00369806 0.00346754) 14499
(0.0200508 0.00368929 0.00346915) 14500
(0.0190066 0.00378924 0.00367364) 14558
(0.0195028 0.00379156 0.00367456) 14559
(0.0200121 0.00378412 0.00368204) 14560
(0.0188146 0.00500803 0.00438139) 14857
(0.0193033 0.00501138 0.00437506) 14858
(0.0190554 0.00637358 0.00313537) 15278
(0.0195571 0.00637337 0.00313278) 15279
(0.0278557 0.00596773 0.00166695) 6055
(0.0191731 0.00449035 0.00081033) 13238
(0.0193931 0.00512085 0.000436772) 7838
(0.0186007 0.0028031 0.00336563) 32401
(0.0230169 0.00296261 0.0034481) 33697
(0.019498 0.00663673 0.00135441) 6818
(0.0229235 0.00648727 0.00138761) 6825
(0.0190266 0.0063674 0.00290585) 13538
(0.0195283 0.00636861 0.00290374) 13539
(0.0200056 0.00638174 0.00289957) 13540
(0.0188825 0.00442331 0.00177257) 14077
(0.0193431 0.00442549 0.00177133) 14078
(0.018918 0.00422256 0.00188723) 14137
(0.0193839 0.00422535 0.00188469) 14138
(0.0189972 0.00369379 0.00346713) 14497
(0.0195092 0.00369808 0.00346753) 14499
(0.0200263 0.00368976 0.0034691) 14500
(0.0189831 0.00378876 0.00367389) 14557
(0.0194784 0.00379157 0.00367446) 14558
(0.0199874 0.00378451 0.00368173) 14559
(0.0187914 0.00500787 0.00438201) 14857
(0.0192795 0.00501117 0.00437523) 14858
(0.0190315 0.00637396 0.00313556) 15278
(0.0195334 0.00637316 0.00313287) 15279
(0.0200177 0.00638467 0.00313249) 15280
(0.0277639 0.0059574 0.00165977) 6055
(0.0289759 0.00654389 0.00201463) 13437
(0.019117 0.00449835 0.00080813) 13238
(0.0193073 0.00512578 0.000437436) 7838
(0.0211224 0.00495706 0.000355877) 7902
(0.0182339 0.00278377 0.00337091) 32257
(0.0229053 0.00296068 0.00344232) 33553
(0.0193943 0.00664212 0.00135242) 6818
(0.0227432 0.00649761 0.00138182) 6825
(0.0190025 0.00636776 0.00290582) 13538
(0.0195047 0.00636834 0.00290388) 13539
(0.0199837 0.00638103 0.00289975) 13539
(0.0188599 0.00442308 0.00177225) 14077
(0.0193203 0.00442547 0.00177149) 14078
(0.0188955 0.00422211 0.00188709) 14137
(0.0193609 0.00422529 0.0018849) 14138
(0.0198251 0.00422018 0.00187523) 14139
(0.0189731 0.00369316 0.00346721) 14497
(0.0194844 0.00369807 0.00346753) 14498
(0.0200017 0.00369022 0.00346904) 14500
(0.0189597 0.00378826 0.00367416) 14557
(0.0194541 0.00379156 0.00367437) 14558
(0.0199627 0.00378489 0.00368142) 14559
(0.0187682 0.00500771 0.00438263) 14857
(0.0192557 0.00501095 0.00437542) 14858
(0.0190075 0.00637436 0.00313575) 15278
(0.0195096 0.00637298 0.00313297) 15279
(0.0199954 0.006384 0.00313248) 15279
(0.0276673 0.00594821 0.00165424) 6055
(0.0289658 0.006525 0.00199081) 13437
(0.0190587 0.00450612 0.000805889) 13238
(0.0192191 0.00513069 0.00043791) 7838
(0.0211311 0.00497323 0.000365644) 7842
(0.0178484 0.00276028 0.00337833) 32113
(0.0227894 0.00295845 0.00343667) 33553
(0.0192864 0.00664745 0.00134977) 6818
(0.0225443 0.00651072 0.00137581) 6825
(0.0189784 0.00636815 0.00290578) 13537
(0.019481 0.00636811 0.00290403) 13538
(0.0199617 0.00638035 0.00289993) 13539
(0.0188372 0.00442284 0.00177192) 14077
(0.0192974 0.00442544 0.00177163) 14078
(0.018873 0.00422164 0.00188693) 14137
(0.0193379 0.00422521 0.00188508) 14138
(0.0198026 0.00422043 0.00187575) 14139
(0.0189491 0.00369251 0.0034673) 14497
(0.0194596 0.00369802 0.00346753) 14498
(0.0199771 0.00369066 0.00346899) 14499
(0.0189363 0.00378773 0.00367444) 14557
(0.0194298 0.00379154 0.0036743) 14558
(0.019938 0.00378526 0.00368113) 14559
(0.018745 0.00500755 0.00438326) 14857
(0.019232 0.00501074 0.00437564) 14858
(0.0189835 0.00637478 0.00313595) 15277
(0.0194858 0.00637283 0.00313307) 15278
(0.0199731 0.00638333 0.00313247) 15279
(0.0275664 0.00593991 0.00164949) 6055
(0.028949 0.00650349 0.00196769) 13437
(0.0189986 0.00451369 0.000803607) 13237
(0.0191283 0.00513562 0.00043821) 7838
(0.0211341 0.00498842 0.000374827) 7842
(0.017464 0.00273335 0.00338704) 31969
(0.0226709 0.00295595 0.00343101) 33553
(0.0191745 0.00665253 0.0013464) 6818
(0.0223253 0.00652721 0.00136974) 6824
(0.0189543 0.00636856 0.00290573) 13537
(0.0194573 0.0063679 0.00290416) 13538
(0.0199395 0.00637967 0.00290011) 13539
(0.0188146 0.00442259 0.00177157) 14077
(0.0192746 0.00442539 0.00177174) 14078
(0.0188505 0.00422116 0.00188675) 14137
(0.0193149 0.00422511 0.00188525) 14138
(0.0197801 0.00422067 0.00187625) 14139
(0.0189251 0.00369184 0.00346738) 14497
(0.0194348 0.00369795 0.00346754) 14498
(0.0199524 0.00369108 0.00346895) 14499
(0.0189129 0.0037872 0.00367473) 14557
(0.0194056 0.00379148 0.00367426) 14558
(0.0199133 0.00378562 0.00368084) 14559
(0.0187219 0.00500739 0.0043839) 14857
(0.0192083 0.00501053 0.00437589) 14858
(0.0189595 0.00637523 0.00313615) 15277
(0.0194619 0.0063727 0.00313318) 15278
(0.0199507 0.00638269 0.00313247) 15279
(0.0274585 0.00593213 0.00164404) 6054
(0.0289396 0.00647138 0.00195162) 13497
(0.0189368 0.00452112 0.000801283) 13237
(0.0190357 0.00514062 0.000438387) 7838
(0.0211316 0.00500266 0.000383441) 7842
(0.0171203 0.00270676 0.00339552) 31969
(0.0225485 0.00295308 0.00342537) 33553
(0.019058 0.00665719 0.0013422) 6818
(0.0220827 0.0065476 0.00136363) 6824
(0.0189301 0.006369 0.00290568) 13537
(0.0194335 0.00636772 0.0029043) 13538
(0.0199173 0.00637902 0.0029003) 13539
(0.0186023 0.00578491 0.0019091) 13777
(0.018792 0.00442234 0.0017712) 14077
(0.0192517 0.00442534 0.00177183) 14078
(0.018828 0.00422067 0.00188657) 14137
(0.019292 0.00422499 0.0018854) 14138
(0.0197576 0.00422089 0.00187674) 14139
(0.0189012 0.00369114 0.00346747) 14497
(0.01941 0.00369785 0.00346755) 14498
(0.0199278 0.00369149 0.00346891) 14499
(0.0188896 0.00378664 0.00367503) 14557
(0.0193814 0.00379141 0.00367423) 14558
(0.0198886 0.00378596 0.00368056) 14559
(0.0186987 0.00500724 0.00438454) 14857
(0.0191847 0.00501032 0.00437616) 14858
(0.0189355 0.00637569 0.00313635) 15277
(0.019438 0.00637261 0.00313329) 15278
(0.0199282 0.00638207 0.00313247) 15279
(0.0273436 0.00592581 0.00164013) 6054
(0.028932 0.00643757 0.00193662) 13497
(0.0188736 0.0045284 0.000798898) 13237
(0.0189412 0.0051457 0.000438432) 7837
(0.0211182 0.00501535 0.00039105) 7842
(0.016858 0.00268506 0.00340101) 31825
(0.0224212 0.00294975 0.00341979) 33409
(0.0189361 0.0066611 0.00133702) 6817
(0.0218659 0.00656057 0.00135855) 6823
(0.0189059 0.00636946 0.00290561) 13537
(0.0194096 0.00636758 0.00290443) 13538
(0.019895 0.00637838 0.00290049) 13539
(0.0185796 0.00578528 0.00190874) 13777
(0.0187695 0.00442208 0.00177081) 14077
(0.0192289 0.00442527 0.0017719) 14078
(0.0188056 0.00422017 0.00188636) 14137
(0.019269 0.00422486 0.00188553) 14138
(0.019735 0.00422111 0.00187721) 14139
(0.0188772 0.00369043 0.00346755) 14497
(0.0193852 0.00369772 0.00346757) 14498
(0.0199031 0.00369188 0.00346887) 14499
(0.0188663 0.00378607 0.00367534) 14557
(0.0193573 0.00379131 0.00367422) 14558
(0.0198639 0.00378628 0.00368029) 14559
(0.0186755 0.00500709 0.00438518) 14857
(0.019161 0.00501011 0.00437645) 14858
(0.0189116 0.00637617 0.00313656) 15277
(0.019414 0.00637255 0.00313341) 15278
(0.0199055 0.00638147 0.00313247) 15279
(0.0272211 0.00592093 0.00163856) 6054
(0.0289158 0.00640404 0.00192022) 13497
(0.018809 0.00453557 0.000796447) 13237
(0.0188443 0.00515085 0.000438316) 7837
(0.0210968 0.00502687 0.000397813) 7842
(0.0222931 0.00294611 0.00341416) 33409
(0.0188075 0.00666423 0.00133069) 6817
(0.0216875 0.00656726 0.001355) 6823
(0.0188818 0.00636995 0.00290554) 13537
(0.0193858 0.00636746 0.00290455) 13538
(0.0198726 0.00637776 0.00290067) 13539
(0.018557 0.00578565 0.00190839) 13777
(0.0187469 0.00442181 0.0017704) 14077
(0.019206 0.00442519 0.00177194) 14078
(0.0196652 0.00442386 0.0017631) 14079
(0.0187832 0.00421965 0.00188615) 14137
(0.0192461 0.0042247 0.00188565) 14138
(0.0197124 0.00422131 0.00187767) 14139
(0.0188533 0.00368969 0.00346763) 14497
(0.0193605 0.00369757 0.00346759) 14498
(0.0198784 0.00369226 0.00346884) 14499
(0.0188431 0.00378548 0.00367565) 14557
(0.0193332 0.00379119 0.00367423) 14558
(0.0198392 0.0037866 0.00368003) 14559
(0.0186523 0.00500694 0.00438582) 14857
(0.0191375 0.0050099 0.00437677) 14858
(0.0188876 0.00637667 0.00313677) 15277
(0.01939 0.00637252 0.00313353) 15278
(0.0198828 0.00638088 0.00313248) 15279
(0.0270905 0.00591667 0.00163692) 6054
(0.0288933 0.00637233 0.0019013) 13497
(0.0187431 0.00454261 0.000793914) 13237
(0.0187456 0.00515616 0.000438086) 7837
(0.021071 0.00503768 0.00040418) 7842
(0.0221608 0.00294193 0.00340858) 33409
(0.0215402 0.00657214 0.00135319) 6823
(0.0188576 0.00637047 0.00290546) 13537
(0.0193618 0.00636738 0.00290467) 13538
(0.0198501 0.00637716 0.00290086) 13539
(0.0185344 0.00578603 0.00190803) 13777
(0.0187243 0.00442153 0.00176998) 14077
(0.0191832 0.00442511 0.00177196) 14078
(0.0196429 0.004424 0.00176358) 14079
(0.0187608 0.00421912 0.00188591) 14137
(0.0192232 0.00422453 0.00188574) 14138
(0.0196897 0.0042215 0.00187811) 14139
(0.0188295 0.00368894 0.00346771) 14497
(0.0193359 0.00369738 0.00346762) 14498