/*--------------------------------*- C++ -*----------------------------------*\
| =========                 |                                                 |
| \\      /  F ield         | OpenFOAM: The Open Source CFD Toolbox           |
|  \\    /   O peration     | Version:  2.1.1                                 |
|   \\  /    A nd           | Web:      www.OpenFOAM.org                      |
|    \\/     M anipulation  |                                                 |
\*---------------------------------------------------------------------------*/
FoamFile
{
    version     2.0;
    format      ascii;
    class       scalarField;
    location    "0.00145";
    object      T;
}
// * * * * * * * * * * * * * * * * * * * * * * * * * * * * * * * * * * * * * //


44193
(
642.871
621.438
613.211
605.392
597.944
590.606
583.808
577.72
572.502
568.283
564.265
560.226
556.834
554.352
552.488
551.556
551.859
692.329
681.754
670.418
659.368
649.113
639.164
628.922
618.08
607
596.353
586.438
576.891
567.254
558.116
549.836
542.881
536.748
531.034
771.295
525.418
761.193
840.794
520.002
750.662
835.464
515.102
739.775
828.858
511.013
728.571
821.256
507.861
717.451
811.379
506.523
706.428
798.962
695.254
785.949
683.688
771.685
3.91153e+180
754.574
4.72822e+222
741.535
644.522
728.413
632.281
620.482
608.105
595.063
873.76
582.353
868.903
570.592
863.813
559.175
3.91153e+180
547.692
837.714
853.576
536.962
828.484
847.952
527.299
818.739
842.629
519.12
808.55
837.071
511.761
797.923
831.361
504.721
787.017
826.012
497.766
775.724
820.134
490.856
763.989
813.16
3.91153e+180
751.843
805.767
479.668
738.926
795.504
477.902
3.91153e+180
784.24
711.989
766.44
698.824
748.283
685.701
879.827
727.36
1.19354e+190
882.221
701.695
896.496
656.837
2.06697e+161
678.595
892.448
640.857
886.207
653.988
2.06685e+161
626.373
2.06697e+161
883.485
2.06697e+161
889.106
878.383
598.552
890.112
872.975
583.576
906.99
890.812
867.247
569.068
896.423
891.189
6.75387e+87
555.739
2.06697e+161
891.1
856.105
542.359
873.406
890.471
850.131
528.988
861.407
6.75387e+87
9.09155e+223
2.06697e+161
849.45
887.655
838.643
506.957
838.411
832.69
498.429
827.329
827.048
489.754
815.903
822.442
481.777
803.85
876.178
817.317
473.824
791.052
6.75387e+87
812.707
466.513
777.826
879.793
807.907
462.891
4.2695e+257
842.309
881.386
801.826
930.528
750.163
2.06697e+161
882.824
9.09155e+223
4.2695e+257
735.112
845.7
884.047
785.427
921.843
719.062
847.117
885.044
769.982
917.48
703.406
848.352
885.673
752.741
912.811
4.2695e+257
849.335
9.09155e+223
9.09155e+223
907.91
672.074
850.006
885.853
700.922
902.651
668.758
655.346
989.297
850.474
885.742
676.16
897.181
806.322
668.397
759.366
637.363
9.09155e+223
850.658
885.461
652.001
891.542
806.585
667.997
757.954
620.602
971.121
850.472
884.892
885.248
807.381
695.386
667.581
756.484
604.807
960.599
849.89
883.909
862.896
878.523
808.826
694.218
667.143
632.577
754.968
588.604
2.06697e+161
848.88
9.09155e+223
865.127
871.498
811.167
693.082
666.68
632.684
753.405
726.466
571.359
937.63
9.09155e+223
881.055
867.09
864.73
809.698
691.981
681.128
666.211
632.795
751.806
726.314
555.479
925.778
845.375
9.09155e+223
868.939
857.481
807.629
690.905
679.613
665.693
632.904
750.168
726.084
2.06697e+161
913.522
9.09155e+223
877.108
870.717
850.155
805.037
689.851
678.103
665.057
632.994
748.483
725.725
2.06697e+161
900.732
9.09155e+223
9.09155e+223
843.263
802.536
688.812
676.61
664.389
633.015
746.767
725.251
2.06697e+161
887.469
835.429
873.84
836.042
800.823
687.797
675.151
663.672
633.017
745.025
724.698
498.994
873.56
830.856
875.091
828.796
799.334
686.799
673.717
827.511
662.922
632.997
599.071
743.258
724.072
673.315
488.932
9.09155e+223
825.673
876.1
822.421
1005.99
797.756
685.824
672.334
824.746
662.103
632.965
598.956
741.477
723.42
699.31
672.209
663.812
479.236
9.09155e+223
819.93
839.012
876.863
816.171
998.045
796.248
684.889
670.992
672.143
821.96
661.261
632.919
598.865
739.668
722.743
683.861
697.861
700.315
671.114
662.146
470.135
832.954
813.663
840.724
877.341
809.378
990.258
794.598
683.987
669.692
670.033
819.137
835.911
660.48
632.884
598.826
737.817
722.016
684.383
696.389
699.216
670.034
660.551
461.271
820.042
9.09155e+223
842.19
877.482
804.157
982.624
792.874
683.121
668.447
668.026
816.294
833.805
659.675
632.857
598.853
735.915
721.238
684.875
694.898
698.099
668.983
659.022
454.791
9.09155e+223
843.525
877.268
798.739
975.355
791.169
849.926
682.306
667.255
666.098
813.426
831.68
658.841
632.813
598.916
733.981
720.407
685.322
693.387
696.96
667.952
657.558
455.018
792.087
844.77
876.699
794.217
968.26
789.731
849.801
681.523
666.104
664.264
810.527
829.526
657.948
632.731
599.009
732.014
719.514
685.723
691.862
695.796
666.935
656.153
776.977
9.09155e+223
875.763
790.649
961.394
788.486
849.363
680.767
664.987
662.481
807.602
827.36
656.989
632.621
599.123
730.013
718.562
686.09
690.324
694.606
665.939
654.807
9.09155e+223
846.843
874.416
787.412
954.71
787.357
848.716
680.027
663.904
660.766
822.86
804.654
825.174
655.967
632.477
599.259
727.977
717.545
686.402
688.781
693.391
664.964
653.513
745.238
9.09155e+223
1.49258e+195
781.558
948.159
786.519
848.039
679.294
662.85
659.099
797.107
820.66
801.683
822.965
654.854
632.297
599.414
725.896
716.469
686.658
687.234
692.152
664.01
652.275
662.009
727.891
1050.91
848.219
870.636
9.09155e+223
3.94662e+180
9.09155e+223
785.721
847.559
678.573
661.822
657.496
794.801
818.493
798.683
820.735
833.931
653.629
632.094
599.582
723.797
715.335
686.848
685.691
690.888
663.079
651.094
659.235
709.723
1039.24
9.09155e+223
9.09155e+223
861.222
759.038
935.457
784.75
847.532
677.84
660.817
655.94
792.52
816.387
795.64
818.474
831.844
652.284
631.851
599.743
721.686
714.141
686.97
684.168
689.603
662.171
649.949
656.567
692.064
1026.57
9.09155e+223
865.33
864.145
743.989
928.965
783.648
848.366
677.1
659.832
654.426
790.275
814.284
792.563
816.185
829.775
650.715
631.585
599.89
719.559
712.888
687.033
682.676
688.306
661.279
648.843
654.012
674.183
1018.57
848.586
861.932
867.015
725.493
922.307
782.706
849.766
676.358
658.873
652.946
592.757
787.993
812.148
789.447
813.862
827.722
649.092
631.279
600.036
717.417
711.579
687.034
681.224
687.005
660.4
647.771
651.554
655.599
1014.41
848.079
857.989
870.009
711.552
915.667
782.007
849.616
675.631
657.94
651.503
591.189
785.575
809.975
786.29
811.5
825.684
647.495
630.953
600.173
715.249
710.223
686.974
679.826
685.698
659.548
646.716
649.187
635.779
1008.62
9.09155e+223
846.376
872.957
908.456
781.262
847.199
674.902
657.026
650.078
589.655
783.135
807.784
834.645
783.089
809.107
823.662
645.931
630.598
600.315
713.076
708.817
686.854
678.489
684.383
658.726
645.676
646.927
616.776
9.09155e+223
845.812
849.17
875.657
900.842
844.311
674.193
656.133
648.687
588.161
780.677
805.575
832.007
779.842
806.681
821.662
644.41
630.222
600.464
710.92
707.37
686.664
677.216
683.064
657.916
644.655
644.757
598.859
9.09155e+223
9.09155e+223
844.19
878.054
892.86
841.608
673.476
655.263
647.305
586.712
778.199
803.433
829.407
776.574
804.223
819.672
642.944
629.805
600.622
708.784
705.887
686.405
676.01
681.74
657.128
643.656
642.674
580.381
9.09155e+223
830.926
841.67
838.707
880.109
884.797
838.379
672.745
654.413
645.939
585.311
775.719
801.268
826.842
773.289
801.736
817.69
641.514
629.279
600.746
706.631
704.358
686.068
674.868
680.413
656.386
642.675
640.683
561.408
968.695
826.357
838.677
832.568
881.977
876.13
835.12
671.94
653.575
644.578
583.967
773.311
799.074
824.332
769.983
799.235
815.726
640.092
628.694
600.796
704.422
702.8
685.656
673.793
679.077
641.715
638.788
544.133
954.92
820.745
834.901
825.918
883.779
867.097
1122.53
832.151
671.119
652.755
643.234
582.671
796.863
821.872
766.713
796.717
813.764
638.733
628.052
600.829
702.195
701.215
685.172
672.787
677.735
640.75
636.98
526.949
941.106
813.642
830.27
818.609
885.439
858.347
1114.89
829.345
670.272
651.95
641.923
581.42
794.64
819.456
763.475
794.173
811.796
637.434
627.385
600.837
699.936
699.613
684.634
671.852
676.384
639.773
635.253
9.09155e+223
927.093
805.742
824.809
810.72
886.865
848.81
1106.43
826.281
669.367
651.16
640.662
580.211
792.407
817.093
760.26
791.605
809.819
636.178
626.669
600.823
697.773
697.998
684.076
670.981
675.022
638.793
633.613
495.91
912.713
796.654
9.09155e+223
865.305
802.139
888.033
839.284
1097.35
822.945
884.684
668.442
650.395
639.44
579.038
790.164
814.771
757.058
789.013
807.846
635.065
625.946
600.783
695.619
696.355
683.486
670.186
673.648
637.811
632.056
483.213
897.792
784.896
811.339
866.289
793.888
888.85
830.705
1087.54
819.341
887.548
667.562
649.658
638.262
577.895
787.92
812.488
753.88
786.391
805.878
634.001
625.227
600.773
693.458
694.676
682.848
669.464
672.264
636.84
630.566
472.951
882.41
774.281
803.322
867.145
787.164
889.338
822.147
1077.14
815.472
889.8
666.713
648.964
637.13
785.668
810.257
750.709
783.738
803.893
633.037
624.457
600.76
691.299
692.955
682.166
668.809
670.865
635.885
629.148
2.06697e+161
866.352
766.317
711.235
794.479
867.878
780.199
889.468
813.362
1066.39
811.552
891.549
665.866
648.305
636.044
783.419
808.054
747.548
781.05
801.901
632.182
623.6
600.717
689.15
691.185
681.428
669.452
634.931
627.785
452.976
2.06697e+161
9.09155e+223
711.47
784.9
868.55
889.209
806.171
1055.43
807.603
892.946
664.984
647.666
635
781.175
805.881
744.396
778.331
799.902
631.419
622.614
600.661
687.023
689.368
680.642
668.03
633.986
626.475
2.06697e+161
836.075
747.392
711.544
774.721
869.282
888.487
798.313
1044.42
803.545
894.091
664.051
647.034
633.992
778.929
803.773
741.267
775.583
797.892
630.759
621.462
600.586
684.93
687.511
679.796
666.598
633.041
625.223
821.656
9.09155e+223
711.397
952.437
952.437
952.437
764.038
870.057
887.328
856.788
792.068
1033.52
799.272
895.201
646.414
633.02
776.689
801.713
738.158
772.809
795.874
630.203
620.205
600.5
682.869
685.623
678.892
665.166
632.109
624.023
806.571
710.853
953.195
2.06697e+161
953.195
9.09155e+223
870.169
885.716
860.392
787.043
1022.92
794.78
896.295
645.806
632.072
774.46
799.688
735.074
770.009
793.843
629.751
618.923
600.392
680.853
683.695
677.933
663.735
631.189
622.875
2.06697e+161
1105.61
710.101
953.895
953.895
953.895
871.06
883.562
863.71
784.112
1012.6
789.968
897.435
645.187
631.153
772.242
797.715
732.025
767.18
791.794
629.427
617.626
600.26
678.904
681.736
676.923
662.306
630.281
621.775
773.132
9.09155e+223
9.09155e+223
954.394
954.394
954.394
871.349
881.019
867.241
781.159
1002.6
785.01
899.174
644.559
630.256
770.033
795.798
729.02
764.312
789.723
629.238
616.319
600.096
677.027
679.727
675.858
660.903
629.392
620.707
2.06697e+161
1093.8
707.913
954.652
954.652
954.652
871.46
878.05
871.41
777.738
993.009
779.902
899.568
643.936
629.383
767.815
793.791
726.06
761.405
787.62
629.189
615.009
599.895
675.211
677.678
674.741
659.533
628.519
619.676
736.807
2.06697e+161
9.09155e+223
4.2695e+257
954.654
954.654
871.349
874.586
876.18
770.537
983.677
774.428
898.721
643.306
628.539
765.465
791.77
723.151
758.46
785.484
629.228
613.705
599.653
673.456
675.612
673.573
658.19
627.654
618.677
716.875
9.09155e+223
869.422
704.495
954.333
954.333
954.333
870.972
870.639
881.514
761.639
974.516
768.649
897.765
642.672
627.716
763.046
789.728
755.47
783.31
629.395
612.408
599.376
671.777
673.532
672.363
656.898
626.812
617.693
697.044
9.09155e+223
9.09155e+223
702.254
953.774
953.774
953.774
870.272
866.122
887.02
747.932
965.412
762.585
895.783
642.034
626.921
760.619
787.658
752.426
781.105
629.7
611.151
599.054
670.208
671.449
671.11
655.666
625.996
616.728
2.06697e+161
1058.41
9.09155e+223
699.652
9.09155e+223
953.057
953.057
869.291
861.026
892.419
736.635
956.488
756.475
893.496
641.385
626.145
758.178
785.661
749.344
778.854
630.125
609.93
598.694
668.792
669.356
669.82
654.492
625.203
615.776
657.182
1044.16
866.082
696.682
952.235
952.235
952.235
985.779
867.83
855.445
897.465
721.392
947.353
750.406
891.315
640.729
625.384
755.736
783.663
746.237
776.572
630.639
608.733
598.298
667.537
667.284
668.487
653.379
624.426
614.844
635.888
1030.36
863.668
9.09155e+223
3.94662e+180
9.09155e+223
951.276
981.33
865.873
849.369
902.045
938.001
1212.87
744.899
888.989
640.062
624.643
753.345
781.632
743.105
774.281
631.182
607.536
597.811
666.424
665.234
667.111
652.33
623.69
613.932
615.477
9.09155e+223
860.643
949.899
949.899
949.899
975.518
863.378
842.731
906.052
928.438
1211.06
740.31
886.412
639.314
623.917
750.987
779.575
739.981
771.973
631.741
606.353
597.245
665.343
663.146
665.7
651.344
622.964
613.027
2.06697e+161
1018.82
9.09155e+223
947.981
947.981
947.981
960.944
960.944
960.944
968.288
860.306
835.453
909.401
918.98
1208.64
735.802
883.865
638.531
623.216
748.65
777.494
736.887
769.636
632.325
605.217
596.619
664.283
661.062
664.251
650.422
622.213
612.123
576.067
1010.56
2.06697e+161
945.492
9.09155e+223
945.492
963.552
963.552
963.552
959.609
856.492
827.411
912.254
909.044
1205.58
732.647
881.019
637.679
622.536
746.322
775.396
733.811
767.275
632.918
604.132
595.927
663.311
658.993
662.773
649.566
621.447
611.205
556.125
9.09155e+223
845.784
942.403
942.403
942.403
966.075
966.075
966.075
949.379
851.853
818.783
914.802
898.762
1201.78
729.621
877.859
913.832
636.768
621.874
743.989
773.283
730.744
764.88
633.594
603.065
595.168
662.459
656.965
661.267
648.772
620.659
610.276
537.482
987.42
838.558
967.973
967.973
967.973
937.839
846.31
911.075
809.427
917.076
888.634
1197.21
874.607
919.304
635.839
621.231
741.643
771.153
727.671
762.459
634.394
602.088
594.424
661.762
654.953
659.724
648.046
619.855
609.344
656.273
2.06697e+161
830.138
9.09155e+223
969.239
969.239
969.239
924.927
839.816
912.212
799.152
919.053
877.626
1191.75
870.858
924.237
634.936
620.611
739.285
769.005
724.599
760.007
635.232
601.187
593.649
661.14
652.933
658.143
647.386
619.016
608.41
501.195
957.078
821.382
738.413
969.814
969.814
969.814
911.004
832.298
913.161
788.155
920.758
867.442
1185.38
866.722
928.611
634.075
620.027
736.939
766.851
721.531
757.528
636.081
600.362
592.829
660.556
650.923
656.519
646.791
618.218
607.482
485.838
9.09155e+223
810.563
738.682
970.038
970.038
970.038
896.26
823.744
913.989
778.296
922.054
911.463
1178.04
862.235
932.432
633.227
619.467
734.61
764.695
718.489
755.02
636.949
599.613
591.931
934.445
934.445
934.445
660.019
648.932
654.853
646.253
617.405
606.548
1035.62
1046.74
473.201
9.09155e+223
799.574
738.662
970.028
970.028
970.028
880.645
814.212
914.694
768.8
922.735
845.644
1169.65
857.446
935.842
632.338
618.919
732.303
762.533
715.479
752.473
637.838
598.938
590.994
936.072
936.072
936.072
659.532
646.969
653.143
645.764
616.561
605.614
1035.37
1048.08
2.06697e+161
909.782
9.09155e+223
738.384
969.987
969.987
969.987
864.373
803.858
915.348
759.142
922.72
835.439
1160.14
852.466
938.955
631.453
618.384
730.031
760.379
712.502
749.899
638.747
598.342
590.019
937.612
937.612
937.612
659.109
645.045
651.394
749.921
645.318
615.708
604.693
688.439
846.162
1035.07
1049.82
2.06697e+161
893.089
778.22
737.825
970.013
970.013
970.013
847.758
792.605
915.97
749.313
922.007
826.868
1149.57
847.01
942.187
630.547
617.845
623.681
727.797
758.231
709.564
747.293
928.612
928.612
928.612
639.678
597.835
589.01
939.056
939.056
939.056
658.751
643.157
649.6
750.001
644.904
614.848
603.782
693.033
851.806
1034.96
1051.99
2.06697e+161
875.694
1177.87
764.707
736.981
969.889
969.889
969.889
830.799
780.542
916.53
739.268
920.826
869.056
817.489
1137.92
841.07
945.111
629.609
617.295
866.282
624.107
732.287
725.614
756.094
706.67
744.654
737.205
930.329
930.329
930.329
640.62
597.428
587.984
940.4
940.4
940.4
658.465
641.283
647.771
750.014
644.512
613.99
602.88
698.022
857.804
1035.48
1054.6
1109.76
858.21
1169.01
9.09155e+223
735.849
969.288
969.288
969.288
767.81
917.008
728.985
919.553
874.792
810.407
1125.48
834.77
948.008
628.638
616.742
868.53
624.551
733.3
723.479
753.972
703.821
741.981
738.719
723.488
931.935
931.935
931.935
641.586
597.115
586.944
941.642
941.642
941.642
836.636
658.25
639.442
645.914
749.976
644.154
967.529
613.129
601.987
702.726
863.804
1775.5
1495.18
1036.43
1058.07
1109.08
842.791
1159.4
735.668
734.388
968.203
968.203
968.203
754.379
917.361
918.234
881.124
802.509
1112.35
828.206
950.386
627.637
616.166
870.628
625.006
734.298
721.381
751.845
701.004
739.267
740.164
725.026
933.482
933.482
933.482
642.584
596.886
585.897
942.809
942.809
942.809
839.219
658.133
637.658
644.025
749.89
643.83
967.795
612.268
601.088
1152.63
707.267
870.559
2225.51
1793.96
1497.57
1037.86
1063.86
1109.45
1378.97
827.263
1148.76
720.756
900.487
732.593
966.813
966.813
966.813
740.279
917.711
916.481
888.584
797.742
1098.84
821.37
950.944
626.644
615.576
872.702
625.478
735.311
719.304
749.627
698.239
736.515
741.567
726.567
934.961
934.961
934.961
643.629
596.768
584.856
943.923
943.923
943.923
841.773
728.206
658.136
635.95
642.117
749.764
643.54
968.079
611.41
600.2
1264.26
1191.4
1150.04
712.305
879.681
2211.83
1810.32
1500.12
1039.38
940.197
1112.26
1412.07
1277.43
1379.09
810.819
1139.02
902.394
730.467
965.233
965.233
965.233
725.708
917.829
913.795
896.997
794.203
1085.37
814.135
950.63
625.662
614.974
874.792
625.986
736.374
717.235
747.286
839
839
839
695.529
733.729
742.957
728.105
936.375
936.375
936.375
644.73
596.763
583.816
945.006
945.006
945.006
844.304
730.83
658.255
634.335
640.191
749.608
643.283
968.349
610.568
599.332
1278.81
1191.13
1147.24
2195.82
1831.43
1503
2804.57
2753.07
943.437
1119.25
1397.08
1595.28
1381.02
793.032
1130.93
903.827
2.06697e+161
963.514
963.514
963.514
1020.76
710.788
917.727
910.379
906.036
791.009
1072.05
806.36
950.345
624.687
614.359
876.821
626.528
737.464
715.163
744.935
841.219
841.219
841.219
692.864
730.894
744.323
729.648
937.744
937.744
937.744
645.905
596.889
582.784
946.053
946.053
946.053
846.8
733.561
658.494
632.821
638.248
749.412
643.055
968.623
609.739
598.479
1319.35
1191.92
1145.3
1854.83
1505.23
2838.04
2803.66
947.609
1130.97
1375.77
1487.9
1369.02
774.398
1123.53
905.021
725.011
961.52
961.52
961.52
1020.33
917.388
906.545
915.066
787.537
1059.05
797.866
949.201
623.676
613.705
878.779
627.104
738.583
713.056
742.564
843.439
843.439
843.439
690.244
727.995
745.675
731.196
939.075
939.075
939.075
647.167
597.138
581.766
947.07
947.07
947.07
849.262
736.389
658.855
631.434
636.303
749.181
718.889
642.857
968.885
608.913
597.641
1316.29
1190.52
1143.79
1875.44
1510.4
2809
2835.38
951.886
1383.39
1379.39
754.741
9.09155e+223
905.597
721.756
798.003
958.957
958.957
958.957
971.624
971.624
971.624
1019
916.768
732.863
902.588
923.737
780.182
1046.36
788.865
947.639
622.653
613.029
880.677
627.716
596.139
739.729
710.937
740.196
845.632
845.632
845.632
687.664
725.062
747.021
698.249
732.761
940.335
940.335
940.335
840.012
648.335
597.49
580.762
948.061
948.061
948.061
851.691
739.299
659.338
630.174
634.359
748.92
719.942
642.703
969.123
608.113
596.819
1330.19
1190.41
1140.6
1094.83
1897.35
1513.69
2778.3
2841.35
956.094
1102.06
1380.83
1379.71
733.666
1109.05
905.543
718.13
798.194
955.921
955.921
955.921
977.128
977.128
977.128
1016.6
915.827
733.224
898.256
931.931
769.038
1034.06
1252.51
779.72
945.768
621.623
612.337
882.498
628.367
596.356
740.902
708.866
737.894
847.789
847.789
847.789
685.104
722.1
748.369
701.288
734.348
941.525
941.525
941.525
842.97
649.443
597.899
579.774
949.011
949.011
949.011
854.079
742.277
659.929
629.046
632.422
748.634
720.936
642.595
969.327
607.351
596.014
1333.62
1190.41
1139.37
1090.65
1918.05
1516.61
2800.3
960.344
969.412
1384.87
1379.42
711.792
9.09155e+223
904.679
714.115
797.756
952.474
952.474
952.474
981.859
981.859
981.859
1013.44
914.517
732.319
893.023
939.528
753.458
1022.03
1255.49
770.455
943.785
620.522
611.601
884.223
819.754
629.061
596.594
742.101
706.904
735.616
849.928
849.928
849.928
682.601
719.132
749.748
704.308
735.942
942.655
942.655
942.655
845.846
650.548
598.341
578.773
949.922
949.922
949.922
856.405
745.29
660.589
628.04
630.498
748.322
721.875
642.531
969.491
606.579
595.262
1347.22
1190.61
1138.42
1088.1
1937.01
1519.97
1351.37
2695.81
961.762
965.8
1380.55
1378.99
690.182
9.09155e+223
902.993
709.683
795.989
948.631
948.631
948.631
985.977
985.977
985.977
1009.37
912.82
730.297
887.244
946.373
738.177
1010.47
1258.36
761.032
941.916
619.325
610.746
885.849
823.009
629.796
596.853
743.335
735.095
705.019
733.356
852.058
852.058
852.058
680.166
716.162
751.161
707.296
737.542
943.729
943.729
943.729
848.643
651.652
598.792
577.797
950.793
950.793
950.793
858.667
748.312
661.328
627.063
628.567
747.976
722.739
642.512
969.633
605.707
594.501
1356.73
1190.93
1137.43
1087.6
1951.67
1525.88
1349.95
2166.18
2151.61
2359.45
2904.98
2624.07
964.075
969.836
1379.9
1377.7
9.09155e+223
1083.16
900.508
704.67
793.68
944.459
944.459
944.459
989.468
989.468
989.468
1004.21
910.638
728.44
880.868
952.474
726.185
998.893
1260.93
752.083
939.571
618.054
609.846
887.365
826.277
630.569
597.135
744.607
735.778
703.2
731.112
854.17
854.17
854.17
677.816
713.197
752.598
710.241
739.162
944.752
944.752
944.752
851.364
733.215
652.766
599.257
576.819
951.629
951.629
951.629
860.867
751.335
662.162
626.116
626.633
747.587
723.517
642.526
969.769
604.792
593.719
1365.62
1191.11
1136.93
1087.89
1963.15
1534.5
1349.42
2152.64
2148.15
2289.73
2921.05
2135.58
2585.53
2051.89
968.111
972.16
1382.08
1380.76
1364.59
645.718
1069.43
897.3
699.067
791.158
939.831
939.831
939.831
992.41
992.41
992.41
996.25
2370.19
907.916
726.997
874.358
957.755
987.323
1263.13
743.463
936.833
928.602
616.832
608.915
888.76
829.544
631.384
597.434
745.923
736.513
701.455
728.876
856.272
856.272
856.272
771.833
675.56
710.225
754.052
713.135
740.805
688.569
945.726
945.726
945.726
854.012
736.61
653.884
599.74
575.863
952.432
952.432
952.432
863.008
754.355
663.108
625.247
624.724
747.16
724.21
834.768
642.579
969.908
685.102
603.881
592.907
1376.32
1190.89
1135.85
1088.42
1970.4
1543.8
1349.27
2139.58
2137.56
2217.36
2934.2
2182.93
2545.09
2115.89
973.149
975.451
1381.51
1382.58
1310.2
623.854
1053.25
893.467
693.018
788.18
934.784
934.784
934.784
994.614
994.614
994.614
989.592
990.55
904.715
725.722
866.966
962.165
943.725
976.209
1264.85
735.176
933.72
937.512
615.712
607.955
890.085
832.805
632.248
597.751
747.279
737.307
699.371
699.786
726.627
858.371
858.371
858.371
774.133
673.399
707.268
755.521
716.007
742.462
690.212
946.647
946.647
946.647
856.59
740.059
655.025
600.292
574.952
953.206
953.206
953.206
865.092
757.369
664.175
624.473
622.848
746.7
724.819
834.756
642.67
970.04
684.909
602.98
592.08
1378.3
1189.55
1134.72
1087.79
1974.2
1554.11
1349.51
2135.68
2167.13
2795.85
2243.36
2511.97
2243.85
983.324
980.055
1378.28
1394.1
1279.09
603.062
9.09155e+223
888.233
686.521
764.662
784.588
929.354
929.354
6.22655e+228
995.877
995.877
995.877
981.59
982.042
900.59
952.002
858.556
965.903
947.548
964.892
1265.91
729.204
930.197
945.513
614.694
606.983
891.387
836.044
633.166
598.088
748.673
738.157
699.431
698.188
724.365
860.464
860.464
860.464
776.473
671.337
704.331
757.044
718.855
744.138
691.891
947.521
947.521
947.521
859.101
743.539
656.183
600.944
574.154
953.951
953.951
953.951
867.119
760.37
665.377
623.834
620.953
746.21
725.36
834.699
642.801
970.178
684.737
602.084
591.212
1373.39
1184.35
1134
1086.43
1973.89
1566
1350.1
2134.95
2141.84
2656.71
2310.73
2363.02
994.308
982.819
1363.05
1542.04
1283.76
9.09155e+223
1032.62
882.265
679.747
765.17
779.597
923.321
923.321
923.321
996.373
996.373
996.373
973.206
972.343
895.763
952.88
849.128
969.065
951.103
953.472
1266.23
723.049
926.353
952.666
613.748
606.074
892.636
839.275
634.143
598.444
750.096
739.073
699.643
696.67
722.1
778.855
671.706
669.37
701.416
758.629
721.662
693.602
948.352
948.352
948.352
861.546
747.036
657.431
601.629
573.435
954.667
954.667
954.667
869.085
763.356
666.724
623.263
619.07
745.734
725.864
834.601
642.967
970.314
684.591
601.194
590.321
2066.18
1171.65
1132.58
1085.79
1972.88
1578.02
1351.06
2134.67
2114.34
2609.98
2358.76
989.173
1329.75
1664.83
1285.68
560.631
1025.9
9.09155e+223
672.719
765.478
773.056
916.786
916.786
916.786
996.407
996.407
996.407
962.191
961.177
890.069
953.694
839.399
971.604
954.354
942.434
1265.56
718.54
922.198
959.291
612.866
605.192
893.833
842.493
635.184
598.819
751.523
740.057
700.056
695.203
719.838
781.27
671.889
667.482
698.526
760.251
724.421
695.345
949.147
949.147
949.147
863.926
750.532
658.61
602.321
572.769
955.357
955.357
955.357
870.991
766.325
668.228
622.731
617.189
745.282
726.332
834.504
643.164
970.45
684.474
600.386
589.482
2095.05
1161.49
1131.44
1085.2
1971.54
1592.08
1352.07
2126.51
2084.65
2033.19
2660.4
2475.09
994.204
1303.65
1648.23
1286.74
2.06697e+161
1016.12
9.09155e+223
665.504
765.589
766.654
909.862
909.862
909.862
996.369
996.369
996.369
949.2
948.427
883.427
954.442
828.79
973.56
957.272
930.543
1263.88
712.847
917.495
965.447
612.006
604.277
894.99
845.692
636.275
599.214
752.973
741.101
700.644
693.802
717.6
783.742
718.586
672.229
665.69
695.656
761.89
727.132
697.12
949.902
949.902
949.902
866.232
753.996
659.73
603.025
572.153
956.014
956.014
956.014
872.832
769.271
669.875
622.238
615.328
744.853
726.775
834.432
643.386
970.581
684.391
647.742
599.654
588.61
2122.75
1174.79
1130.3
1084.59
1969.1
1605.13
1352.99
2125.35
2065.57
2093.14
2449.64
1002.46
1288.16
1437.35
1287.47
520.811
1004.07
858.562
658.09
765.503
760.359
902.32
902.32
902.32
996.447
996.447
996.447
935.613
934.02
875.809
955.189
817.367
974.962
959.833
918.293
1261.21
706.811
912.401
971.1
611.156
603.343
896.118
848.866
637.41
599.626
575.276
754.455
742.195
747.524
701.388
692.463
715.382
786.272
720.764
672.716
664.002
692.809
763.534
729.827
698.926
950.626
950.626
950.626
868.459
757.399
660.833
603.75
571.593
956.633
956.633
956.633
874.607
772.173
671.669
621.803
613.483
744.45
727.195
834.392
643.62
850.162
684.346
647.456
598.975
587.72
2154.9
1192.39
1129.24
1083.92
1963.18
1615.16
1354.08
2123.14
2046.82
2104.21
2534.7
2856.58
1309.45
1012.8
1277.33
1355.23
1287.33
503.782
989.266
9.09155e+223
765.212
753.416
894.044
894.044
894.044
997.47
996.689
996.689
922
918.019
867.23
955.927
806.358
975.927
962.045
906.664
1257.4
906.944
976.44
610.311
602.359
897.21
852.01
638.591
600.055
575.351
755.93
743.345
750.521
702.283
691.213
713.205
788.852
723.054
673.346
662.404
689.985
765.195
732.507
686.874
700.762
951.342
951.342
951.342
870.571
760.741
661.948
604.506
571.1
957.2
957.2
957.2
876.296
775.022
673.606
621.429
611.664
744.064
727.567
688.357
834.388
675.003
643.865
851.877
684.379
647.232
598.267
586.81
2178.03
1195.44
1128.15
1083.29
1957.31
1627.99
1355.5
2108
2028.53
2128.85
2648.33
2816.91
1302.76
1025.15
1268.92
1333.58
1286.57
488.706
973.915
838.475
764.713
745.007
884.809
884.809
884.809
996.607
996.607
996.607
906.403
900.623
857.762
956.458
795.542
976.552
963.941
893.944
1252.39
901.097
981.728
609.469
601.35
898.229
855.117
639.801
600.51
575.446
757.43
744.549
753.662
703.347
690.058
711.068
791.467
725.463
674.108
660.905
687.196
766.885
735.172
691.336
702.629
952.051
952.051
952.051
872.57
764.022
663.092
605.295
570.685
957.716
957.716
957.716
877.898
777.815
675.677
621.125
609.878
743.683
727.892
690.083
834.417
675.993
644.122
853.567
684.488
647.021
618.497
597.559
585.895
2029.39
2205.82
1191.12
1126.68
1082.11
1949.85
1646.31
1357.26
2092.51
2012.2
2146.72
2749.44
2726.34
1296.63
1035.22
1262.33
1305.45
1282.09
2.06697e+161
958.009
3.94662e+180
827.692
764.003
874.776
874.776
874.776
995.967
995.967
995.967
881.624
847.485
956.934
784.796
976.915
965.46
881.661
1246.39
894.958
986.391
625.343
608.628
600.334
858.181
641.05
600.999
575.571
559.114
758.961
745.804
756.963
704.579
688.996
708.968
794.109
727.982
675.003
659.504
684.443
768.604
737.844
695.841
704.522
874.459
767.245
664.295
606.097
570.341
958.181
958.181
958.181
879.418
780.551
677.877
620.892
608.122
743.315
728.171
691.773
834.474
789.882
677.024
644.403
855.254
646.816
618.028
596.859
584.978
1945.43
2180.97
1194.45
1125.88
1079.9
1940.33
1666.58
1359.45
2077.32
2007.37
2155.84
2641.93
1290.52
1047.06
1256.95
1304.16
1283.43
465.395
942.022
1239.91
816.51
914.801
763.06
864.045
864.045
864.045
994.869
994.869
994.869
861.316
836.434
957.401
773.834
976.552
889.864
966.646
870.349
1239.56
888.506
990.339
624.762
607.789
599.299
861.193
810.816
642.344
601.526
575.727
559.084
747.11
760.439
705.967
688
706.895
796.77
730.621
676.042
658.196
681.728
740.529
700.385
706.44
876.234
770.401
665.618
606.934
570.085
958.606
958.606
958.606
880.86
783.234
680.186
620.734
606.424
742.963
728.407
693.419
834.551
790.706
678.091
644.718
856.93
646.625
617.567
596.156
584.065
1916.85
2255.02
1196.67
1125.05
1077.89
1685.29
1361.88
2062.11
2003.74
2144.67
1901.56
2613.6
2005.36
1285.5
1252.17
1304.38
1280.56
460.181
9.09155e+223
1230.22
803.803
918.948
761.877
993.535
993.535
993.535
840.495
824.633
957.848
762.627
975.283
899.145
967.578
858.523
1231.75
881.764
993.82
624.218
606.969
598.274
864.146
814.705
602.09
575.914
559.06
748.478
746.346
764.069
707.508
687.032
704.855
799.449
733.397
677.211
656.987
679.051
743.232
704.971
708.383
877.911
773.541
667.112
607.819
569.924
882.224
785.854
682.615
620.682
604.802
742.626
728.602
695.032
834.654
791.465
679.197
645.075
858.595
646.457
617.121
595.429
583.147
1918.76
1200.27
1123.15
1075.85
1702.04
1364.47
2053.35
2000.28
2111.75
2948.88
1937.47
2602.41
1967.78
1281.24
1305.28
1280.47
2.06697e+161
1221.38
9.09155e+223
922.995
760.464
992.184
992.184
992.184
819.043
811.965
958.251
751.302
973.392
909.798
968.062
849.983
1222.84
874.725
995.804
623.72
606.17
597.197
867.033
818.737
602.691
576.124
559.053
749.909
747.348
767.858
709.233
686.145
702.828
802.18
736.298
678.498
655.862
676.415
745.944
709.606
710.351
879.542
776.665
668.813
608.757
569.87
883.532
788.447
685.175
620.747
603.261
742.308
728.757
696.614
834.79
792.164
680.337
645.471
860.239
646.32
616.69
594.731
582.237
1988.75
1205.58
1121.52
1073.91
1716.29
1367.3
2045.5