/*--------------------------------*- C++ -*----------------------------------*\
| =========                 |                                                 |
| \\      /  F ield         | OpenFOAM: The Open Source CFD Toolbox           |
|  \\    /   O peration     | Version:  2.1.1                                 |
|   \\  /    A nd           | Web:      www.OpenFOAM.org                      |
|    \\/     M anipulation  |                                                 |
\*---------------------------------------------------------------------------*/
FoamFile
{
    version     2.0;
    format      ascii;
    class       vectorField;
    location    "0.00145";
    object      U;
}
// * * * * * * * * * * * * * * * * * * * * * * * * * * * * * * * * * * * * * //


44193
(
(-0.637447 -0.0270774 0.0233515)
(22.6741 -0.999876 -1.02722)
(22.6369 -1.03247 -1.04361)
(22.5952 -1.07753 -1.06408)
(22.5499 -1.13127 -1.08469)
(22.5023 -1.17517 -1.10462)
(22.4592 -1.20859 -1.1072)
(22.4246 -1.22417 -1.0821)
(22.4064 -1.21423 -1.02156)
(22.3897 -1.17928 -0.950341)
(22.3505 -1.12897 -0.882736)
(22.2888 -1.06668 -0.821634)
(22.2672 -0.987015 -0.737029)
(22.2121 -0.91429 -0.662262)
(22.1454 -0.844295 -0.591697)
(22.0946 -0.77422 -0.521834)
(22.0453 -0.714292 -0.465947)
(22.907 -0.736763 -0.968384)
(22.8831 -0.750235 -0.959894)
(22.8571 -0.758882 -0.951368)
(22.8312 -0.771582 -0.9462)
(22.8085 -0.801303 -0.951106)
(22.7929 -0.861377 -0.970836)
(22.772 -0.921563 -0.994451)
(22.7399 -0.957252 -1.00875)
(22.7012 -0.985777 -1.02057)
(22.6583 -1.01808 -1.03673)
(22.6095 -1.06871 -1.05973)
(22.5541 -1.12959 -1.08553)
(22.4926 -1.1799 -1.11677)
(22.4319 -1.22194 -1.13562)
(22.3775 -1.24741 -1.12882)
(22.3468 -1.24193 -1.07535)
(22.3362 -1.19439 -0.977033)
(22.3028 -1.12878 -0.880359)
(23.0242 -0.42477 -1.02894)
(22.2601 -1.04281 -0.779489)
(23.018 -0.459975 -1.01787)
(8.86621 -0.353603 0.406719)
(22.2229 -0.958966 -0.691048)
(23.0002 -0.480412 -1.00482)
(8.65435 -0.359703 0.408312)
(22.1375 -0.883005 -0.616296)
(22.9777 -0.495739 -0.990485)
(8.43584 -0.36603 0.410371)
(22.0566 -0.809517 -0.545936)
(22.9542 -0.509949 -0.975617)
(8.19312 -0.373286 0.41369)
(22.0124 -0.736986 -0.476394)
(22.9355 -0.538568 -0.962586)
(7.92094 -0.381822 0.418735)
(21.8334 -0.695784 -0.460764)
(22.9298 -0.593647 -0.957234)
(7.61459 -0.392567 0.425375)
(22.9388 -0.672838 -0.963424)
(7.27254 -0.405978 0.434147)
(22.9286 -0.71993 -0.963879)
(6.8899 -0.422759 0.444816)
(22.9047 -0.739795 -0.956704)
(6.47494 -0.442674 0.456777)
(22.8757 -0.748837 -0.946112)
(6.02829 -0.466554 0.470413)
(22.847 -0.765678 -0.94133)
(5.56887 -0.493699 0.484743)
(22.8231 -0.809326 -0.951839)
(22.8068 -0.8893 -0.983301)
(22.7746 -0.946259 -1.0088)
(22.7313 -0.977392 -1.02089)
(10.4043 -0.320101 0.432765)
(22.6814 -1.01019 -1.03579)
(10.2758 -0.325103 0.427757)
(22.622 -1.06944 -1.06425)
(10.1399 -0.330407 0.423429)
(22.5517 -1.14173 -1.09907)
(9.99013 -0.336287 0.420081)
(22.4716 -1.19775 -1.13979)
(22.4256 0.402998 -1.22115)
(9.83381 -0.342729 0.417117)
(22.3872 -1.24712 -1.17221)
(22.6325 0.196861 -1.14923)
(9.66609 -0.349699 0.414738)
(22.3103 -1.27855 -1.17148)
(22.7777 0.0337308 -1.10233)
(9.48801 -0.356572 0.413004)
(22.2594 -1.27253 -1.12517)
(22.8629 -0.0784554 -1.07434)
(9.30086 -0.363912 0.411735)
(22.2418 -1.20704 -0.999834)
(22.9067 -0.155505 -1.0599)
(9.1056 -0.371424 0.410866)
(22.2034 -1.10664 -0.853662)
(22.9536 -0.23967 -1.04621)
(8.897 -0.378531 0.410701)
(22.1687 -0.994406 -0.714947)
(23.0121 -0.34025 -1.03104)
(8.68099 -0.385636 0.41088)
(22.052 -0.904009 -0.625695)
(23.0371 -0.411767 -1.01705)
(8.45621 -0.392713 0.411437)
(22.0075 -0.801009 -0.522181)
(23.0327 -0.453487 -1.00366)
(8.20317 -0.400227 0.413713)
(21.8218 -0.747158 -0.492613)
(23.0118 -0.474725 -0.991554)
(7.92135 -0.409857 0.417149)
(21.5527 -0.685441 -0.473589)
(22.9823 -0.486206 -0.976521)
(7.59916 -0.421243 0.423029)
(22.9558 -0.50641 -0.960569)
(7.24478 -0.434914 0.430314)
(22.942 -0.554201 -0.949956)
(6.844 -0.452076 0.440514)
(22.9541 -0.647865 -0.95836)
(6.57757 -0.432405 -0.342464)
(6.41062 -0.472606 0.452528)
(22.9485 -0.7131 -0.964765)
(6.53563 -0.423785 -0.345986)
(5.94589 -0.497333 0.466406)
(11.1286 -0.30497 0.485043)
(22.9201 -0.739266 -0.959747)
(6.49034 -0.415436 -0.349671)
(5.46832 -0.525746 0.481312)
(11.0262 -0.308958 0.476968)
(22.8844 -0.75046 -0.949511)
(6.44241 -0.407311 -0.353441)
(5.00566 -0.556968 0.496105)
(10.9181 -0.313294 0.469141)
(22.8515 -0.784235 -0.955075)
(6.3922 -0.399397 -0.357292)
(10.8023 -0.317944 0.461708)
(22.8299 -0.871945 -0.990846)
(6.33944 -0.391714 -0.361241)
(10.6788 -0.323249 0.454542)
(22.7963 -0.952969 -1.02858)
(6.28438 -0.384248 -0.365274)
(10.5471 -0.329087 0.447804)
(22.7424 -0.991758 -1.04502)
(21.9574 0.842669 -1.6398)
(6.22709 -0.376979 -0.3694)
(10.4081 -0.33541 0.44155)
(22.679 -1.03261 -1.06544)
(22.0021 0.81285 -1.6058)
(6.16741 -0.369925 -0.373618)
(10.258 -0.342094 0.436241)
(22.6002 -1.11398 -1.10281)
(22.0309 0.802673 -1.56645)
(6.10454 -0.36307 -0.377948)
(10.0987 -0.349804 0.431689)
(22.5055 -1.19231 -1.15025)
(22.0014 0.829515 -1.52852)
(6.0379 -0.35639 -0.382393)
(9.93146 -0.35815 0.427671)
(22.4006 -1.25001 -1.19571)
(21.9553 0.861122 -1.48125)
(5.96805 -0.349817 -0.38697)
(9.7521 -0.367118 0.424354)
(22.2905 -1.3011 -1.22459)
(21.9796 0.829418 -1.39894)
(5.89433 -0.343357 -0.391691)
(9.56531 -0.376045 0.42156)
(22.1909 -1.32621 -1.21571)
(22.293 0.553816 -1.25944)
(9.37083 -0.385878 0.41916)
(22.137 -1.28182 -1.12249)
(22.5717 0.286188 -1.15991)
(9.16919 -0.395506 0.417094)
(22.1142 -1.15801 -0.922345)
(22.7633 0.0760739 -1.09746)
(8.95596 -0.404307 0.415537)
(22.0361 -1.01953 -0.744625)
(22.8699 -0.0650204 -1.06571)
(7.17668 -0.364828 -0.87293)
(8.73581 -0.413328 0.413884)
(21.8888 -0.896118 -0.614314)
(22.9164 -0.153093 -1.05281)
(7.10884 -0.359783 -0.871904)
(8.50453 -0.420858 0.412466)
(21.7748 -0.794932 -0.52604)
(22.9677 -0.251227 -1.03802)
(7.03617 -0.355058 -0.871205)
(8.2474 -0.428889 0.41202)
(21.398 -0.73556 -0.52311)
(23.0305 -0.364517 -1.02052)
(6.98416 -0.479816 -0.360463)
(6.95931 -0.350632 -0.87076)
(7.96013 -0.438027 0.412591)
(11.9256 -0.278639 0.561344)
(23.0452 -0.43394 -1.0079)
(6.94628 -0.470838 -0.363411)
(6.87718 -0.346465 -0.870733)
(7.63149 -0.448703 0.415202)
(11.8308 -0.282522 0.551283)
(23.0246 -0.466696 -0.995982)
(6.90511 -0.462218 -0.366365)
(6.79095 -0.342428 -0.870974)
(7.26212 -0.462146 0.419698)
(11.7337 -0.286317 0.541405)
(22.9898 -0.478792 -0.98036)
(6.86062 -0.453908 -0.369353)
(6.70114 -0.338397 -0.871433)
(6.84554 -0.479308 0.426908)
(11.6329 -0.290075 0.531787)
(22.9589 -0.503354 -0.963634)
(6.81325 -0.445721 -0.372413)
(6.60829 -0.334283 -0.872128)
(6.37622 -0.502085 0.437981)
(11.5278 -0.294204 0.522262)
(22.9493 -0.572465 -0.960026)
(6.76294 -0.437726 -0.375546)
(6.51186 -0.330058 -0.873078)
(5.88293 -0.529193 0.451277)
(11.4181 -0.298572 0.512874)
(22.965 -0.685999 -0.979466)
(6.71005 -0.430016 -0.37872)
(6.41195 -0.325834 -0.87417)
(5.37702 -0.560882 0.466051)
(11.3025 -0.303356 0.503587)
(22.701 0.035315 0.0416214)
(22.943 -0.741029 -0.985219)
(20.9558 1.77629 -1.8381)
(6.65671 -0.422424 -0.381554)
(6.31045 -0.321621 -0.874986)
(4.90203 -0.594089 0.481269)
(11.1805 -0.308538 0.494707)
(10.9214 -0.275206 -0.798902)
(22.6992 0.0354625 0.0412906)
(22.7166 0.0361259 0.014269)
(22.9014 -0.758443 -0.977247)
(21.1495 1.60194 -1.80563)
(6.60141 -0.414884 -0.384498)
(6.20513 -0.317275 -0.875983)
(4.51727 -0.623901 0.493242)
(11.0521 -0.314082 0.486002)
(10.604 -0.245528 -0.803693)
(22.6972 0.0355552 0.0409754)
(22.7144 0.0363356 0.0142153)
(22.8606 -0.795584 -0.984984)
(21.2479 1.48732 -1.80507)
(6.54371 -0.407496 -0.387557)
(6.09701 -0.312722 -0.877164)
(10.9154 -0.320496 0.477388)
(10.2532 -0.210693 -0.808348)
(22.7584 -0.0647991 0.0501325)
(22.695 0.0355932 0.0406736)
(22.7121 0.0365046 0.0142048)
(22.8337 -0.901199 -1.03228)
(21.3354 1.3858 -1.80371)
(6.48414 -0.40021 -0.390751)
(5.9871 -0.307831 -0.878522)
(8.24394 -0.411314 -0.926084)
(10.7732 -0.32753 0.468981)
(9.86479 -0.169702 -0.812613)
(22.7564 -0.0651006 0.0502857)
(22.6927 0.0355777 0.04038)
(22.746 0.030401 0.0453338)
(22.7098 0.0366311 0.0142342)
(22.7887 -0.992919 -1.07868)
(21.4573 1.27839 -1.793)
(6.4226 -0.393034 -0.394078)
(5.87482 -0.302609 -0.880053)
(8.22998 -0.401105 -0.920027)
(10.6242 -0.335117 0.460909)
(9.44312 -0.122697 -0.816371)
(22.7543 -0.0653689 0.0504414)
(22.6903 0.0355101 0.0400869)
(22.7433 0.0308949 0.0451875)
(22.7074 0.0367146 0.0143003)
(22.754 0.0294473 0.016717)
(22.7195 -1.03225 -1.0963)
(21.5967 1.16065 -1.76482)
(6.35909 -0.385945 -0.397552)
(5.75974 -0.297187 -0.881683)
(8.20141 -0.392629 -0.915167)
(10.4637 -0.343378 0.45375)
(9.14813 -0.100814 -0.819169)
(22.7522 -0.0656014 0.0505982)
(22.7919 -0.0570902 0.0483059)
(22.6879 0.0353923 0.0397866)
(22.7405 0.0313608 0.0450503)
(22.705 0.0367551 0.0144012)
(22.7516 0.0300174 0.016465)
(22.6354 -1.09804 -1.13123)
(21.7197 1.05617 -1.72867)
(6.29272 -0.378879 -0.401213)
(5.6405 -0.291514 -0.883448)
(8.16863 -0.384821 -0.910636)
(10.2967 -0.352653 0.447158)
(8.93897 -0.0898052 -0.821078)
(22.7501 -0.0657965 0.0507549)
(22.7901 -0.0575777 0.0483651)
(22.6855 0.0352261 0.0394765)
(22.7377 0.0317986 0.0449149)
(22.7026 0.0367511 0.0145336)
(22.7492 0.0305688 0.0162311)
(22.529 -1.20256 -1.18246)
(21.8219 0.971634 -1.68852)
(6.22322 -0.371898 -0.405043)
(5.51839 -0.285425 -0.885332)
(8.13187 -0.377625 -0.906375)
(10.1182 -0.363125 0.441351)
(8.75382 -0.0804843 -0.822479)
(22.7479 -0.0659526 0.0509105)
(22.7883 -0.0580613 0.0484304)
(22.6831 0.035014 0.0391572)
(22.7348 0.0322086 0.0447766)
(22.7002 0.036703 0.0146943)
(22.7467 0.0310982 0.0160149)
(22.4098 -1.26641 -1.22824)
(21.882 0.924048 -1.65234)
(6.15103 -0.364936 -0.409039)
(8.09117 -0.370967 -0.902397)
(9.93444 -0.37356 0.436219)
(8.58412 -0.0710744 -0.823207)
(22.7458 -0.0660709 0.0510639)
(22.7865 -0.0585407 0.0485015)
(22.6807 0.034768 0.0388373)
(22.732 0.0325919 0.0446303)
(22.6978 0.0366154 0.0148773)
(22.7442 0.0316112 0.0158119)
(22.2745 -1.32557 -1.26765)
(21.9153 0.904355 -1.61062)
(6.07562 -0.358019 -0.413226)
(8.04615 -0.364783 -0.898766)
(9.74098 -0.385014 0.431763)
(8.4452 -0.0622181 -0.822473)
(22.7436 -0.0661534 0.0512146)
(22.7846 -0.0590193 0.0485769)
(22.6784 0.0344897 0.0385171)
(22.7291 0.0329582 0.0444705)
(22.6954 0.0364889 0.0150811)
(22.7418 0.0321112 0.0156187)
(22.1378 -1.36908 -1.28035)
(21.9157 0.913589 -1.55907)
(5.9971 -0.351123 -0.417609)
(7.99654 -0.359023 -0.895508)
(9.54059 -0.397185 0.427848)
(8.32353 -0.053547 -0.821014)
(22.7415 -0.0661994 0.0513616)
(22.7827 -0.0594966 0.048657)
(22.6949 0.0389362 0.0898523)
(22.6761 0.0341796 0.038197)
(22.7263 0.0333063 0.0442966)
(22.7816 0.0232906 0.0458417)
(22.6931 0.0363235 0.0153049)
(22.7393 0.032597 0.0154361)
(22.7349 -0.0658946 0.0313484)
(22.0361 -1.34962 -1.22289)
(21.858 0.952136 -1.50358)
(5.91531 -0.344248 -0.422179)
(7.9418 -0.35371 -0.892645)
(9.3293 -0.409437 0.424769)
(12.893 -0.214884 0.658131)
(8.20064 -0.0447873 -0.819847)
(22.7393 -0.0662084 0.0515037)
(22.7808 -0.0599704 0.0487421)
(22.693 0.0384341 0.0897962)
(22.6738 0.0338382 0.0378781)
(22.7235 0.0336352 0.0441075)
(22.7789 0.0237868 0.045967)
(22.6907 0.0361232 0.015545)
(22.7368 0.0330743 0.0152597)
(22.5632 0.00825582 -0.0108448)
(22.7323 -0.0657473 0.0317328)
(22.7831 -0.0630187 0.0254829)
(21.994 -1.2171 -1.00254)
(21.9786 0.84079 -1.38008)
(5.83021 -0.337348 -0.426897)
(7.46459 -0.50127 -0.383149)
(7.88098 -0.348978 -0.890174)
(9.11078 -0.421134 0.421867)
(12.7939 -0.22263 0.646766)
(8.07552 -0.0362856 -0.818965)
(22.7371 -0.0661799 0.0516406)
(22.7789 -0.0604404 0.0488326)
(22.8112 -0.0508148 0.0478515)
(22.6911 0.0379135 0.0897194)
(22.6716 0.0334676 0.037563)
(22.7206 0.0339437 0.0439023)
(22.7762 0.0242883 0.0460763)
(22.6884 0.0358896 0.0157981)
(22.7343 0.0335446 0.0150868)
(22.779 0.0224504 0.0211365)
(22.561 0.0081882 -0.0100235)
(22.6083 0.00849122 -0.0216351)
(22.7297 -0.0655727 0.0321187)
(22.7807 -0.0633742 0.0256287)
(21.8866 -1.0511 -0.786834)
(22.3683 0.494753 -1.22605)
(5.74144 -0.330367 -0.431756)
(7.43301 -0.491441 -0.385201)
(7.81408 -0.344844 -0.888093)
(8.89185 -0.431491 0.418416)
(12.6921 -0.230265 0.635409)
(7.95116 -0.0283274 -0.818373)
(22.735 -0.066113 0.0517717)
(22.777 -0.0609055 0.0489282)
(22.8099 -0.051207 0.0478334)
(22.6893 0.0373747 0.0896232)
(22.7266 0.0448774 0.0863415)
(22.6694 0.0330771 0.0372632)
(22.7178 0.0342357 0.0436779)
(22.7735 0.0247973 0.0461666)
(22.6861 0.0356226 0.0160616)
(22.7319 0.0340053 0.0149161)
(22.7769 0.0229772 0.0207879)
(22.5588 0.00811845 -0.00918286)
(22.6057 0.00855523 -0.0215252)
(22.7272 -0.0653699 0.032505)
(22.7783 -0.0637123 0.025791)
(21.7748 -0.883287 -0.599923)
(22.6598 0.201476 -1.12687)
(5.64847 -0.323361 -0.43678)
(7.40037 -0.4821 -0.38722)
(7.74133 -0.341199 -0.886404)
(8.65879 -0.439541 0.415131)
(12.5882 -0.237764 0.624148)
(7.82616 -0.0208659 -0.818112)
(22.7328 -0.0660095 0.0518965)
(22.775 -0.0613706 0.0490274)
(22.8085 -0.0516107 0.0478212)
(22.6876 0.0368182 0.0895083)
(22.7246 0.0447915 0.0866915)
(22.6673 0.0326674 0.0369796)
(22.715 0.0345171 0.0434325)
(22.7707 0.025318 0.046232)
(22.6839 0.0353213 0.0163331)
(22.7295 0.0344528 0.0147465)
(22.7748 0.0235263 0.0204262)
(22.5566 0.00804643 -0.00832698)
(22.6031 0.00861161 -0.0213735)
(22.7247 -0.0651376 0.0328901)
(22.7758 -0.0640321 0.0259706)
(21.3435 -0.815798 -0.586288)
(22.8317 -0.00373622 -1.07567)
(7.36475 -0.473236 -0.389191)
(7.6625 -0.337932 -0.885125)
(8.40205 -0.447998 0.411881)
(12.4781 -0.245108 0.6132)
(7.7001 -0.0138087 -0.818295)
(12.2422 -0.374952 -0.83974)
(22.7307 -0.0658733 0.0520147)
(22.7731 -0.0618331 0.0491307)
(22.8072 -0.0520253 0.0478165)
(22.6859 0.0362444 0.0893759)
(22.7228 0.0446965 0.0870284)
(22.6652 0.0322383 0.0367124)
(22.7123 0.0347879 0.0431695)
(22.768 0.0258509 0.046268)
(22.6818 0.0349859 0.0166082)
(22.7272 0.0348828 0.0145762)
(22.7727 0.024094 0.0200505)
(22.5545 0.00797203 -0.00745949)
(22.6005 0.00866036 -0.0211788)
(22.7222 -0.0648752 0.0332707)
(22.7733 -0.0643342 0.0261666)
(20.8269 -0.709841 -0.553559)
(22.8996 -0.119234 -1.05943)
(7.32533 -0.46476 -0.391144)
(7.57803 -0.334945 -0.884237)
(8.1071 -0.457109 0.409788)
(12.3668 -0.252133 0.602401)
(7.57136 -0.00664311 -0.818921)
(12.0923 -0.369335 -0.842738)
(22.7286 -0.0657041 0.0521254)
(22.7711 -0.0622907 0.049239)
(22.8058 -0.0524516 0.0478191)
(22.6843 0.0356558 0.0892289)
(22.7208 0.0445763 0.0873444)
(22.6633 0.0317875 0.0364597)
(22.7096 0.0350471 0.0428891)
(22.7652 0.0263958 0.04627)
(22.6797 0.0346151 0.0168838)
(22.725 0.03529 0.014404)
(22.7707 0.0246763 0.0196603)
(22.5523 0.00789491 -0.00658414)
(22.5979 0.0087015 -0.0209399)
(22.7197 -0.0645837 0.0336428)
(22.7709 -0.0646193 0.026377)
(22.954 -0.228197 -1.04534)
(7.28198 -0.456649 -0.393103)
(7.48863 -0.332005 -0.883708)
(7.77016 -0.467644 0.409253)
(12.2537 -0.258816 0.591816)
(7.44264 0.000627217 -0.819838)
(11.9104 -0.359291 -0.846065)
(22.7265 -0.0655013 0.0522277)
(22.7692 -0.0627413 0.049353)
(22.8044 -0.0528881 0.0478311)
(22.6827 0.035041 0.0890572)
(22.7189 0.0444305 0.0876394)
(22.6616 0.0313127 0.0362197)
(22.7071 0.0352929 0.0425915)
(22.7626 0.0269519 0.0462336)
(22.6777 0.0342073 0.0171569)
(22.7228 0.0356685 0.0142282)
(22.7687 0.0252695 0.0192553)
(22.5502 0.0078149 -0.00570422)
(22.5953 0.008735 -0.0206561)
(22.7174 -0.0642651 0.034002)
(22.7685 -0.0648887 0.0265988)
(23.0294 -0.36097 -1.02742)
(7.23491 -0.448852 -0.395089)
(7.39409 -0.329066 -0.883551)
(7.37831 -0.481192 0.411287)
(12.1358 -0.265377 0.581474)
(7.31325 0.00792006 -0.821157)
(11.6962 -0.344776 -0.849782)
(22.7245 -0.0652639 0.0523209)
(22.7672 -0.0631821 0.0494736)
(22.803 -0.0533354 0.0478524)
(22.7039 0.0273876 0.100236)
(22.6811 0.0343991 0.0888588)
(22.7169 0.0442584 0.0879134)
(22.6599 0.0308121 0.0359918)
(22.7048 0.0355221 0.042277)
(22.76 0.0275183 0.0461619)
(22.6759 0.0337605 0.0174239)
(22.7207 0.0360115 0.0140476)
(22.7668 0.0258684 0.0188359)
(22.5481 0.00773146 -0.00482344)
(22.5927 0.00876103 -0.0203272)
(22.7152 -0.0639212 0.0343435)
(22.7661 -0.065144 0.0268283)
(23.0444 -0.438834 -1.01611)
(7.18456 -0.441311 -0.397125)
(7.29447 -0.326277 -0.883705)
(6.93953 -0.499377 0.415437)
(12.0151 -0.271649 0.57139)
(7.18083 0.015268 -0.822998)
(11.4501 -0.325621 -0.8537)
(22.7225 -0.0649908 0.0524038)
(22.7653 -0.0636096 0.049602)
(22.8016 -0.053792 0.0478848)
(22.6713 0.0245058 0.0973073)
(22.702 0.0274497 0.10036)
(22.6795 0.0337314 0.0886339)
(22.7148 0.0440591 0.0881655)
(22.6585 0.0302822 0.0357757)
(22.7026 0.0357309 0.0419533)
(22.7575 0.0280951 0.0460535)
(22.6743 0.0332707 0.0176757)
(22.7188 0.0363121 0.0138587)
(22.7649 0.026466 0.0183941)
(22.5459 0.00764388 -0.00394522)
(22.5902 0.00877979 -0.0199528)
(22.713 -0.0635545 0.0346615)
(22.7638 -0.065387 0.0270614)
(22.8095 -0.0570371 0.0245242)
(23.016 -0.471229 -1.00423)
(18.1594 2.90346 -1.91114)
(7.13091 -0.434025 -0.399219)
(7.18989 -0.323712 -0.884129)
(8.83477 -0.457316 -0.986929)
(6.43807 -0.523418 0.423865)
(11.893 -0.277474 0.5616)
(7.04504 0.0225922 -0.825481)
(11.1709 -0.301205 -0.857755)
(22.7206 -0.0646809 0.0524755)
(22.7634 -0.0640199 0.0497396)
(22.8002 -0.0542576 0.0479302)
(22.6699 0.0242062 0.0968892)
(22.7 0.0274946 0.100457)
(22.6779 0.0330389 0.0883831)
(22.7128 0.043832 0.0883949)
(22.7489 0.0460244 0.0798653)
(22.6573 0.029719 0.0355665)
(22.7008 0.0359195 0.0416255)
(22.7552 0.0286818 0.0459062)
(22.6726 0.0327541 0.0179489)
(22.7168 0.0365792 0.0137176)
(22.763 0.0270732 0.0179702)
(22.5438 0.00755143 -0.00307239)
(22.5877 0.0087916 -0.0195328)
(22.7111 -0.0631675 0.0349497)
(22.7616 -0.0656202 0.0272926)
(22.8079 -0.0575886 0.0244446)
(22.9761 -0.48704 -0.988191)
(18.2597 2.97709 -2.06632)
(7.0741 -0.426952 -0.401393)
(7.08129 -0.32123 -0.884791)
(8.88149 -0.439093 -0.977031)
(5.8984 -0.55441 0.436732)
(11.7656 -0.283522 0.551895)
(6.90402 0.0300539 -0.828731)
(10.8578 -0.271202 -0.861671)
(22.7189 -0.0643324 0.0525341)
(22.7616 -0.0644079 0.0498879)
(22.7987 -0.0547337 0.047978)
(22.6686 0.0238974 0.0964416)
(22.6981 0.0275221 0.100528)
(22.6763 0.0323234 0.0881067)
(22.7107 0.0435766 0.0886013)
(22.7469 0.0460562 0.080363)
(22.6559 0.0291283 0.0353588)
(22.6989 0.0360606 0.041308)
(22.753 0.0292782 0.045718)
(22.6708 0.0322152 0.018246)
(22.7146 0.0368119 0.0136256)
(22.7609 0.0276897 0.0175819)
(22.5417 0.00745217 -0.00220913)
(22.5852 0.00879708 -0.0190688)
(22.7094 -0.0627668 0.0351928)
(22.7596 -0.0658512 0.0275089)
(22.8063 -0.0581396 0.0243736)
(22.9508 -0.536989 -0.978277)
(18.2696 3.1226 -2.25243)
(7.01428 -0.419924 -0.403688)
(6.96904 -0.318596 -0.885672)
(8.91893 -0.422174 -0.96763)
(5.35365 -0.590501 0.451615)
(11.6343 -0.289613 0.54229)
(6.75799 0.0372825 -0.832855)
(10.5062 -0.235387 -0.865818)
(22.717 -0.0639442 0.0525865)
(22.7597 -0.064772 0.0500412)
(22.7972 -0.0552202 0.048027)
(22.6672 0.0235782 0.0959654)
(22.6961 0.0275321 0.100574)
(22.6747 0.0315865 0.087805)
(22.7087 0.0432924 0.0887841)
(22.745 0.0460717 0.0808524)
(22.6545 0.0285074 0.0351451)
(22.6968 0.0361467 0.0410046)
(22.7506 0.0298535 0.0455428)
(22.669 0.0316547 0.0185641)
(22.7124 0.0370046 0.0135798)
(22.7588 0.0283079 0.0172267)
(22.5396 0.00734505 -0.00135845)
(22.5828 0.0087966 -0.0185629)
(22.7076 -0.0623368 0.0354499)
(22.7574 -0.0660452 0.0277487)
(22.8045 -0.058671 0.0243303)
(22.9668 -0.664208 -1.00039)
(18.5467 3.10251 -2.32297)
(6.95196 -0.41295 -0.406087)
(6.85486 -0.31561 -0.886714)
(8.94718 -0.406522 -0.958703)
(4.86601 -0.625862 0.466114)
(11.4974 -0.295871 0.532803)
(6.60529 0.0437639 -0.838044)
(10.1132 -0.191442 -0.868784)
(22.7152 -0.0635156 0.0526322)
(22.7577 -0.0651084 0.0501985)
(22.7956 -0.0557134 0.0480785)
(22.4698 -0.0310923 0.0626555)
(22.6658 0.0232472 0.0954628)
(22.6942 0.0275239 0.100594)
(22.6731 0.0308294 0.0874784)
(22.7066 0.0429792 0.088943)
(22.743 0.0460716 0.0813324)
(22.653 0.0278599 0.0349288)
(22.6946 0.0361782 0.0407122)
(22.7481 0.0304048 0.0453808)
(22.6671 0.0310734 0.0188998)
(22.7101 0.0371554 0.0135774)
(22.7565 0.0289212 0.0169013)
(22.5375 0.00722851 -0.000522082)
(22.5803 0.00879083 -0.0180192)
(22.7057 -0.0618779 0.0357291)
(22.7552 -0.0661924 0.0280203)
(22.8027 -0.0591839 0.0243128)
(22.9555 -0.75053 -1.01924)
(19.3346 2.75113 -2.18769)
(6.88737 -0.40616 -0.408566)
(6.73819 -0.312314 -0.887934)
(8.95623 -0.393211 -0.950931)
(4.48148 -0.657159 0.477229)
(11.3526 -0.302391 0.523571)
(6.44529 0.0489433 -0.844483)
(9.77698 -0.162597 -0.872201)
(22.7133 -0.0630479 0.0526695)
(22.7556 -0.0654141 0.0503589)
(22.794 -0.0562111 0.0481334)
(22.4697 -0.030192 0.0625687)
(22.6645 0.0229031 0.0949364)
(22.6924 0.0274973 0.100587)
(22.6715 0.0300539 0.0871275)
(22.7045 0.0426389 0.0890778)
(22.741 0.0460604 0.0818031)
(22.6514 0.0271889 0.034713)
(22.6923 0.0361558 0.0404262)
(22.7455 0.0309311 0.0452287)
(22.6652 0.030472 0.0192493)
(22.7078 0.0372629 0.0136153)
(22.7542 0.0295245 0.016602)
(22.5354 0.00710106 0.000297427)
(22.5779 0.00877956 -0.0174388)
(22.7037 -0.0613921 0.036026)
(22.7528 -0.0662965 0.0283197)
(22.8007 -0.0596791 0.024318)
(22.9102 -0.778264 -1.0167)
(20.0041 2.40775 -2.0577)
(6.82065 -0.399451 -0.41116)
(6.61713 -0.309018 -0.889334)
(8.95157 -0.381589 -0.944167)
(11.2062 -0.309311 0.514271)
(6.27632 0.0528484 -0.852272)
(9.52302 -0.144338 -0.873692)
(22.7114 -0.0625434 0.0526975)
(22.7535 -0.0656864 0.0505214)
(22.7923 -0.0567114 0.0481924)
(22.4696 -0.0293336 0.0625063)
(22.6632 0.0225445 0.0943892)
(22.6905 0.0274522 0.100554)
(22.7252 0.0252982 0.0964306)
(22.67 0.0292615 0.0867527)
(22.7025 0.0422745 0.0891885)
(22.739 0.0460383 0.0822635)
(22.6498 0.0264959 0.0344984)
(22.6899 0.0360801 0.0401376)
(22.7428 0.0314312 0.0450879)
(22.6633 0.029852 0.0196084)
(22.7054 0.037326 0.0136907)
(22.7518 0.0301139 0.0163256)
(22.5333 0.00696118 0.0010979)
(22.5756 0.0087624 -0.016823)
(22.7016 -0.0608815 0.0363366)
(22.7503 -0.066361 0.0286426)
(22.7987 -0.0601583 0.0243438)
(22.8623 -0.82303 -1.03021)
(20.4953 2.11146 -1.95931)
(6.75163 -0.392861 -0.413902)
(6.49256 -0.305646 -0.890846)
(8.94 -0.370836 -0.937751)
(11.053 -0.31687 0.505087)
(9.32306 -0.130516 -0.873618)
(22.7095 -0.0620049 0.0527155)
(22.7514 -0.0659225 0.0506848)
(22.7906 -0.0572115 0.0482561)
(22.4697 -0.0285158 0.0624628)
(22.6619 0.022171 0.0938223)
(22.6887 0.0273884 0.100493)
(22.7231 0.0255533 0.0967926)
(22.6685 0.0284551 0.0863555)
(22.7005 0.0418855 0.0892747)
(22.737 0.0460064 0.0827126)
(22.6482 0.0257811 0.0342835)
(22.6875 0.0359522 0.0398421)
(22.74 0.0319037 0.0449557)
(22.6613 0.0292144 0.0199752)
(22.703 0.0373441 0.0138007)
(22.7494 0.030685 0.0160703)
(22.5313 0.00680781 0.00187853)
(22.5732 0.00873909 -0.0161734)
(22.6995 -0.0603484 0.0366561)
(22.7478 -0.0663892 0.0289849)
(22.7966 -0.0606224 0.024388)
(22.8297 -0.952072 -1.09426)
(20.8435 1.8574 -1.8866)
(6.68089 -0.386347 -0.416792)
(6.36482 -0.302024 -0.892535)
(8.92119 -0.360908 -0.93172)
(10.8907 -0.325259 0.496234)
(9.15653 -0.12043 -0.87334)
(22.7076 -0.0614336 0.0527227)
(22.7492 -0.0661203 0.0508481)
(22.7888 -0.0577098 0.0483251)
(22.4698 -0.027737 0.0624328)
(22.6607 0.0217819 0.0932359)
(22.6869 0.0273049 0.100406)
(22.7211 0.0258008 0.0971433)
(22.667 0.0276401 0.0859371)
(22.6985 0.0414714 0.0893354)
(22.7349 0.0459678 0.0831516)
(22.6465 0.0250455 0.0340683)
(22.6851 0.0357739 0.0395392)
(22.7372 0.0323485 0.044826)
(22.6594 0.0285597 0.020347)
(22.7006 0.037318 0.0139419)
(22.7469 0.031236 0.0158336)
(22.5292 0.0066402 0.00263905)
(22.5709 0.00870918 -0.0154919)
(22.6974 -0.0597941 0.0369808)
(22.7452 -0.0663841 0.0293428)
(22.7944 -0.0610719 0.0244486)
(22.7686 -1.04449 -1.14352)
(21.045 1.67171 -1.85555)
(7.34719 0.249841 0.121251)
(6.60866 -0.379869 -0.419832)
(6.23495 -0.297856 -0.894419)
(8.89523 -0.351776 -0.926101)
(10.7237 -0.334048 0.487955)
(8.99126 -0.109925 -0.87292)
(22.7057 -0.0608315 0.052718)
(22.7471 -0.0662788 0.0510101)
(22.787 -0.0582056 0.0483995)
(22.4699 -0.0269985 0.0624064)
(22.6595 0.0213769 0.092631)
(22.6852 0.0272008 0.100293)
(22.7191 0.0260388 0.0974837)
(22.6656 0.0268173 0.0854978)
(22.6965 0.0410314 0.089371)
(22.7329 0.0459232 0.0835799)
(22.6448 0.0242914 0.0338552)
(22.6827 0.0355501 0.0392277)
(22.7343 0.0327639 0.0446935)
(22.6575 0.0278883 0.0207206)
(22.6982 0.0372479 0.0141115)
(22.7444 0.031765 0.0156134)
(22.5271 0.00645768 0.00337952)
(22.5687 0.00867211 -0.0147806)
(22.6952 -0.0592199 0.0373066)
(22.7426 -0.066348 0.0297132)
(22.7922 -0.061508 0.024524)
(22.6806 -1.09091 -1.16609)
(21.1645 1.53943 -1.84959)
(7.128 0.26828 0.118107)
(6.53361 -0.373464 -0.423071)
(6.10255 -0.293089 -0.896433)
(8.86458 -0.343249 -0.920813)
(10.5481 -0.344294 0.480023)
(8.84934 -0.0991797 -0.871359)
(22.7039 -0.0602025 0.0527006)
(22.7449 -0.0663977 0.0511696)
(22.7851 -0.0586961 0.0484795)
(22.4702 -0.0262872 0.0624015)
(22.6584 0.0209557 0.0920105)
(22.6835 0.0270759 0.100155)
(22.7172 0.026265 0.0978146)
(22.6641 0.0259874 0.0850383)
(22.6946 0.0405718 0.089383)
(22.7309 0.0458731 0.0839973)
(22.6432 0.0235215 0.033649)
(22.6803 0.0352906 0.0389132)
(22.7314 0.0331517 0.0445533)
(22.6555 0.0272029 0.0210934)
(22.6958 0.037139 0.0143034)
(22.7419 0.0322789 0.0154048)
(22.525 0.00625985 0.00410034)
(22.5664 0.00862708 -0.0140419)
(22.74 -0.0662832 0.0300925)
(22.7899 -0.061931 0.0246133)
(22.5692 -1.19461 -1.21772)
(21.3046 1.40799 -1.83458)
(6.89981 0.287371 0.115394)
(6.45597 -0.366962 -0.42657)
(5.96597 -0.288078 -0.898495)
(8.82883 -0.335474 -0.915871)
(10.3672 -0.355388 0.472473)
(13.987 -0.0983674 0.740783)
(8.72876 -0.0888458 -0.868969)
(22.702 -0.0595542 0.05267)
(22.7427 -0.0664799 0.0513261)
(22.7833 -0.0591834 0.0485647)
(22.4704 -0.0255995 0.0624249)
(22.6818 0.0269299 0.0999951)
(22.7153 0.0264775 0.0981374)
(22.6628 0.025158 0.0845608)
(22.6926 0.0400929 0.0893722)
(22.7289 0.0458171 0.0844036)
(22.6416 0.0227407 0.0334591)
(22.678 0.034997 0.038597)
(22.7286 0.0335215 0.0443997)
(22.6536 0.0265056 0.0214617)
(22.6935 0.0369917 0.0145161)
(22.7395 0.032778 0.0152062)
(22.5229 0.00604621 0.00480169)
(22.5642 0.00857314 -0.0132792)
(22.7373 -0.0661898 0.0304774)
(22.7876 -0.0623408 0.0247163)
(22.4358 -1.29189 -1.27416)
(21.4693 1.27169 -1.80611)
(6.66154 0.307096 0.113302)
(6.37563 -0.360482 -0.430273)
(5.82637 -0.282697 -0.900606)
(8.788 -0.328445 -0.911272)
(10.1774 -0.367007 0.465671)
(13.8846 -0.107334 0.732027)
(8.61222 -0.0791201 -0.866715)
(22.7002 -0.0588891 0.0526255)
(22.7405 -0.0665246 0.0514785)
(22.7814 -0.0596696 0.0486545)
(22.4706 -0.0249335 0.0624756)
(22.6802 0.0267619 0.0998145)
(22.7134 0.0266739 0.0984532)
(22.6614 0.0243301 0.0840669)
(22.6908 0.0395951 0.0893395)
(22.7269 0.0457549 0.0847986)
(22.64 0.0219502 0.0332871)
(22.6757 0.0346717 0.0382819)
(22.7257 0.0338726 0.044232)
(22.6517 0.0257967 0.0218245)
(22.6911 0.0368074 0.014748)
(22.737 0.0332616 0.015018)
(22.5208 0.00581669 0.00548422)
(22.562 0.00850872 -0.0124965)
(22.7347 -0.0660678 0.0308662)
(22.7852 -0.0627368 0.0248337)
(22.2902 -1.34508 -1.31013)
(21.6283 1.137 -1.75849)
(6.41564 0.32741 0.111322)
(6.29279 -0.353978 -0.434199)
(5.68421 -0.276764 -0.902809)
(8.74193 -0.322179 -0.907026)
(9.98053 -0.379859 0.459278)
(13.7757 -0.117446 0.722563)
(8.49353 -0.0694499 -0.864763)
(22.6985 -0.0582088 0.0525661)
(22.7383 -0.0665313 0.0516256)
(22.7795 -0.0601535 0.0487492)
(22.4709 -0.0242876 0.0625519)
(22.6787 0.0265715 0.0996156)
(22.7116 0.0268517 0.0987636)
(22.6601 0.0235045 0.0835581)
(22.6889 0.0390786 0.0892857)
(22.7249 0.045686 0.0851824)
(22.6384 0.0211477 0.0331304)
(22.6734 0.0343153 0.0379692)
(22.7228 0.0342037 0.044049)
(22.6499 0.0250783 0.0221793)
(22.6888 0.0365897 0.0149947)
(22.7345 0.0337374 0.0148347)
(22.5187 0.00557008 0.00614721)
(22.5599 0.00843567 -0.0116937)
(22.7321 -0.0659175 0.0312578)
(22.7828 -0.0631179 0.0249664)
(22.1202 -1.40336 -1.33226)
(21.7517 1.03475 -1.71027)
(6.16336 0.347793 0.110071)
(6.20734 -0.347448 -0.438353)
(7.9494 -0.480346 -0.411213)
(5.54053 -0.270112 -0.905065)
(8.68909 -0.316785 -0.903236)
(9.77537 -0.393557 0.45336)
(13.6638 -0.127964 0.712573)
(8.37215 -0.0598563 -0.86316)
(12.5199 -0.373749 -0.905345)
(22.6967 -0.0575172 0.052491)
(22.7361 -0.0664993 0.0517672)
(22.7775 -0.0606323 0.0488491)
(22.4711 -0.0236603 0.0626526)
(22.6772 0.026358 0.0994011)
(22.7099 0.0270063 0.0990726)
(22.6588 0.0226809 0.0830358)
(22.6871 0.0385435 0.0892116)
(22.723 0.0456107 0.0855546)
(22.6369 0.0203358 0.0329975)
(22.6712 0.0339317 0.0376633)
(22.72 0.0345146 0.0438458)
(22.6481 0.0243497 0.0225252)
(22.6865 0.0363392 0.015254)
(22.732 0.0342041 0.0146552)
(22.5166 0.00531237 0.00679605)
(22.5577 0.00836067 -0.010868)
(22.7296 -0.065739 0.0316511)
(22.7804 -0.0634828 0.0251153)
(21.966 -1.42058 -1.32938)
(21.8153 0.983789 -1.66892)
(5.91736 0.364373 0.112683)
(6.11917 -0.340876 -0.442719)
(7.91483 -0.470874 -0.412689)
(5.41828 -0.262291 -0.906465)
(8.62939 -0.312157 -0.89993)
(9.56534 -0.406969 0.448012)
(13.5453 -0.139638 0.702057)
(8.24941 -0.0505003 -0.861839)
(12.4878 -0.376781 -0.90239)
(22.695 -0.0568195 0.0523998)
(22.7339 -0.0664283 0.0519025)
(22.7756 -0.0611066 0.0489541)
(22.4713 -0.0230509 0.0627756)
(22.6759 0.0261205 0.0991738)
(22.7082 0.0271463 0.0993566)
(22.6576 0.0218603 0.0825013)
(22.6854 0.0379902 0.0891182)
(22.721 0.0455284 0.0859147)
(22.6353 0.0195096 0.0328864)
(22.669 0.033527 0.0373714)
(22.7171 0.0348099 0.0436253)
(22.6463 0.0236108 0.0228615)
(22.6843 0.0360556 0.0155238)
(22.7296 0.0346585 0.0144782)
(22.5145 0.00504777 0.0074326)
(22.5556 0.00828358 -0.0100233)
(22.727 -0.0655316 0.032045)
(22.7779 -0.06383 0.0252809)
(21.8628 -1.33779 -1.17649)
(21.8484 0.96621 -1.61584)
(5.69981 0.373421 0.120266)
(6.02814 -0.334265 -0.447276)
(7.88016 -0.461632 -0.414209)
(5.30009 -0.253957 -0.907948)
(8.56274 -0.308218 -0.897127)
(9.34392 -0.421059 0.443042)
(13.4224 -0.151761 0.691301)
(8.12582 -0.0413587 -0.860748)
(12.4166 -0.378223 -0.901704)
(22.6934 -0.0561183 0.0522919)