/*--------------------------------*- C++ -*----------------------------------*\
| =========                 |                                                 |
| \\      /  F ield         | OpenFOAM: The Open Source CFD Toolbox           |
|  \\    /   O peration     | Version:  2.1.1                                 |
|   \\  /    A nd           | Web:      www.OpenFOAM.org                      |
|    \\/     M anipulation  |                                                 |
\*---------------------------------------------------------------------------*/
FoamFile
{
    version     2.0;
    format      ascii;
    class       volScalarField;
    location    "0.00145";
    object      alpha1;
}
// * * * * * * * * * * * * * * * * * * * * * * * * * * * * * * * * * * * * * //

dimensions      [0 0 0 0 0 0 0];

internalField   nonuniform List<scalar> 
36520
(
-3.61808e-12
-2.76639e-13
-3.34139e-13
-3.97769e-13
-5.03858e-13
-6.13426e-13
-7.30723e-13
-8.59549e-13
-1.01144e-12
-1.20247e-12
-1.45701e-12
-1.79341e-12
-2.25496e-12
-2.88832e-12
-3.76985e-12
-4.98319e-12
-6.63454e-12
-8.81501e-12
-1.15759e-11
-1.4869e-11
-1.85109e-11
-2.2165e-11
-2.53885e-11
-2.77135e-11
-2.86166e-11
-2.74219e-11
-2.5272e-11
-2.36472e-11
-2.37837e-11
-2.60787e-11
-3.0162e-11
-3.53856e-11
-4.06488e-11
-4.48122e-11
-4.70026e-11
-4.65267e-11
-4.30874e-11
-3.68856e-11
-2.86088e-11
-1.94075e-11
-1.08419e-11
-4.39075e-12
-8.43303e-13
-3.14666e-18
8.18665e-12
5.18231e-11
3.83312e-10
2.13471e-09
6.3622e-09
1.20207e-08
2.0009e-08
3.555e-08
1.2729e-08
1.35767e-05
0.000643367
0.00356809
0.00517886
0.0438472
0.389959
0.923582
-5.70874e-12
-3.39033e-12
-3.42783e-12
-3.75734e-12
-4.20834e-12
-4.60372e-12
-5.09559e-12
-5.70855e-12
-6.52736e-12
-7.64571e-12
-9.15313e-12
-1.11102e-11
-1.36314e-11
-1.67504e-11
-2.0572e-11
-2.50879e-11
-3.04079e-11
-3.65429e-11
-4.34488e-11
-5.07279e-11
-5.76041e-11
-6.2899e-11
-6.55195e-11
-6.47022e-11
-5.9512e-11
-5.21272e-11
-4.48554e-11
-3.77768e-11
-3.11245e-11
-2.68586e-11
-2.51993e-11
-2.53442e-11
-2.62044e-11
-2.64151e-11
-2.5411e-11
-2.28808e-11
-1.85258e-11
-1.21144e-11
-2.93292e-12
1.55152e-11
2.47044e-10
8.04864e-10
1.14942e-09
9.59347e-10
2.02997e-10
4.34356e-11
4.32461e-11
1.05592e-09
8.92306e-09
6.57318e-08
5.66018e-07
5.7707e-06
4.31933e-05
0.000176678
0.000429714
0.000274876
0.000244093
0.00108367
0.0516018
0.902022
-9.1631e-12
-7.34963e-12
-6.94938e-12
-6.85956e-12
-6.80692e-12
-6.61256e-12
-6.50827e-12
-6.51898e-12
-6.80198e-12
-7.43904e-12
-8.47099e-12
-9.81119e-12
-1.13609e-11
-1.28218e-11
-1.38757e-11
-1.39932e-11
-1.30226e-11
-1.12297e-11
-9.31176e-12
-7.35152e-12
-5.28636e-12
-2.68902e-12
-3.31558e-18
3.53377e-12
1.27166e-11
2.29605e-11
2.76352e-11
1.77755e-11
1.27555e-11
9.43151e-12
5.36998e-12
3.17457e-12
1.99527e-12
1.53465e-12
1.51772e-12
1.52494e-12
3.70834e-12
2.76985e-11
1.12088e-10
2.66908e-10
4.50861e-10
6.15275e-10
1.04845e-09
1.01691e-08
6.33738e-08
1.26506e-07
1.03513e-07
5.80467e-08
6.10229e-08
6.08987e-07
8.14099e-06
7.7636e-05
0.000407635
0.0010594
0.0017597
0.00259613
0.00256575
0.00102548
0.022741
0.485544
-1.10224e-11
-8.25749e-12
-7.31267e-12
-6.46939e-12
-5.58447e-12
-4.36172e-12
-2.64732e-12
-5.15633e-13
-1.67778e-20
-6.88674e-20
-1.14571e-19
1.43955e-19
4.27022e-19
6.43581e-19
7.69581e-19
1.61622e-18
4.91831e-18
3.21013e-17
2.00728e-11
1.43986e-10
5.614e-10
1.6778e-09
4.05737e-09
7.13884e-09
9.08727e-09
1.1267e-08
1.36013e-08
1.36434e-08
1.24915e-08
1.34208e-08
1.38496e-08
1.35218e-08
1.278e-08
1.20001e-08
1.11136e-08
9.8623e-09
7.98985e-09
5.99687e-09
4.55057e-09
3.92044e-09
3.85647e-09
4.02483e-09
4.00395e-09
1.14138e-08
5.50421e-08
1.60382e-07
2.60719e-07
3.49281e-07
5.44614e-07
1.77492e-06
1.62618e-05
0.000156593
0.000558469
0.00105962
0.00232694
0.00511749
0.00850116
0.00409067
0.0130904
0.421134
-8.01717e-12
-3.64548e-12
-2.69204e-13
-5.94299e-19
1.36751e-18
6.2244e-12
2.00018e-11
3.68094e-11
6.0518e-11
9.70572e-11
1.45291e-10
1.91625e-10
2.27254e-10
2.6102e-10
3.11668e-10
4.4714e-10
8.8994e-10
1.99848e-09
5.1265e-09
1.45128e-08
4.188e-08
1.09302e-07
2.50801e-07
4.33207e-07
5.39839e-07
4.79259e-07
4.16842e-07
4.13625e-07
4.04613e-07
4.29501e-07
4.86091e-07
5.28374e-07
5.41794e-07
5.03536e-07
4.19683e-07
3.23044e-07
2.41302e-07
1.75992e-07
1.26156e-07
9.40707e-08
8.14769e-08
8.1017e-08
9.08064e-08
1.11753e-07
1.29464e-07
1.42455e-07
1.78536e-07
2.22691e-07
2.78614e-07
6.9024e-07
6.00513e-06
4.9179e-05
0.000136623
0.000166323
0.000198466
0.000816943
0.00863786
0.00617263
0.015121
0.925571
-3.10814e-12
3.46433e-12
6.81505e-11
2.27408e-10
5.32137e-10
1.02478e-09
1.53256e-09
2.08304e-09
2.79602e-09
3.89276e-09
5.5473e-09
8.51978e-09
1.35524e-08
2.25389e-08
3.48011e-08
5.45998e-08
9.63236e-08
1.94232e-07
4.17232e-07
9.14768e-07
2.01104e-06
4.55419e-06
9.5546e-06
1.58267e-05
1.79251e-05
1.28254e-05
5.30325e-06
2.79232e-06
2.80981e-06
2.74011e-06
2.961e-06
3.54578e-06
4.3006e-06
4.87128e-06
5.0925e-06
4.91936e-06
4.42779e-06
3.56872e-06
2.82075e-06
2.1365e-06
1.7184e-06
1.62515e-06
1.78661e-06
1.93409e-06
1.64266e-06
1.25217e-06
1.11451e-06
1.25529e-06
1.28996e-06
1.33991e-06
6.65388e-06
3.3678e-05
0.00016414
0.000320394
0.000206785
2.3805e-05
0.000147091
0.00401671
0.0588623
0.922866
2.76904e-10
1.65381e-09
4.61371e-09
1.03012e-08
1.6528e-08
2.26007e-08
2.94834e-08
4.01599e-08
5.51621e-08
8.02725e-08
1.30898e-07
2.1785e-07
3.46542e-07
4.74382e-07
6.4968e-07
8.49825e-07
1.2181e-06
2.02263e-06
4.14013e-06
7.89885e-06
1.28602e-05
1.93637e-05
3.39486e-05
6.72553e-05
9.62898e-05
8.73115e-05
4.3298e-05
1.13335e-05
8.30585e-06
8.37778e-06
8.41968e-06
9.26992e-06
1.11059e-05
1.3689e-05
1.57888e-05
1.79626e-05
2.23475e-05
2.73415e-05
3.02871e-05
3.37764e-05
3.14666e-05
2.65949e-05
2.73847e-05
3.5639e-05
3.60097e-05
2.87584e-05
2.16469e-05
2.25088e-05
2.59818e-05
2.75178e-05
3.02682e-05
0.00012183
0.000918855
0.00100309
0.000355426
1.69636e-05
3.32634e-05
0.00487856
0.313919
0.912495
4.21936e-10
3.64028e-09
1.10218e-08
2.04727e-08
2.30528e-08
1.6141e-08
5.05149e-13
6.85573e-16
7.26431e-16
8.7212e-16
1.35467e-16
7.26945e-12
3.33779e-10
2.68615e-06
1.27723e-05
1.68927e-05
1.80093e-05
2.44628e-05
4.40158e-05
7.6278e-05
0.000110971
0.00013764
0.000148538
0.000150816
0.000186669
0.000223258
0.000159945
4.97385e-05
2.07422e-05
2.31439e-05
2.82916e-05
3.06409e-05
3.29652e-05
3.99677e-05
4.65596e-05
3.93613e-05
3.05173e-05
5.67803e-05
0.000231222
0.000240468
0.000238921
0.000156139
0.000147132
0.000176612
0.000208524
0.000208948
0.00021173
0.000226432
0.000241294
0.000238542
0.000215702
0.000137617
0.000119884
0.000143766
9.21907e-05
7.71776e-05
0.000328381
0.0155584
0.709748
0.954415
3.16419e-16
2.26992e-16
2.74124e-16
8.04868e-17
-3.01836e-17
2.36114e-16
1.65063e-16
6.8215e-08
4.7272e-12
6.96454e-06
2.80489e-05
3.58037e-05
4.07727e-06
1.11017e-06
3.98134e-06
2.98244e-05
9.26061e-05
0.000291908
0.000945483
0.00268302
0.00553398
0.00675237
0.00607122
0.00389901
0.00218117
0.0014879
0.00109536
0.000777994
0.000548622
0.000374064
0.000214776
0.000111913
9.75522e-05
0.000106923
0.000130855
0.000158885
0.00016309
0.000159856
0.000165865
0.000191911
0.000230653
0.000274999
0.000337853
0.000429047
0.000538596
0.000650748
0.000765814
0.000860818
0.000867595
0.000761392
0.000496275
0.000141147
9.71593e-05
0.00013713
0.000235657
0.000560158
0.00130624
0.0413305
0.797429
0.988763
5.79121e-15
1.47791e-15
-9.72109e-16
3.98885e-14
6.54644e-13
-8.06878e-13
1.55937e-05
4.87285e-05
8.89023e-05
0.000151451
0.000278926
0.000454029
0.00039763
9.1126e-05
1.27858e-05
4.48804e-05
0.000102924
0.000234424
0.000735007
0.00264631
0.00791885
0.0142633
0.0141316
0.00954226
0.00434101
0.00255304
0.00209458
0.00183743
0.00168377
0.00157229
0.00138165
0.00100141
0.000493403
0.000159226
0.000111279
0.000130482
0.000178342
0.000239889
0.000302886
0.000385784
0.000492401
0.000604586
0.00070246
0.000774562
0.000808352
0.000828492
0.000845998
0.000854186
0.000812302
0.000689219
0.000409838
0.000105988
9.71439e-05
0.00029871
0.000632846
0.00103152
0.0017261
0.0502498
0.795922
0.988763
4.48663e-14
-2.76617e-15
4.16194e-13
2.7735e-12
-2.27106e-11
2.28599e-11
-5.22296e-12
-9.54037e-15
1.42317e-14
6.40402e-06
5.37125e-05
0.000187208
0.000136502
1.22105e-05
7.56088e-06
8.6695e-06
9.42483e-06
5.57595e-05
0.000621303
0.00456191
0.0169705
0.0336411
0.0335293
0.0235795
0.00934539
0.00303038
0.00159934
0.00101646
0.00074206
0.000677841
0.000644357
0.000541214
0.000337051
0.000172898
0.000150627
0.000167749
0.000211825
0.000218942
0.000195628
0.00018122
0.000191616
0.000212961
0.000242096
0.000267456
0.000296096
0.000333541
0.000379945
0.000425607
0.000460342
0.000464159
0.000395085
0.000205118
9.99672e-05
0.000197905
0.000299157
0.000243883
0.000484681
0.0595469
0.825494
0.973939
1.08992e-08
4.2361e-08
3.84064e-07
1.01476e-06
1.18787e-06
1.17497e-07
2.90824e-08
8.18292e-10
2.16848e-08
6.53124e-07
5.95698e-06
1.5219e-05
1.21553e-05
7.67201e-06
7.67197e-06
8.92713e-06
1.45741e-05
2.42445e-05
5.40071e-05
0.000118265
0.000558263
0.00637046
0.063736
0.111297
0.0930565
0.0407509
0.00549422
8.6814e-05
4.44305e-05
6.18853e-05
0.00014076
0.000178531
0.00015661
8.46428e-05
7.73092e-05
0.000268971
0.000365558
0.000273763
9.16828e-05
6.39616e-05
6.87056e-05
9.02665e-05
0.000587141
0.000778472
0.000778527
0.000562835
0.00019016
0.000209154
0.000272001
0.00020741
9.24069e-05
9.70589e-05
0.000174398
0.00027464
0.000213533
6.20302e-05
0.000261583
0.0408647
0.885202
0.974036
1.73883e-08
1.52211e-07
9.92697e-07
2.09884e-06
3.17487e-06
4.41401e-06
7.54964e-06
1.37213e-05
2.1626e-05
2.54715e-05
1.58983e-05
8.58399e-06
8.43753e-06
3.81262e-05
0.000152063
0.00033294
0.000432069
0.000341836
0.000103437
6.37116e-05
0.000120707
0.00102879
0.0135551
0.119372
0.247524
0.190841
0.0632529
0.00564135
9.70845e-05
6.64639e-05
7.08699e-05
9.80344e-05
0.000107519
8.14962e-05
5.71665e-05
0.000205014
0.000365746
0.000365568
0.000203328
8.31365e-05
9.72592e-05
0.000107213
0.000122988
0.000420109
0.000778525
0.000482729
0.00013526
0.000131547
0.00028004
0.000321143
0.00018197
0.00017547
0.000414822
0.000420143
0.000198456
6.27179e-05
0.000318499
0.0400085
0.881299
0.950716
1.21765e-14
9.29444e-14
7.93746e-09
5.3194e-06
7.24516e-06
1.16566e-05
2.12207e-05
3.71855e-05
6.0793e-05
0.000102245
0.000193193
0.000483666
0.00151244
0.00419307
0.00901882
0.0120639
0.0106458
0.005163
0.000901689
7.48477e-05
7.18783e-05
0.000124228
0.0011391
0.0241497
0.259348
0.414389
0.259095
0.0583925
0.00365891
0.000538536
0.000545342
0.000530374
0.000482756
0.000361759
0.000195739
0.000128867
0.000148132
0.00018924
0.00019377
0.000202489
0.000226588
0.000241248
0.000249062
0.000278252
0.000340657
0.000347485
0.000342182
0.000344889
0.000427451
0.000578403
0.000525102
0.000356684
0.000571354
0.00102487
0.000803456
0.000452747
0.000886438
0.057227
0.831672
0.915789
1.18148e-13
-2.32536e-13
1.79014e-06
1.50774e-05
2.61862e-05
4.4002e-05
7.62364e-05
0.00013825
0.000202105
0.000308066
0.000578383
0.00156961
0.00637872
0.0279009
0.0668676
0.0663745
0.0448168
0.015364
0.00207168
0.000209757
0.000195587
0.000269764
0.000887641
0.0036186
0.0173111
0.10203
0.220154
0.16946
0.0504908
0.00384961
0.0002366
0.000170987
0.000158772
0.000164468
0.000241467
0.000365038
0.000335946
0.000148607
4.45476e-05
5.93453e-05
9.10158e-05
0.000126651
0.00020284
0.000365298
0.000488372
0.000483164
0.000426497
0.000336744
0.00029941
0.000291948
0.00026445
0.000278859
0.000569861
0.00114675
0.0010685
0.000613601
0.00112228
0.0379587
0.786842
0.960409
5.84139e-15
1.29691e-13
-2.05412e-13
1.00809e-05
4.201e-05
7.88585e-05
0.000119112
0.000171099
0.000269492
0.000575182
0.00179979
0.00626373
0.0136142
0.0127229
0.00572159
0.000438625
1.49313e-06
1.48054e-06
3.17672e-06
3.0848e-05
0.000162749
0.000605406
0.00168614
0.00371989
0.00773922
0.0169282
0.0256827
0.0234895
0.0111187
0.00157368
0.000305395
0.000400839
0.000603107
0.000608852
0.000466183
0.000193552
8.29901e-05
8.09434e-05
0.000539868
0.00122443
0.00122404
0.000809227
0.000141541
0.000112813
0.000400149
0.000483201
0.000483172
0.000413208
0.000171882
0.00010274
0.000195075
0.000569267
0.00115906
0.00115937
0.00104295
0.000621985
0.00129941
0.0354903
0.77607
0.972755
1.85286e-10
4.64495e-10
3.95334e-10
1.22894e-16
2.20511e-16
2.63387e-16
3.69367e-16
8.87266e-17
-6.60258e-16
-2.11126e-15
-1.34947e-15
2.89414e-11
1.97224e-11
2.05382e-11
1.83648e-06
2.62583e-06
1.9062e-06
1.48466e-06
1.30976e-06
6.14057e-07
6.94332e-12
-8.60019e-12
5.10368e-12
8.91944e-06
0.000121143
0.000503871
0.000871805
0.000825446
0.000427325
0.000136182
0.000148445
0.000163478
0.000130404
7.2996e-05
3.05643e-05
3.05682e-05
6.10809e-05
0.000655837
0.000880476
0.000824036
0.000483156
0.000190994
5.66066e-05
6.57961e-05
0.000122258
0.000156804
0.000173441
0.000168863
0.000110658
9.13618e-05
0.000133651
0.000252633
0.000374398
0.000275752
0.000135913
3.02579e-05
0.000178903
0.0115232
0.653294
0.983312
-1.60637e-18
1.09844e-10
1.7492e-10
1.57913e-10
1.59144e-10
1.08458e-10
6.7108e-11
5.57504e-11
7.71113e-11
1.11542e-10
1.13344e-10
6.0071e-11
1.2515e-11
-2.34236e-12
-1.75415e-12
1.62912e-10
4.45491e-15
9.39232e-15
9.42527e-09
2.47132e-08
6.39279e-08
1.22649e-07
2.17673e-07
3.69229e-07
1.30109e-07
1.30122e-07
1.30087e-07
3.90028e-06
1.63628e-05
2.87433e-05
3.03133e-05
1.91052e-05
1.4686e-05
1.53739e-05
1.84355e-05
3.33713e-05
7.78899e-05
0.000122974
0.000111915
6.14548e-05
2.59677e-05
1.38468e-05
1.43581e-05
1.36043e-05
9.82903e-06
1.02609e-05
1.45921e-05
2.78562e-05
3.37928e-05
2.77609e-05
2.60839e-05
2.71754e-05
3.09083e-05
2.27929e-05
5.90729e-06
5.96887e-06
1.31002e-05
0.00268753
0.239249
0.954307
-1.328e-10
-1.06629e-10
-7.6976e-11
-3.9092e-11
-1.82243e-11
-3.97664e-12
-8.72945e-13
5.32473e-18
7.76154e-18
-4.83045e-18
-2.8567e-17
-3.92496e-17
1.59953e-11
1.97384e-10
6.00086e-10
7.75823e-10
7.93464e-10
1.27176e-09
6.78316e-09
3.82721e-08
1.26587e-07
3.29385e-07
7.73388e-07
1.34496e-06
1.55369e-06
1.56532e-06
1.58412e-06
1.85292e-06
1.95818e-06
1.63766e-06
7.04447e-07
5.73327e-07
1.07408e-06
1.72318e-06
2.35531e-06
2.44809e-06
1.99678e-06
1.07414e-06
1.09853e-06
1.0396e-06
9.14759e-07
6.97052e-07
5.41042e-07
2.92821e-07
2.92831e-07
4.51319e-07
1.06422e-06
2.90017e-06
1.58787e-05
9.23206e-05
0.0002406
0.000274743
0.000344199
0.000199402
1.91005e-05
5.88821e-06
6.42188e-06
0.000566568
0.040884
0.931543
-1.84978e-10
-2.0199e-10
-2.33482e-10
-2.63696e-10
-2.99405e-10
-3.37694e-10
-3.82031e-10
-4.29392e-10
-4.83534e-10
-5.39496e-10
-5.92062e-10
-6.24468e-10
-6.22625e-10
-5.70137e-10
-4.76329e-10
-3.44366e-10
-1.79553e-10
4.82197e-11
2.19059e-09
6.17805e-09
1.56264e-08
3.81058e-08
8.24825e-08
1.55563e-07
2.38957e-07
2.69864e-07
2.24423e-07
6.27079e-08
8.50641e-09
2.78858e-14
5.69374e-14
-2.59364e-13
1.83725e-10
2.27111e-09
2.0429e-09
1.49621e-12
1.98275e-12
6.9607e-12
3.58701e-10
9.65589e-09
2.42254e-08
4.60945e-08
7.85394e-08
1.58681e-07
3.68166e-07
1.0282e-06
3.29019e-06
1.06178e-05
3.32095e-05
9.84467e-05
0.000334455
0.000797296
0.00102078
0.00102062
0.000408962
6.76028e-05
6.40557e-06
0.000515199
0.00628579
0.936918
-1.45902e-10
-1.75086e-10
-2.24847e-10
-2.78497e-10
-3.36358e-10
-3.99329e-10
-4.68975e-10
-5.4693e-10
-6.37537e-10
-7.39359e-10
-8.46982e-10
-9.46932e-10
-1.02566e-09
-1.07235e-09
-1.09379e-09
-1.07388e-09
-9.87909e-10
-7.88728e-10
-5.60376e-10
-3.30488e-10
-1.08382e-10
-2.32788e-16
4.77365e-10
1.19307e-09
1.74439e-09
1.96141e-09
9.24883e-10
2.69855e-13
-8.07244e-10
-1.18626e-09
-1.14461e-09
-9.93326e-10
-7.67737e-10
-4.91149e-10
-2.44713e-10
-8.2374e-11
1.93084e-12
1.10272e-10
8.91802e-10
4.2388e-09
1.621e-08
5.37212e-08
1.63256e-07
4.56549e-07
1.14589e-06
2.64211e-06
6.0478e-06
1.37947e-05
3.00879e-05
6.25447e-05
0.000133801
0.000318052
0.000855855
0.00152908
0.00234032
0.00205053
0.00117113
0.000677829
0.0044841
0.873969
-6.19068e-11
-7.14597e-11
-9.4575e-11
-1.23309e-10
-1.55789e-10
-1.9053e-10
-2.29622e-10
-2.7267e-10
-3.22298e-10
-3.78451e-10
-4.4042e-10
-5.05336e-10
-5.70711e-10
-6.34482e-10
-6.99323e-10
-7.67988e-10
-8.42579e-10
-9.15645e-10
-9.76087e-10
-1.007e-09
-9.95205e-10
-9.3775e-10
-9.88155e-10
-1.09598e-09
-1.19903e-09
-1.25716e-09
-1.36518e-09
-1.5004e-09
-1.56751e-09
-1.44545e-09
-1.23768e-09
-9.72577e-10
-6.88294e-10
-4.27868e-10
-2.31169e-10
-8.61556e-11
1.60871e-11
4.96313e-10
2.1821e-09
6.29181e-09
1.94233e-08
6.84516e-08
2.38075e-07
7.01694e-07
1.58863e-06
2.72487e-06
3.90392e-06
5.92288e-06
1.1302e-05
2.13431e-05
3.88816e-05
7.65082e-05
0.00017071
0.000577284
0.00127621
0.00161605
0.00240571
0.000709981
0.0123429
0.371486
-1.3214e-11
-1.1773e-11
-1.56099e-11
-2.11093e-11
-2.78778e-11
-3.52327e-11
-4.38621e-11
-5.32848e-11
-6.4268e-11
-7.66395e-11
-9.08178e-11
-1.06551e-10
-1.24019e-10
-1.43201e-10
-1.64925e-10
-1.8985e-10
-2.19146e-10
-2.53009e-10
-2.91541e-10
-3.33961e-10
-3.80318e-10
-4.30227e-10
-4.84118e-10
-5.39816e-10
-5.93976e-10
-6.40425e-10
-6.67278e-10
-6.6713e-10
-6.35614e-10
-5.82095e-10
-5.18647e-10
-4.52611e-10
-3.87603e-10
-3.23739e-10
-2.58706e-10
-1.91126e-10
-1.24275e-10
-6.57117e-11
-3.9918e-11
-1.74361e-11
2.24047e-16
2.18271e-10
6.19961e-09
3.10852e-08
9.84933e-08
2.43932e-07
5.07493e-07
9.03103e-07
1.65825e-06
3.41083e-06
5.89918e-06
6.75266e-06
6.2882e-06
3.27502e-05
0.000131145
0.000473462
0.00077194
0.000826832
0.0299063
0.830378
-4.61888e-12
-3.84853e-13
-5.398e-13
-7.71819e-13
-1.1525e-12
-1.61853e-12
-2.19879e-12
-2.84902e-12
-3.60663e-12
-4.46074e-12
-5.46469e-12
-6.64308e-12
-8.07868e-12
-9.836e-12
-1.19967e-11
-1.46334e-11
-1.78369e-11
-2.17113e-11
-2.63941e-11
-3.20165e-11
-3.87239e-11
-4.66117e-11
-5.57811e-11
-6.61578e-11
-7.75299e-11
-8.91187e-11
-9.63802e-11
-9.89233e-11
-9.86338e-11
-9.83934e-11
-1.00097e-10
-1.04371e-10
-1.1079e-10
-1.1782e-10
-1.22378e-10
-1.20192e-10
-1.07016e-10
-8.13418e-11
-4.79735e-11
-1.82127e-11
-5.89405e-12
-2.99904e-12
-7.53899e-13
1.73013e-11
2.15172e-09
8.93475e-09
2.05828e-08
3.85912e-08
6.55387e-08
1.14816e-07
2.44805e-07
8.00084e-07
3.05007e-06
8.1294e-06
8.1907e-06
5.29052e-05
0.00284275
0.0775115
0.549707
0.939712
-1.54351e-12
-2.41901e-13
-3.09915e-13
-3.65296e-13
-4.62904e-13
-5.75428e-13
-7.24224e-13
-8.96988e-13
-1.11402e-12
-1.36773e-12
-1.68076e-12
-2.04982e-12
-2.50048e-12
-3.0459e-12
-3.7192e-12
-4.55657e-12
-5.60473e-12
-6.91336e-12
-8.52779e-12
-1.04758e-11
-1.2754e-11
-1.52945e-11
-1.79423e-11
-2.04274e-11
-2.23871e-11
-2.34401e-11
-2.33125e-11
-2.19703e-11
-1.97562e-11
-1.73827e-11
-1.5463e-11
-1.42175e-11
-1.36275e-11
-1.36345e-11
-1.41351e-11
-1.47292e-11
-1.46418e-11
-1.34656e-11
-1.12569e-11
-8.52183e-12
-6.18733e-12
-4.78254e-12
-4.41365e-12
-4.22657e-12
-2.82004e-12
-3.11439e-13
-1.0656e-14
-3.7191e-14
-9.04132e-14
8.31679e-12
6.62346e-11
1.55436e-09
4.39564e-08
3.13222e-07
2.28891e-06
4.02093e-05
0.000803346
0.0151705
0.229355
0.947621
-4.01183e-12
-4.76807e-12
-5.81739e-12
-7.42234e-12
-9.41296e-12
-1.16301e-11
-1.43359e-11
-1.73696e-11
-2.10273e-11
-2.51095e-11
-2.99039e-11
-3.50966e-11
-4.09223e-11
-4.70997e-11
-5.37666e-11
-6.08426e-11
-6.81512e-11
-7.52613e-11
-8.12774e-11
-8.49216e-11
-8.46073e-11
-7.86019e-11
-6.56969e-11
-4.54808e-11
-1.91907e-11
1.00662e-11
1.42567e-10
4.34532e-10
6.87789e-10
8.22825e-10
8.61689e-10
8.43414e-10
6.37056e-10
3.55619e-10
1.58084e-10
5.83378e-11
2.33069e-11
1.82483e-11
3.66568e-11
6.12164e-11
6.36986e-11
4.33356e-11
2.33151e-11
9.36043e-12
-2.94729e-16
-6.354e-15
-5.22201e-14
-1.57754e-13
4.40815e-11
2.38856e-10
8.76242e-10
4.92636e-09
5.63687e-08
5.18421e-07
5.56717e-06
0.000148673
0.000907304
0.00107781
0.028365
0.828401
-9.17436e-12
-1.66147e-11
-2.22458e-11
-2.90996e-11
-3.68352e-11
-4.52376e-11
-5.43492e-11
-6.389e-11
-7.37918e-11
-8.3457e-11
-9.24336e-11
-9.959e-11
-1.04475e-10
-1.06045e-10
-1.04047e-10
-9.80547e-11
-8.7599e-11
-7.18095e-11
-5.01287e-11
-2.41452e-11
3.48628e-12
1.28539e-10
3.22846e-10
4.70457e-10
5.51274e-10
5.61446e-10
9.24174e-10
1.2195e-08
6.68961e-08
1.24114e-07
1.34376e-07
1.29024e-07
1.08441e-07
7.02183e-08
1.72781e-08
5.59851e-09
5.62581e-09
7.33563e-09
1.08308e-08
1.66507e-08
1.82173e-08
1.41533e-08
6.98905e-09
2.96879e-09
2.07583e-09
2.51227e-09
5.80759e-09
1.20551e-08
3.15649e-08
8.58269e-08
1.90152e-07
5.11907e-07
1.61067e-06
1.01431e-05
0.000186918
0.00122309
0.001842
0.00102249
0.00891092
0.335587
-3.98731e-11
-5.80091e-11
-7.8944e-11
-1.01189e-10
-1.23031e-10
-1.45428e-10
-1.66877e-10
-1.88533e-10
-2.09022e-10
-2.28851e-10
-2.45731e-10
-2.58311e-10
-2.63812e-10
-2.59921e-10
-2.45347e-10
-2.20203e-10
-1.85799e-10
-1.45369e-10
-1.03666e-10
-6.38495e-11
-2.6537e-11
3.01662e-12
7.66284e-11
1.78699e-10
3.4148e-10
8.26299e-10
3.52496e-09
1.57852e-08
3.40736e-08
4.21638e-08
4.49028e-08
3.90066e-08
3.72627e-08
3.19763e-08
2.56237e-08
2.22391e-08
3.17398e-08
8.45219e-08
1.88839e-07
2.3776e-07
1.99934e-07
1.52742e-07
1.34672e-07
1.85328e-07
3.43539e-07
6.00454e-07
8.01893e-07
8.31541e-07
1.70314e-06
4.99535e-06
1.437e-05
4.89566e-05
0.000193127
0.000350867
0.00118142
0.00170751
0.00168562
0.000799879
0.00230475
0.759058
-1.07351e-10
-1.45929e-10
-1.89185e-10
-2.26082e-10
-2.57339e-10
-2.83367e-10
-3.03298e-10
-3.19393e-10
-3.25269e-10
-3.2342e-10
-3.16509e-10
-3.00581e-10
-2.78377e-10
-2.49359e-10
-2.19745e-10
-1.88977e-10
-1.55861e-10
-1.17743e-10
-7.30543e-11
-2.29432e-11
-5.12737e-16
1.38577e-14
3.66495e-11
1.87826e-10
4.83346e-10
1.0855e-09
2.14041e-09
3.5648e-09
5.42257e-09
9.21586e-09
1.48844e-08
1.93242e-08
1.73522e-08
1.08186e-08
1.49677e-08
1.9942e-08
2.7117e-08
4.46028e-08
9.05157e-08
1.66838e-07
2.02597e-07
1.83272e-07
3.71189e-07
9.36702e-07
2.05993e-06
3.54968e-06
2.49415e-05
0.000146536
0.000389116
0.000550191
0.000645129
0.000797146
0.000859191
0.000859152
0.000582477
0.000114807
1.2477e-09
5.11948e-05
0.00513317
0.92539
-1.12596e-10
-1.215e-10
-1.13224e-10
-1.02236e-10
-9.51914e-11
-9.53517e-11
-6.48648e-11
-1.27991e-11
-1.48119e-18
-5.15599e-18
-1.34457e-17
2.96746e-17
1.92156e-11
1.24837e-10
2.20081e-10
3.46949e-10
5.83136e-10
9.02506e-10
1.24311e-09
1.76456e-09
2.9426e-09
5.0538e-09
8.30795e-09
1.32874e-08
1.96721e-08
2.7133e-08
3.49484e-08
4.07862e-08
4.31816e-08
4.27747e-08
3.89456e-08
3.34765e-08
2.56428e-08
2.07477e-08
2.90299e-08
6.66399e-08
9.41907e-08
1.04595e-07
1.38763e-07
1.86186e-07
2.12771e-07
2.15512e-07
6.2671e-07
3.18405e-06
2.42191e-05
0.000131373
0.000240992
0.000241009
0.000220905
0.000273059
0.000332514
0.000419707
0.000632011
0.000569248
0.00016555
3.12987e-06
-3.50609e-11
0.000140332
0.0234433
0.932218
-5.33532e-11
-1.7864e-18
2.41307e-17
-1.70387e-17
2.87061e-16
1.40437e-09
3.6549e-09
5.83264e-09
7.56334e-09
1.12278e-08
2.00142e-08
4.104e-08
8.14004e-08
1.37502e-07
1.89578e-07
2.29072e-07
2.65646e-07
3.08241e-07
3.51494e-07
3.58921e-07
3.32772e-07
3.42832e-07
3.75046e-07
4.01844e-07
4.26298e-07
4.6934e-07
5.40397e-07
6.38391e-07
7.66957e-07
9.08772e-07
1.03933e-06
1.15764e-06
1.23499e-06
1.24969e-06
1.22905e-06
1.17771e-06
1.24529e-06
1.33133e-06
1.20321e-06
9.09858e-07
6.94852e-07
5.89056e-07
8.54424e-07
2.83326e-06
1.15743e-05
2.77315e-05
3.79377e-05
4.10942e-05
3.57908e-05
4.95754e-05
6.66062e-05
9.67562e-05
0.00014519
0.00011446
2.92612e-05
5.12366e-07
2.87215e-07
0.000871504
0.155722
0.945815
6.62394e-10
9.8029e-09
3.95545e-08
1.00704e-07
1.23684e-07
8.60384e-08
1.08111e-07
1.56054e-07
2.30805e-07
3.2933e-07
4.51661e-07
6.54485e-07
1.03545e-06
1.54272e-06
2.1279e-06
2.72614e-06
3.22228e-06
3.63276e-06
4.13553e-06
4.28393e-06
4.17282e-06
3.96854e-06
3.85347e-06
3.87871e-06
4.01403e-06
4.32871e-06
4.79819e-06
5.28436e-06
5.8343e-06
6.70437e-06
8.19001e-06
1.03806e-05
1.25262e-05
1.2904e-05
1.2478e-05
1.19949e-05
1.11317e-05
1.01074e-05
1.04837e-05
1.15948e-05
1.23306e-05
1.23195e-05
1.16327e-05
9.49129e-06
8.99798e-06
7.57771e-06
1.2939e-05
3.09003e-05
4.34715e-05
4.42235e-05
5.23232e-05
6.40626e-05
5.49286e-05
3.30974e-05
3.37464e-05
7.68362e-06
3.94613e-05
0.00578823
0.551509
0.982559
6.18319e-09
5.87924e-08
9.49803e-08
9.71979e-08
9.34268e-08
2.60561e-07
4.69667e-07
5.29592e-07
5.77392e-07
6.7309e-07
7.12772e-07
7.5334e-07
1.09445e-06
1.87477e-06
2.46494e-06
5.03266e-06
9.03338e-06
1.27112e-05
1.4763e-05
1.83125e-05
2.33651e-05
2.69244e-05
2.84193e-05
2.84328e-05
2.78892e-05
2.68178e-05
2.54761e-05
2.47936e-05
2.58922e-05
2.97809e-05
3.72353e-05
4.67034e-05
5.51496e-05
6.3206e-05
7.34125e-05
9.28673e-05
0.000108252
0.000104953
9.77785e-05
9.45159e-05
9.12223e-05
8.53026e-05
8.05477e-05
8.10985e-05
9.16085e-05
0.000113962
0.000128428
0.000132089
0.000142457
0.000173622
0.000211018
0.00024572
0.000280306
0.000291973
0.000207144
0.000105768
0.000481162
0.0222657
0.800909
0.992927
6.39682e-15
1.01957e-15
-3.46079e-16
-3.35675e-16
7.39515e-16
-5.98992e-15
-1.07388e-14
1.15695e-14
-5.93685e-11
7.63628e-11
5.15904e-09
3.35644e-05
6.9157e-05
5.66552e-05
2.97731e-06
2.71366e-06
2.69018e-06
2.71345e-06
3.72777e-05
0.000113349
0.000192616
0.000235929
0.000259323
0.000337965
0.000459053
0.000562593
0.000606081
0.000579511
0.000536346
0.000533123
0.000539466
0.000510427
0.000425053
0.000295519
0.000211725
0.000204939
0.000216768
0.00023986
0.000286698
0.000375888
0.000531706
0.000768535
0.00111134
0.00157913
0.00208951
0.00245925
0.00263076
0.00268688
0.00263918
0.00238351
0.001848
0.00100823
0.000641536
0.000781492
0.00113896
0.00166862
0.00335413
0.0704021
0.848551
0.992997
1.51399e-14
-7.64887e-16
-4.66044e-16
1.45374e-15
1.53967e-05
6.22409e-05
0.00018089
0.000531553
0.0014658
0.00232201
0.00255
0.00304227
0.00351541
0.00294015
0.00160257
0.000831166
0.00082382
0.000993113
0.00158632
0.0028707
0.00290965
0.00110915
0.000272122
0.000239651
0.000250957
0.000255813
0.000241971
0.000216575
0.000199366
0.000197597
0.000200758
0.000208657
0.00020735
0.000194172
0.000191428
0.000201932
0.000240242
0.000331079
0.000441018
0.000528045
0.000592786
0.000652622
0.000734643
0.000875388
0.00109731
0.00142329
0.00178938
0.00195272
0.00193211
0.00176619
0.00141585
0.000851606
0.000704363
0.000777053
0.000913624
0.0012232
0.00236399
0.0614149
0.841773
0.992998
1.65792e-13
1.17604e-13
1.49446e-05
4.68232e-05
9.01872e-05
0.000152297
0.000284571
0.000652527
0.00165137
0.00420198
0.0126136
0.036087
0.0511317
0.0474157
0.0400135
0.0437811
0.0878507
0.242617
0.292156
0.192929
0.0431701
0.00195951
0.000242904
0.000347388
0.00025909
0.000188214
0.00019434
0.000191754
0.000149635
7.04247e-05
2.87144e-05
5.67117e-05
0.000294361
0.000336268
0.000336171
0.000317675
0.000224992
0.000311174
0.000412606
0.000414339
0.00042429
0.000449423
0.000491393
0.000567244
0.000726239
0.000959771
0.00103086
0.000986436
0.000839327
0.000582013
0.000300423
0.000270491
0.000491726
0.000900726
0.000814018
0.000409864
0.000867155
0.0490539
0.851756
0.992998
9.44268e-15
1.68863e-14
1.09769e-14
1.80204e-06
3.72141e-06
4.70795e-06
3.17212e-06
1.82005e-05
0.000127287
0.000438835
0.00113208
0.00192074
0.00184731
0.00153103
0.00176834
0.00425375
0.0157843
0.0524494
0.0860828
0.075136
0.0345213
0.0100912
0.00455568
0.00204589
0.000521166
0.000131073
0.000128271
0.000144515
0.000140136
0.000106236
5.43462e-05
4.2101e-05
7.90048e-05
0.000266854
0.000336269
0.000210226
7.87302e-05
9.71162e-05
0.000213736
0.000257603
0.000268337
0.000267203
0.00025892
0.000242074
0.000243359
0.000287359
0.000450691
0.000608201
0.000599034
0.00047768
0.000291008
0.000311845
0.000884709
0.00156741
0.0011105
0.000342158
0.000710245
0.0479682
0.851029
0.992996
4.55815e-15
3.80967e-15
1.90232e-15
8.36401e-16
-3.73722e-16
-8.33678e-15
-8.04902e-14
-6.14791e-14
-2.70619e-10
1.19454e-05
9.92747e-06
1.7362e-07
1.1351e-07
2.76173e-05
0.000100385
0.000266021
0.000743723
0.00201967
0.00530163
0.015275
0.0299541
0.0317344
0.0223176
0.00721711
0.000811337
0.000115724
9.43741e-05
8.74381e-05
8.22676e-05
8.21402e-05
8.19835e-05
8.03024e-05
7.84387e-05
7.84336e-05
0.000101223
0.000148362
0.000189546
0.000200198
0.000200929
0.000209093
0.000225047
0.000232629
0.000229069
0.000214391
0.000200576
0.000200626
0.000217875
0.000283267
0.000358242
0.000357902
0.000295769
0.000291712
0.000507979
0.000657994
0.000530533
0.000257044
0.000741249
0.0495154
0.834471
0.988147
1.16892e-07
1.90433e-07
7.97453e-07
5.2997e-07
7.42451e-07
9.86014e-07
1.42684e-06
1.51508e-06
1.20882e-06
1.6408e-07
1.61559e-07
3.87172e-09
1.72559e-07
3.63561e-06
1.50417e-05
3.23973e-05
9.5709e-05
0.000296527
0.0012374
0.00512096
0.0109552
0.0108413
0.00649144
0.00143321
7.38833e-05
3.92618e-06
3.08856e-06
3.1137e-06
3.08964e-06
3.11384e-06
3.09502e-06
3.11623e-06
2.60119e-05
9.01416e-05
0.000161146
0.00023371
0.000295263
0.000188584
4.8542e-05
6.64845e-05
0.000107063
0.000127086
0.000137809
0.000141641
0.000135506
0.000120261
9.33371e-05
5.82612e-05
4.77339e-05
6.13628e-05
0.000107681
0.000194721
0.000309022
0.000463408
0.000461273
0.000190733
6.52305e-05
0.0489484
0.817317
0.985105
1.41618e-06
3.4891e-06
3.83711e-06
3.84816e-06
3.83089e-06
4.37972e-06
3.75505e-06
3.09578e-06
2.87158e-06
2.53117e-06
2.14899e-06
2.10322e-06
2.71948e-06
3.05202e-06
4.10983e-06
1.13424e-05
4.68199e-05
0.000131022
0.000310961
0.000683611
0.00081237
0.000596431
0.000232919
0.000124422
0.000149457
0.000182508
0.000167472
0.000122904
0.000113857
0.000160291
0.000357226
0.000286625
7.60919e-05
6.81781e-05
0.000227721
0.000621706
0.000622655
0.000253206
8.17203e-05
7.72059e-05
0.000186681
0.00061531
0.000610408
0.000644692
0.000592587
0.000334025
7.02803e-05
4.78495e-05
4.77348e-05
4.78486e-05
0.000120278
0.000457774
0.00136763
0.000950499
0.000230338
7.43286e-06
6.51719e-05
0.0191885
0.747234
0.988335
9.93002e-08
3.16356e-13
-1.74821e-14
-5.18023e-15
7.31829e-15
5.74915e-15
3.0655e-14
-7.5436e-15
-1.7551e-14
6.39586e-07
1.62524e-06
1.68731e-06
1.52893e-06
7.17911e-07
5.77318e-07
6.16716e-07
6.16397e-07
7.86714e-06
4.86687e-05
6.5025e-05
1.32029e-05
5.98736e-06
6.12319e-06
1.30448e-05
1.80969e-05
1.64686e-05
1.87815e-05
3.09874e-05
7.11561e-05
0.000164772
0.000173757
0.000114885
4.91747e-05
7.11917e-05
0.000166612
0.000196426
0.000157718
9.48552e-05
7.52654e-05
9.19409e-05
0.000176029
0.000281977
0.000265065
0.000243557
0.000262369
0.0002693
0.000268631
0.000262902
0.000296665
0.000424261
0.000573955
0.000603804
0.000593241
0.000438536
0.000133528