/*--------------------------------*- C++ -*----------------------------------*\
| =========                 |                                                 |
| \\      /  F ield         | OpenFOAM: The Open Source CFD Toolbox           |
|  \\    /   O peration     | Version:  2.1.1                                 |
|   \\  /    A nd           | Web:      www.OpenFOAM.org                      |
|    \\/     M anipulation  |                                                 |
\*---------------------------------------------------------------------------*/
FoamFile
{
    version     2.0;
    format      ascii;
    class       volScalarField;
    location    "0.00145";
    object      criterion2;
}
// * * * * * * * * * * * * * * * * * * * * * * * * * * * * * * * * * * * * * //

dimensions      [1 2 -2 0 0 0 0];

internalField   nonuniform List<scalar> 
36520
(
4.82309e-09
7.4113e-09
1.12612e-08
1.25882e-08
1.35665e-08
1.42176e-08
1.47647e-08
1.52292e-08
1.56502e-08
1.60315e-08
1.63641e-08
1.66546e-08
1.68892e-08
1.7092e-08
1.72591e-08
1.74364e-08
1.76328e-08
1.78692e-08
1.81315e-08
1.84081e-08
1.86808e-08
1.89243e-08
1.90691e-08
1.90017e-08
1.85963e-08
1.78698e-08
1.69223e-08
1.5957e-08
1.51665e-08
1.46231e-08
1.42506e-08
1.39544e-08
1.36652e-08
1.33436e-08
1.30209e-08
1.27176e-08
1.24538e-08
1.22698e-08
1.21957e-08
1.22698e-08
1.25051e-08
1.28925e-08
1.34434e-08
1.41583e-08
1.49999e-08
1.59621e-08
1.70313e-08
1.81092e-08
1.92354e-08
2.06419e-08
2.28711e-08
2.64072e-08
3.11448e-08
4.06516e-08
3.08633e-08
8.6481e-09
6.13778e-09
4.3588e-10
8.04519e-11
1.71072e-11
1.8326e-08
3.61646e-09
4.83834e-09
4.60324e-09
4.57829e-09
4.49248e-09
4.51915e-09
4.529e-09
4.56214e-09
4.58206e-09
4.61247e-09
4.63017e-09
4.63235e-09
4.58739e-09
4.49256e-09
4.37918e-09
4.25572e-09
4.14275e-09
4.03446e-09
3.93083e-09
3.81891e-09
3.66457e-09
3.3427e-09
2.83972e-09
2.47242e-09
2.58034e-09
3.40674e-09
3.93738e-09
3.43463e-09
3.03701e-09
2.95707e-09
3.07283e-09
3.24368e-09
3.43762e-09
3.63178e-09
3.82363e-09
4.02307e-09
4.28657e-09
4.60285e-09
4.93804e-09
5.23397e-09
5.45315e-09
5.652e-09
5.8896e-09
6.16527e-09
6.52357e-09
6.89697e-09
7.23568e-09
7.59107e-09
8.04907e-09
8.98383e-09
1.0759e-08
1.24865e-08
1.29504e-08
1.17195e-08
1.56699e-08
1.3147e-08
4.99393e-09
4.22216e-11
1.98899e-10
1.09674e-08
-1.00834e-09
-2.23509e-10
-3.14357e-10
-2.90125e-10
-2.76671e-10
-1.82004e-10
-9.41076e-11
4.35465e-11
1.81711e-10
3.29514e-10
4.33389e-10
4.71875e-10
4.52287e-10
4.13535e-10
4.16609e-10
4.82936e-10
6.38342e-10
8.82874e-10
1.22185e-09
1.65429e-09
2.15338e-09
2.63769e-09
3.00481e-09
3.02451e-09
2.27122e-09
1.23632e-09
4.80884e-10
7.14676e-11
-2.03638e-11
1.79175e-10
5.81774e-10
1.05763e-09
1.59798e-09
2.15228e-09
2.57561e-09
2.72669e-09
2.71685e-09
2.70496e-09
2.72334e-09
2.74842e-09
2.72964e-09
2.66905e-09
2.61799e-09
2.62224e-09
2.76746e-09
3.10919e-09
3.69324e-09
4.61394e-09
6.01561e-09
7.99903e-09
9.43145e-09
8.47886e-09
5.66704e-09
3.68926e-09
2.46402e-09
2.08798e-09
4.78603e-09
1.42403e-10
2.20429e-10
3.69644e-09
-2.95761e-09
-2.14244e-09
-1.94993e-09
-1.78537e-09
-1.61387e-09
-1.4497e-09
-1.25544e-09
-1.02756e-09
-7.72707e-10
-5.04442e-10
-2.31874e-10
6.66956e-11
4.32971e-10
9.36727e-10
1.67232e-09
2.76459e-09
4.35098e-09
6.5389e-09
9.31176e-09
1.24609e-08
1.55108e-08
1.77598e-08
1.8561e-08
1.72831e-08
1.32275e-08
8.08075e-09
4.0576e-09
1.8297e-09
8.145e-10
3.91137e-10
2.13615e-10
1.12223e-10
2.19213e-11
-5.65828e-11
-7.90579e-11
-8.35885e-12
1.2153e-10
2.53529e-10
4.42794e-10
7.11356e-10
1.0176e-09
1.25134e-09
1.29752e-09
1.20302e-09
1.17753e-09
1.31039e-09
1.73018e-09
2.58406e-09
3.92145e-09
5.67254e-09
7.8588e-09
7.56632e-09
5.78183e-09
2.72534e-09
9.90863e-10
4.8931e-10
1.30477e-09
2.32792e-10
2.43305e-10
-1.69146e-09
-3.18873e-09
-2.31999e-09
-1.88005e-09
-1.57921e-09
-1.32334e-09
-1.08638e-09
-7.89736e-10
-3.71037e-10
2.46248e-10
1.13994e-09
2.37983e-09
4.02084e-09
6.13314e-09
8.85659e-09
1.23358e-08
1.6859e-08
2.27978e-08
3.03758e-08
3.95234e-08
4.97062e-08
5.97596e-08
6.72397e-08
6.82909e-08
6.18672e-08
5.03772e-08
3.62563e-08
2.37989e-08
1.58608e-08
1.17596e-08
9.73384e-09
8.62542e-09
7.82533e-09
6.98431e-09
5.9827e-09
4.81882e-09
3.82961e-09
3.11718e-09
2.74593e-09
2.65823e-09
2.42762e-09
1.94397e-09
1.21461e-09
6.56356e-10
8.03032e-10
9.92293e-10
1.06723e-09
1.18138e-09
1.54771e-09
2.27698e-09
3.42269e-09
5.19126e-09
6.57342e-09
8.43301e-09
9.34649e-09
5.49016e-09
3.96884e-10
7.52567e-10
7.1096e-11
2.2774e-10
2.74975e-09
-2.04845e-09
-1.55191e-09
-1.22407e-09
-8.63416e-10
-3.53245e-10
3.60589e-10
1.44699e-09
3.119e-09
5.63708e-09
9.17213e-09
1.36307e-08
1.86067e-08
2.38682e-08
2.95431e-08
3.58949e-08
4.35166e-08
5.30549e-08
6.47566e-08
7.82506e-08
9.30649e-08
1.08639e-07
1.22978e-07
1.29672e-07
1.24117e-07
1.12406e-07
9.58689e-08
7.80774e-08
6.413e-08
5.50885e-08
4.97212e-08
4.64656e-08
4.44177e-08
4.29501e-08
4.14725e-08
3.90857e-08
3.6445e-08
3.36039e-08
3.1124e-08
2.9475e-08
2.71411e-08
2.3973e-08
1.91991e-08
1.30988e-08
9.37984e-09
7.2783e-09
5.76969e-09
4.07367e-09
2.78886e-09
2.41198e-09
2.77022e-09
3.44994e-09
3.79912e-09
4.75746e-09
6.65024e-09
1.03425e-08
7.21303e-09
5.40841e-10
-2.99417e-11
1.62469e-10
1.90229e-08
-1.23397e-09
-5.1021e-10
3.45188e-10
1.49391e-09
3.21573e-09
5.59265e-09
8.95266e-09
1.36649e-08
2.01007e-08
2.80302e-08
3.67614e-08
4.48398e-08
5.16203e-08
5.79647e-08
6.44925e-08
7.27453e-08
8.31712e-08
9.47541e-08
1.07172e-07
1.1969e-07
1.32204e-07
1.43527e-07
1.48868e-07
1.47051e-07
1.44401e-07
1.42197e-07
1.35384e-07
1.24471e-07
1.14775e-07
1.06205e-07
9.86411e-08
9.223e-08
8.73165e-08
8.44825e-08
8.28785e-08
8.16777e-08
8.02889e-08
7.86266e-08
7.63994e-08
7.37888e-08
6.99576e-08
6.48708e-08
5.54922e-08
4.55296e-08
3.74706e-08
3.12872e-08
2.51539e-08
1.89462e-08
1.35842e-08
1.02989e-08
7.59518e-09
3.38954e-09
3.18346e-09
6.43125e-09
1.1872e-08
9.69704e-09
1.86161e-10
-2.63032e-11
1.45926e-10
2.54139e-08
3.57478e-10
1.91272e-09
4.24097e-09
7.12337e-09
1.12444e-08
1.60516e-08
2.20241e-08
2.91477e-08
3.86103e-08
4.80381e-08
5.63081e-08
6.32995e-08
6.97164e-08
7.54179e-08
8.14789e-08
8.83815e-08
9.5644e-08
1.02327e-07
1.07365e-07
1.11628e-07
1.16636e-07
1.2398e-07
1.32862e-07
1.35326e-07
1.33191e-07
1.4058e-07
1.53917e-07
1.54079e-07
1.48291e-07
1.41156e-07
1.33142e-07
1.24276e-07
1.15263e-07
1.08125e-07
1.04943e-07
1.03702e-07
9.94066e-08
8.18546e-08
8.05147e-08
7.98843e-08
8.50986e-08
8.29145e-08
7.57463e-08
6.61197e-08
5.66902e-08
4.68266e-08
3.73198e-08
2.91615e-08
2.29922e-08
1.87513e-08
1.65363e-08
1.42017e-08
1.29957e-08
1.46337e-08
1.52123e-08
7.98472e-09
7.29241e-11
-1.64382e-11
1.52269e-10
1.44391e-07
2.97932e-09
6.91706e-09
1.19126e-08
1.6374e-08
2.31762e-08
2.77571e-08
3.19327e-08
3.60354e-08
4.02378e-08
4.40754e-08
4.85079e-08
5.46065e-08
5.84188e-08
6.24693e-08
6.56194e-08
6.58447e-08
5.77596e-08
3.73236e-08
1.76024e-08
8.98038e-09
7.80211e-09
9.47233e-09
1.62716e-08
3.00491e-08
4.27785e-08
5.44806e-08
6.77268e-08
8.07281e-08
9.36133e-08
1.08534e-07
1.19716e-07
1.18588e-07
1.12084e-07
1.03748e-07
9.61622e-08
9.20825e-08
8.9706e-08
8.72762e-08
8.37505e-08
7.97026e-08
7.54137e-08
6.99469e-08
6.28507e-08
5.47197e-08
4.63938e-08
3.80773e-08
3.07413e-08
2.56042e-08
2.2368e-08
2.16616e-08
2.38004e-08
2.10134e-08
1.92328e-08
1.79343e-08
1.31387e-08
5.89968e-09
8.54145e-11
-7.48753e-12
1.35113e-10
2.03877e-07
1.90276e-09
5.70518e-09
8.63218e-09
1.20173e-08
1.4999e-08
1.74107e-08
1.93121e-08
2.10033e-08
2.22347e-08
2.23639e-08
2.19294e-08
2.60059e-08
3.8262e-08
4.4565e-08
4.63406e-08
4.80233e-08
4.70392e-08
3.44474e-08
1.44556e-08
4.87438e-09
2.71261e-09
2.96286e-09
4.93232e-09
1.25457e-08
2.24366e-08
2.78455e-08
3.21382e-08
3.55267e-08
3.84863e-08
4.3516e-08
5.55969e-08
8.17717e-08
1.11773e-07
1.14842e-07
1.06961e-07
9.59043e-08
8.58064e-08
7.81159e-08
7.11676e-08
6.4612e-08
5.91605e-08
5.51477e-08
5.23187e-08
5.03321e-08
4.78368e-08
4.4213e-08
3.974e-08
3.56506e-08
3.25391e-08
3.2577e-08
3.36638e-08
2.65764e-08
1.86499e-08
1.36474e-08
1.00336e-08
5.03573e-09
9.27461e-11
-2.76492e-12
1.39019e-10
1.04297e-07
6.23424e-10
6.81307e-09
1.07595e-08
1.3526e-08
1.61515e-08
1.83154e-08
2.04256e-08
2.30248e-08
2.64705e-08
2.97936e-08
3.0459e-08
3.64703e-08
4.51894e-08
4.75043e-08
5.07724e-08
5.59185e-08
5.91404e-08
3.8498e-08
8.26295e-09
2.02476e-09
1.08046e-09
1.17069e-09
1.77166e-09
5.21047e-09
1.87292e-08
3.48047e-08
5.04961e-08
6.3304e-08
6.86734e-08
7.23992e-08
8.02287e-08
9.72084e-08
1.14824e-07
1.16588e-07
1.10973e-07
1.00782e-07
9.48663e-08
9.30929e-08
9.21042e-08
9.03366e-08
8.84852e-08
8.62893e-08
8.43539e-08
8.15229e-08
7.6987e-08
7.07264e-08
6.33655e-08
5.5389e-08
4.76273e-08
4.14763e-08
3.78914e-08
3.04353e-08
2.16021e-08
1.77383e-08
1.84127e-08
9.83805e-09
6.71604e-11
6.65347e-13
1.09306e-10
2.90447e-08
1.60184e-09
4.09838e-09
6.40567e-09
8.52904e-09
1.21409e-08
1.50253e-08
1.84027e-08
2.26271e-08
2.79892e-08
3.41668e-08
4.01309e-08
4.48392e-08
4.71391e-08
4.83446e-08
5.07654e-08
5.48391e-08
6.03745e-08
6.52777e-08
6.70864e-08
4.82405e-08
6.68264e-09
6.703e-10
4.95927e-10
5.81823e-10
1.14979e-09
1.05707e-08
1.1118e-07
1.2016e-07
1.21867e-07
1.14553e-07
1.11948e-07
1.15923e-07
1.26191e-07
1.2686e-07
1.01776e-07
8.93253e-08
9.25707e-08
1.05944e-07
1.05136e-07
1.02189e-07
9.86873e-08
6.19253e-08
5.33982e-08
5.27875e-08
6.06678e-08
8.10914e-08
7.33843e-08
6.09209e-08
5.37559e-08
4.59742e-08
3.04371e-08
1.71946e-08
1.18936e-08
1.47034e-08
2.19651e-08
1.34529e-08
3.34198e-11
-2.42676e-12
8.5853e-11
3.1993e-08
1.60574e-09
3.24557e-09
4.86633e-09
6.42799e-09
9.4357e-09
1.26132e-08
1.63845e-08
2.0799e-08
2.61459e-08
3.27441e-08
3.92994e-08
4.33233e-08
4.30378e-08
3.80208e-08
3.23077e-08
3.09959e-08
3.64911e-08
5.14668e-08
5.99815e-08
6.23752e-08
3.24381e-08
2.66866e-09
4.24458e-10
3.37211e-10
3.99178e-10
8.03855e-10
1.05298e-08
1.15298e-07
1.24008e-07
1.26135e-07
1.2393e-07
1.23618e-07
1.27707e-07
1.30834e-07
1.09571e-07
9.02498e-08
8.58407e-08
9.50406e-08
1.03643e-07
9.95991e-08
9.70793e-08
9.42946e-08
6.97372e-08
5.14176e-08
6.25015e-08
8.12177e-08
7.19668e-08
4.90987e-08
3.40258e-08
2.61853e-08
1.64906e-08
9.20862e-09
1.11499e-08
1.9341e-08
2.54277e-08
1.39068e-08
3.68336e-11
7.12206e-13
5.91765e-11
1.03388e-07
1.01435e-09
6.99514e-09
1.01365e-08
1.02583e-08
1.21011e-08
1.44162e-08
1.72717e-08
2.03375e-08
2.31963e-08
2.47478e-08
2.15453e-08
1.17576e-08
4.5638e-09
1.95794e-09
1.45055e-09
1.76431e-09
4.32146e-09
2.24098e-08
5.01915e-08
5.57437e-08
5.75089e-08
2.77038e-08
1.29585e-09
2.85888e-10
2.8062e-10
3.51749e-10
8.60121e-10
1.73217e-08
7.94936e-08
8.27337e-08
8.5734e-08
9.00578e-08
1.00069e-07
1.16012e-07
1.21058e-07
1.13002e-07
1.02189e-07
9.68996e-08
9.28802e-08
8.88174e-08
8.64902e-08
8.50247e-08
8.132e-08
7.44711e-08
7.06297e-08
6.57569e-08
5.83019e-08
4.54124e-08
3.11899e-08
2.34383e-08
1.81286e-08
1.02737e-08
6.70477e-09
9.46799e-09
1.4094e-08
8.25348e-09
9.18996e-11
6.18632e-12
7.8243e-11
2.20813e-07
1.22813e-09
3.10508e-09
7.13836e-09
8.94422e-09
1.07669e-08
1.22647e-08
1.33149e-08
1.43127e-08
1.45672e-08
1.25398e-08
6.94219e-09
1.74701e-09
3.55028e-10
1.92812e-10
2.42796e-10
4.08539e-10
1.42707e-09
1.42058e-08
5.24219e-08
5.86441e-08
5.91153e-08
3.78652e-08
1.19782e-08
2.16337e-09
4.84846e-10
3.63707e-10
4.38545e-10
1.02525e-09
1.72122e-08
1.08664e-07
1.19884e-07
1.22106e-07
1.20189e-07
1.0815e-07
9.1464e-08
8.85672e-08
1.01001e-07
1.07914e-07
1.01872e-07
9.49566e-08
8.84603e-08
7.87958e-08
6.40389e-08
5.37513e-08
4.9136e-08
4.52467e-08
4.17027e-08
3.54635e-08
2.83923e-08
2.28771e-08
1.75435e-08
1.06633e-08
6.55691e-09
7.43254e-09
1.11223e-08
6.03221e-09
9.13283e-11
6.19941e-13
1.03489e-10
1.6001e-07
1.99268e-09
4.54615e-09
8.52569e-09
1.2566e-08
1.55724e-08
1.83086e-08
2.09132e-08
2.25793e-08
2.00399e-08
1.07746e-08
3.36393e-09
1.54769e-09
1.91959e-09
5.51591e-09
4.68258e-08
7.75874e-08
8.24333e-08
8.94292e-08
9.5017e-08
8.92893e-08
6.40447e-08
3.45754e-08
1.68351e-08
7.5108e-09
3.08907e-09
2.01764e-09
2.30631e-09
5.56622e-09
4.41985e-08
1.07838e-07
9.87558e-08
8.17238e-08
7.86037e-08
8.43438e-08
1.03293e-07
1.104e-07
1.04724e-07
6.40178e-08
3.80472e-08
3.63998e-08
4.50382e-08
7.44716e-08
6.99421e-08
4.68512e-08
3.76967e-08
3.21974e-08
2.92709e-08
3.13475e-08
2.85193e-08
2.16658e-08
1.29546e-08
7.64842e-09
7.64359e-09
8.27399e-09
1.11431e-08
5.23587e-09
7.45669e-11
-3.65811e-12
1.14399e-10
2.62928e-08
6.38415e-10
2.42473e-09
5.1821e-09
8.52138e-09
1.26117e-08
1.72896e-08
2.34833e-08
3.25823e-08
4.26716e-08
5.43174e-08
6.57775e-08
7.24099e-08
7.36723e-08
7.22063e-08
7.16925e-08
7.54904e-08
8.40736e-08
9.65529e-08
1.10874e-07
1.24425e-07
1.35696e-07
1.43903e-07
1.4762e-07
1.33534e-07
9.49684e-08
7.25278e-08
7.51522e-08
1.01845e-07
1.3408e-07
1.31216e-07
1.25706e-07
1.2451e-07
1.25896e-07
1.25409e-07
1.1934e-07
1.09441e-07
5.96255e-08
4.84607e-08
4.887e-08
6.16291e-08
7.72668e-08
8.35842e-08
7.52893e-08
6.16949e-08
4.96588e-08
4.01231e-08
3.32766e-08
2.9094e-08
2.43225e-08
1.96774e-08
1.54745e-08
1.30818e-08
1.4852e-08
1.72542e-08
1.86017e-08
1.08928e-08
1.26895e-10
-1.4643e-11
1.30129e-10
1.91525e-08
-1.23046e-09
-6.2335e-10
1.14987e-10
1.08813e-09
2.45717e-09
4.33973e-09
7.01848e-09
1.08027e-08
1.57991e-08
2.19706e-08
2.8174e-08
3.26476e-08
3.50993e-08
3.69423e-08
4.03601e-08
4.6508e-08
5.55511e-08
6.70787e-08
7.9442e-08
9.13589e-08
1.03198e-07
1.13757e-07
1.2306e-07
1.31102e-07
1.3635e-07
1.37621e-07
1.36083e-07
1.31366e-07
1.24529e-07
1.16447e-07
1.085e-07
9.9052e-08
8.96981e-08
8.09187e-08
7.17147e-08
6.20674e-08
5.56165e-08
5.49965e-08
5.80763e-08
5.98276e-08
5.82857e-08
5.43175e-08
4.95587e-08
4.35737e-08
3.56633e-08
2.9013e-08
2.35971e-08
1.86077e-08
1.4972e-08
1.37241e-08
1.40647e-08
1.55688e-08
1.82915e-08
2.00932e-08
2.00025e-08
1.54912e-08
1.10691e-09
-1.82971e-11
1.50105e-10
9.21068e-09
-2.12534e-09
-1.62554e-09
-1.35619e-09
-1.10113e-09
-8.25041e-10
-4.64015e-10
2.59466e-11
7.18649e-10
1.68143e-09
2.91627e-09
4.28897e-09
5.61506e-09
6.84631e-09
8.02931e-09
1.00862e-08
1.31818e-08
1.75729e-08
2.32229e-08
2.98949e-08
3.75072e-08
4.60482e-08
5.50524e-08
6.39621e-08
7.20402e-08
7.81176e-08
8.05008e-08
7.79996e-08
7.03224e-08
5.90233e-08
4.74451e-08
3.73304e-08
2.89739e-08
2.23995e-08
1.72229e-08
1.31372e-08
1.04779e-08
9.25495e-09
8.75255e-09
8.64098e-09
9.07709e-09
1.10014e-08
1.19757e-08
1.18022e-08
1.01801e-08
7.786e-09
6.9006e-09
6.80281e-09
7.14962e-09
7.7919e-09
8.28039e-09
1.09746e-08
1.3605e-08
1.83921e-08
2.47431e-08
2.43802e-08
1.86215e-08
6.87495e-09
7.75537e-12
1.70332e-10
4.97069e-09
-3.22686e-09
-2.423e-09
-2.03669e-09
-1.77137e-09
-1.5807e-09
-1.40116e-09
-1.20656e-09
-9.67373e-10
-6.92412e-10
-4.16687e-10
-1.91989e-10
-2.44516e-11
9.67642e-11
1.92784e-10
5.24732e-10
1.15236e-09
2.16119e-09
3.5987e-09
5.52306e-09
8.02371e-09
1.1176e-08
1.49006e-08
1.89736e-08
2.29466e-08
2.62185e-08
2.77079e-08
2.52082e-08
1.96364e-08
1.34957e-08
8.62637e-09
5.24422e-09
3.05912e-09
1.7179e-09
9.07398e-10
4.61735e-10
3.41894e-10
4.13402e-10
5.48807e-10
7.32066e-10
9.60302e-10
1.24257e-09
1.56682e-09
1.94732e-09
2.40106e-09
3.04668e-09
4.01772e-09
5.36395e-09
7.08479e-09
8.89424e-09
9.57874e-09
9.42423e-09
1.08545e-08
1.16116e-08
1.83096e-08
2.46456e-08
1.79263e-08
1.0492e-08
5.90114e-10
2.08071e-10
1.01437e-08
-2.62938e-09
-2.16003e-09
-2.03022e-09
-1.84878e-09
-1.73596e-09
-1.55002e-09
-1.35173e-09
-1.07593e-09
-7.83197e-10
-5.39518e-10
-4.3306e-10
-4.47706e-10
-5.25954e-10
-5.98212e-10
-5.60966e-10
-3.98266e-10
-1.22639e-10
2.22733e-10
6.42521e-10
1.15521e-09
1.80184e-09
2.57844e-09
3.46462e-09
4.35583e-09
5.17409e-09
5.33266e-09
4.35664e-09
2.82216e-09
1.5255e-09
7.0808e-10
2.81742e-10
1.28219e-10
1.98364e-10
4.36548e-10
6.13646e-10
5.81969e-10
5.37666e-10
5.7632e-10
7.06301e-10
9.10749e-10
1.1949e-09
1.60144e-09
2.13701e-09
2.85043e-09
3.88965e-09
5.37553e-09
7.40762e-09
1.00369e-08
1.29265e-08
1.62976e-08
1.78609e-08
1.28726e-08
8.96165e-09
5.88317e-09
6.11972e-09
6.10995e-09
1.026e-08
1.36356e-09
2.13798e-10
1.32352e-08
-6.48066e-10
-4.67201e-10
-7.15442e-10
-6.83137e-10
-6.95291e-10
-5.76865e-10
-4.59682e-10
-2.63318e-10
-2.81458e-11
2.10041e-10
3.64403e-10
3.7635e-10
2.95276e-10
2.1586e-10
2.4681e-10
3.87493e-10
6.37047e-10
9.18504e-10
1.16309e-09
1.26816e-09
1.23519e-09
1.15073e-09
1.11169e-09
1.1053e-09
1.10405e-09
9.69699e-10
7.21456e-10
4.8687e-10
4.44524e-10
7.53478e-10
1.5258e-09
2.16652e-09
2.14309e-09
1.73027e-09
1.29365e-09
9.722e-10
8.17632e-10
8.09508e-10
9.26648e-10
1.14111e-09
1.45551e-09
1.90494e-09
2.53724e-09
3.46039e-09
4.83261e-09
6.80654e-09
9.4642e-09
1.26241e-08
1.59914e-08
1.92945e-08
2.13407e-08
2.1198e-08
1.60635e-08
1.00974e-08
7.69383e-09
4.36481e-09
1.15433e-08
5.62567e-10
2.27377e-10
2.05986e-08
3.99682e-09
4.50581e-09
4.02206e-09
3.92061e-09
3.76204e-09
3.75698e-09
3.71281e-09
3.72487e-09
3.7393e-09
3.76231e-09
3.75859e-09
3.70303e-09
3.61697e-09
3.52799e-09
3.47258e-09
3.44072e-09
3.43742e-09
3.45509e-09
3.52282e-09
3.66381e-09
3.93925e-09
4.4272e-09
5.1966e-09
6.00721e-09
6.08703e-09
5.94892e-09
6.01637e-09
6.0815e-09
5.98366e-09
5.77581e-09
5.59354e-09
5.40658e-09
5.17792e-09
4.85179e-09
4.46011e-09
4.068e-09
3.78851e-09
3.63466e-09
3.57316e-09
3.54552e-09
3.55489e-09
3.62233e-09
3.77098e-09
4.20329e-09
5.18975e-09
6.9393e-09
9.57624e-09
1.20353e-08
1.39263e-08
1.51491e-08
1.60391e-08
1.68443e-08
1.8278e-08
2.14954e-08
1.61018e-08
1.09284e-08
9.91378e-09
1.35158e-10
1.9242e-10
7.2562e-09
9.49387e-09
1.26785e-08
1.37979e-08
1.46418e-08
1.52072e-08
1.5685e-08
1.60972e-08
1.6464e-08
1.67931e-08
1.70647e-08
1.72758e-08
1.74277e-08
1.75504e-08
1.76717e-08
1.78196e-08
1.79959e-08
1.81881e-08
1.83744e-08
1.85408e-08
1.86767e-08
1.87733e-08
1.88167e-08
1.87765e-08
1.8616e-08
1.83149e-08
1.78576e-08
1.73069e-08
1.6714e-08
1.61401e-08
1.56165e-08
1.51525e-08
1.47284e-08
1.43415e-08
1.39794e-08
1.36634e-08
1.3427e-08
1.33209e-08
1.33818e-08
1.36095e-08
1.39753e-08
1.4458e-08
1.50282e-08
1.55734e-08
1.60524e-08
1.65954e-08
1.73109e-08
1.81719e-08
1.92812e-08
2.08266e-08
2.29918e-08
2.56818e-08
2.93887e-08
3.62101e-08
4.6932e-08
4.80017e-08
8.31756e-09
2.52947e-10
1.07473e-10
5.56004e-11
6.43495e-09
9.20068e-09
1.26377e-08
1.38928e-08
1.4841e-08
1.54062e-08
1.59191e-08
1.62986e-08
1.6637e-08
1.69247e-08
1.7157e-08
1.73619e-08
1.75113e-08
1.76616e-08
1.77916e-08
1.79506e-08
1.80988e-08
1.82484e-08
1.83578e-08
1.84232e-08
1.84268e-08
1.83715e-08
1.82579e-08
1.80903e-08
1.78687e-08
1.76003e-08
1.72862e-08
1.694e-08
1.65656e-08
1.61786e-08
1.57748e-08
1.53458e-08
1.49107e-08
1.4479e-08
1.40519e-08
1.36529e-08
1.33154e-08
1.30998e-08
1.30572e-08
1.32394e-08
1.36667e-08
1.42888e-08
1.50018e-08
1.57395e-08
1.6445e-08
1.71698e-08
1.79876e-08
1.89567e-08
2.03472e-08
2.24413e-08
2.52298e-08
2.88282e-08
3.39453e-08
4.163e-08
4.88031e-08
4.78193e-08
2.35846e-08
1.22849e-09
1.25905e-10
6.24916e-11
1.80878e-08
2.98042e-09
3.79826e-09
3.34225e-09
3.18162e-09
2.95203e-09
2.94937e-09
2.85181e-09
2.88683e-09
2.87308e-09
2.90526e-09
2.9071e-09
2.88044e-09
2.84557e-09
2.81312e-09
2.85699e-09
2.94688e-09
3.13031e-09
3.35323e-09
3.63056e-09
3.91607e-09
4.19441e-09
4.47119e-09
4.74858e-09
5.02171e-09
5.29706e-09
5.52103e-09
5.70416e-09
5.78996e-09
5.85127e-09
5.89775e-09
5.92739e-09
5.89301e-09
5.80365e-09
5.66638e-09
5.48841e-09
5.20538e-09
4.82316e-09
4.4937e-09
4.30384e-09
4.29581e-09
4.40277e-09
4.54056e-09
4.61097e-09
4.63606e-09
4.7096e-09
4.88299e-09
5.07148e-09
5.33326e-09
5.92482e-09
7.33577e-09
1.0137e-08
1.41146e-08
1.78624e-08
2.01881e-08
1.78803e-08
8.3813e-09
7.10335e-09
1.78231e-10
2.03304e-10
9.52343e-09
-1.59602e-09
-1.06505e-09
-1.1878e-09
-1.10153e-09
-1.07283e-09
-8.65192e-10
-7.30522e-10
-4.72311e-10
-2.45859e-10
3.38899e-11
2.52704e-10
3.73065e-10
4.37865e-10
5.02384e-10
7.33266e-10
1.06239e-09
1.50489e-09
1.86846e-09
2.06812e-09
2.0484e-09
1.9443e-09
1.82156e-09
1.70842e-09
1.5934e-09
1.47802e-09
1.36233e-09
1.31116e-09
1.25413e-09
1.20945e-09
1.20459e-09
1.26746e-09
1.41596e-09
1.63875e-09
1.73523e-09
1.58352e-09
1.32529e-09
1.13499e-09
1.03847e-09
1.0596e-09
1.20375e-09
1.45857e-09
1.81029e-09
2.26509e-09
2.82425e-09
3.53112e-09
4.408e-09
5.35159e-09
6.23317e-09
7.00194e-09
7.56684e-09
8.26857e-09
9.38729e-09
1.10286e-08
1.44986e-08
8.49608e-09
5.5637e-09
9.03691e-09
8.62934e-10
2.45919e-10
4.81367e-09
-3.22996e-09
-2.47514e-09
-2.23071e-09
-1.91627e-09
-1.65095e-09
-1.32297e-09
-1.07838e-09
-8.41066e-10
-7.1523e-10
-6.32955e-10
-5.86295e-10
-5.84505e-10
-5.57314e-10
-4.92002e-10
-3.20521e-10
-5.86964e-11
3.10631e-10
7.74263e-10
1.35256e-09
2.0779e-09
2.8463e-09
3.58919e-09
4.26629e-09
4.80191e-09
5.08559e-09
5.01066e-09
4.59253e-09
3.95411e-09
3.26292e-09
2.64799e-09
2.05824e-09
1.47797e-09
9.85094e-10
6.88766e-10
6.16806e-10
6.36929e-10
6.98144e-10
8.03346e-10
9.87464e-10
1.27195e-09
1.67278e-09
2.19547e-09
2.86067e-09
3.70452e-09
4.80738e-09
6.26563e-09
8.08929e-09
1.02223e-08
1.25472e-08
1.4824e-08
1.67656e-08
1.7241e-08
1.92662e-08
1.2637e-08
9.10296e-09
5.90069e-09
1.06172e-08
2.96651e-09
2.0168e-10
3.30629e-09
-3.67325e-09
-2.69504e-09
-2.2175e-09
-1.87345e-09
-1.5774e-09
-1.37327e-09
-1.18463e-09
-1.00477e-09
-7.97163e-10
-5.61479e-10
-2.72332e-10
8.17214e-11
6.06817e-10
1.46318e-09
2.9101e-09
5.21282e-09
8.66069e-09
1.34506e-08
1.95129e-08
2.62948e-08
3.28919e-08
3.89128e-08
4.39882e-08
4.76197e-08
4.94316e-08
4.90744e-08
4.66435e-08
4.24292e-08
3.70575e-08
3.11492e-08
2.51725e-08
1.92266e-08
1.35093e-08
8.79888e-09
5.58192e-09
3.60748e-09
2.51516e-09
2.02608e-09
1.81507e-09
1.82675e-09
2.00559e-09
2.34561e-09
2.90041e-09
3.6736e-09
4.73111e-09
6.0267e-09
6.88226e-09
7.10474e-09
8.23649e-09
1.06288e-08
1.2573e-08
1.50223e-08
1.83907e-08
2.43937e-08
3.33719e-08
2.49181e-08
1.92285e-08
9.07899e-10
2.17276e-10
7.04023e-09
-2.47293e-09
-1.67443e-09
-1.41291e-09
-1.2716e-09
-1.13387e-09
-9.80061e-10
-7.60539e-10
-4.22777e-10
1.38268e-10
1.0387e-09
2.42649e-09
4.44831e-09
7.23493e-09
1.10686e-08
1.63655e-08
2.35522e-08
3.28528e-08
4.4084e-08
5.67524e-08
7.01592e-08
8.32675e-08
9.52655e-08
1.05749e-07
1.14086e-07
1.19824e-07
1.22492e-07
1.22314e-07
1.19412e-07
1.1427e-07
1.0711e-07
9.78275e-08
8.70646e-08
7.51608e-08
6.29564e-08
5.11257e-08
4.08195e-08
3.18833e-08
2.4559e-08
1.83549e-08
1.36237e-08
1.0054e-08
7.29376e-09
5.37396e-09
4.1069e-09
3.56005e-09
3.87181e-09
5.0788e-09
6.94411e-09
8.9362e-09
1.16664e-08
1.46386e-08
1.64209e-08
2.22878e-08
3.35943e-08
3.26634e-08
1.97036e-08
1.20684e-08
5.56939e-11
1.89296e-10
2.08477e-08
-1.41159e-09
-1.11892e-09
-8.93824e-10
-6.22244e-10
-2.05799e-10
4.52243e-10
1.51872e-09
3.20412e-09
5.75065e-09
9.32035e-09
1.39871e-08
1.9737e-08
2.62465e-08
3.33758e-08
4.15289e-08
5.13078e-08
6.3125e-08
7.65981e-08
9.13412e-08
1.0656e-07
1.21472e-07
1.35199e-07
1.47523e-07
1.57956e-07
1.65726e-07
1.70596e-07
1.72808e-07
1.72781e-07
1.71051e-07
1.67648e-07
1.62033e-07
1.54717e-07
1.45932e-07
1.36341e-07
1.26358e-07
1.16308e-07
1.06032e-07
9.73774e-08
8.89083e-08
8.04265e-08
7.11153e-08
5.8835e-08
4.50683e-08
3.12622e-08
1.88403e-08
1.00197e-08
7.26153e-09
7.91063e-09
9.51978e-09
1.20447e-08
1.51696e-08
1.89472e-08
2.55979e-08
3.06623e-08
2.73566e-08
1.63101e-08
3.72504e-09
-7.42114e-12
1.33126e-10
2.72121e-08
-6.67988e-10
1.75633e-10
1.45424e-09
3.25234e-09
5.896e-09
9.60287e-09
1.46358e-08
2.12617e-08
2.95161e-08
3.87897e-08
4.82448e-08
5.68792e-08
6.36458e-08
6.88517e-08
7.41714e-08
8.06237e-08
8.93375e-08
9.99917e-08
1.12571e-07
1.26615e-07
1.41376e-07
1.5524e-07
1.67637e-07
1.78203e-07
1.86534e-07
1.92346e-07
1.95751e-07
1.97087e-07
1.96739e-07
1.94848e-07
1.91437e-07
1.86785e-07
1.81149e-07
1.7459e-07
1.67442e-07
1.60246e-07
1.5311e-07
1.45924e-07
1.39609e-07
1.3459e-07
1.31125e-07
1.27674e-07
1.21553e-07
1.09014e-07
9.01635e-08
6.50455e-08
4.02145e-08
2.607e-08
1.97307e-08
1.70751e-08
1.63333e-08
1.82738e-08
2.23153e-08
2.43552e-08
2.22838e-08
1.28618e-08
2.66879e-10
-1.44015e-11
1.12563e-10
3.47585e-08
2.02065e-09
4.79001e-09
8.98468e-09
1.41959e-08
2.10238e-08
2.94465e-08
3.98178e-08
5.14478e-08
6.4209e-08
7.72486e-08
8.94315e-08
9.88476e-08
1.0475e-07
1.06863e-07
1.05874e-07
1.04234e-07
1.04495e-07
1.07169e-07
1.12341e-07
1.20857e-07
1.32546e-07
1.45182e-07
1.56942e-07
1.67238e-07
1.75936e-07
1.82717e-07
1.87256e-07
1.89533e-07
1.89758e-07
1.88106e-07
1.85201e-07
1.81853e-07
1.77692e-07
1.72092e-07
1.64164e-07
1.57084e-07
1.53234e-07
1.49705e-07
1.45755e-07
1.42457e-07
1.40234e-07
1.37909e-07
1.33237e-07
1.2398e-07
1.10572e-07
9.70117e-08
8.42982e-08
7.0736e-08
5.55004e-08
4.11471e-08
2.97402e-08
2.23459e-08
1.83401e-08
1.83264e-08
1.83766e-08
7.5097e-09
3.65402e-11
-1.587e-11
1.22386e-10
9.24787e-08
6.38479e-09
1.30092e-08
1.98599e-08
2.76522e-08
3.63902e-08
4.41922e-08
5.28e-08
6.15077e-08
6.96987e-08
7.70658e-08
8.07013e-08
8.35169e-08
9.05961e-08
1.01286e-07
1.04556e-07
1.05613e-07
1.03556e-07
9.69561e-08
8.87274e-08
8.46018e-08
8.6945e-08
9.2529e-08
9.27391e-08
8.878e-08
8.58616e-08
8.64201e-08
9.08782e-08
9.5807e-08
9.6875e-08
9.65337e-08
9.8574e-08
1.05393e-07
1.17528e-07
1.25783e-07
1.2391e-07
1.19016e-07
1.12975e-07
1.05042e-07
9.41755e-08
8.03789e-08
6.54153e-08
5.07628e-08
3.77215e-08
2.80258e-08
2.20449e-08
1.83413e-08
1.55043e-08
1.32002e-08
1.17894e-08
1.17325e-08
1.48361e-08
1.63322e-08
1.35158e-08
9.87167e-09
6.55815e-09
2.34333e-09
4.12891e-11
-6.93038e-12
1.16459e-10
1.26539e-07
1.53465e-09
1.31553e-08
1.86499e-08
2.30414e-08
2.69182e-08
2.85245e-08
2.43816e-08
1.52803e-08
1.16243e-08
1.1596e-08
1.0397e-08
9.56053e-09
1.23378e-08
2.29822e-08
3.83673e-08
4.03217e-08
3.75155e-08
2.77434e-08
1.68984e-08
1.71182e-08
3.96523e-08
7.93352e-08
8.71788e-08
9.11552e-08
9.49268e-08
9.97886e-08
1.05046e-07
1.08408e-07
1.08891e-07
1.07841e-07
1.05578e-07
1.03839e-07
1.03023e-07
1.00723e-07
9.63036e-08
8.88266e-08
7.82268e-08
6.84922e-08
6.19979e-08
5.78465e-08
5.463e-08
5.09653e-08
4.54421e-08
3.79265e-08
2.93156e-08
2.18753e-08
1.75282e-08
1.47562e-08
1.28853e-08
1.22157e-08
1.38709e-08
1.32511e-08
1.18533e-08
1.00725e-08
7.65224e-09
2.84258e-09
5.54086e-11
-2.15932e-12
1.23528e-10
1.54424e-07
-1.51117e-10
6.10561e-09
8.81961e-09
1.03093e-08
1.13673e-08
1.1625e-08
1.00091e-08
6.15156e-09
2.69511e-09
8.03752e-10
2.6938e-10
2.13661e-10
2.58276e-10
3.47613e-10
3.68531e-10
2.44473e-10
1.73019e-10
1.92737e-10
2.61542e-10
7.81191e-10
2.31512e-08
7.84345e-08
7.65831e-08
8.79058e-08
9.81921e-08
1.00266e-07
1.02202e-07
1.0736e-07
1.16317e-07
1.20026e-07
1.13411e-07
8.57857e-08
7.91772e-08
7.56219e-08
7.33469e-08
7.63885e-08
6.68046e-08
5.82931e-08
5.68104e-08
5.61597e-08
5.55266e-08
5.41301e-08
5.06363e-08
4.3364e-08
3.44497e-08
2.92235e-08
2.50419e-08
2.16805e-08
1.97532e-08
1.85666e-08
1.45152e-08
1.01165e-08
7.40559e-09
8.12324e-09
1.13277e-08
4.51982e-09
2.07302e-11
3.24338e-13
1.14635e-10
1.47224e-07
1.14756e-09
7.72098e-09
1.26409e-08
1.42043e-08
1.65464e-08
1.91077e-08
2.16267e-08
2.21276e-08
1.88115e-08
1.2759e-08
9.15205e-09
1.00647e-08
1.22197e-08
1.12194e-08
4.96649e-09
1.18536e-09
3.97994e-10
3.22779e-10
4.17477e-10
9.16447e-10
3.91519e-09
1.08097e-08
2.63817e-08
6.97325e-08
1.05417e-07
1.08906e-07
1.0913e-07
1.11021e-07
1.15765e-07
1.22403e-07
1.22837e-07
1.15284e-07
9.17158e-08
8.20874e-08
8.79587e-08
9.57439e-08
8.87177e-08
7.45923e-08
6.91225e-08
6.7668e-08
6.79094e-08
6.86522e-08
6.91743e-08
6.66383e-08
5.90541e-08
4.42453e-08
3.15448e-08
2.431e-08
1.95632e-08
1.68855e-08
1.25175e-08
6.26643e-09
3.97109e-09
5.57263e-09
1.09363e-08
4.9012e-09
1.99051e-11
2.60793e-12
1.15243e-10
1.69872e-07
2.0021e-09
5.36005e-09
9.36244e-09
1.22239e-08
1.56657e-08
1.92583e-08
2.36761e-08
2.87925e-08
3.37795e-08
3.9054e-08
4.37971e-08
4.63788e-08
4.60396e-08
4.36822e-08
3.88436e-08
2.76173e-08
1.45194e-08
6.03225e-09
2.02451e-09
1.12347e-09
1.21786e-09
1.98241e-09
7.7957e-09
6.16281e-08
1.18943e-07
1.26557e-07
1.31428e-07
1.35158e-07
1.37025e-07
1.37794e-07
1.37773e-07
1.36704e-07
1.33809e-07
1.2574e-07
1.13952e-07
1.0381e-07
9.74037e-08
9.26379e-08
8.90332e-08
8.64021e-08
8.51122e-08
8.45061e-08
8.38632e-08
8.092e-08
7.37716e-08
6.25889e-08
4.77027e-08
3.43374e-08
2.55557e-08
1.98925e-08
1.50274e-08
1.00723e-08
8.18829e-09
8.3733e-09
1.09349e-08
6.28119e-09
5.8607e-11
3.13999e-12
1.1768e-10
5.23789e-08
3.24603e-09
6.7106e-09
9.03581e-09
1.18806e-08
1.56093e-08
2.00282e-08
2.52759e-08
3.14215e-08
3.83178e-08
4.55805e-08
5.16381e-08
5.51331e-08
5.66155e-08
5.78875e-08
5.938e-08
5.85704e-08
5.13163e-08
2.85713e-08
8.59368e-09
4.18662e-09
4.88563e-09
9.95199e-09
4.84668e-08
1.44663e-07
1.63315e-07
1.68634e-07
1.72757e-07
1.75619e-07
1.77135e-07
1.77357e-07
1.76336e-07
1.69596e-07
1.54364e-07
1.38033e-07
1.22274e-07
1.09235e-07
1.14416e-07
1.25669e-07
1.18256e-07
1.10335e-07
1.06011e-07
1.02181e-07
9.70452e-08
8.96965e-08
8.00007e-08
6.89509e-08
5.71731e-08
4.41146e-08
3.20847e-08
2.24298e-08
1.50583e-08
1.03205e-08
7.07688e-09
6.34429e-09
1.03951e-08
1.13811e-08
6.52118e-11
1.76005e-12
1.1255e-10
4.07614e-08
3.57148e-09
4.91142e-09
7.51526e-09
1.12629e-08
1.59018e-08
2.14309e-08
2.78303e-08
3.58638e-08
4.50399e-08
5.35637e-08
5.97846e-08
6.35051e-08
6.57805e-08
6.87702e-08
7.27847e-08
7.60453e-08
7.65113e-08
7.1368e-08
5.90373e-08
6.12508e-08
8.20008e-08
1.26534e-07
1.51778e-07
1.53908e-07
1.52794e-07
1.58066e-07
1.67826e-07
1.70917e-07
1.63311e-07
1.34644e-07
1.42899e-07
1.74971e-07
1.72165e-07
1.39831e-07
9.36874e-08
8.77175e-08
1.12216e-07
1.24997e-07
1.19163e-07
1.02688e-07
6.82435e-08
6.48912e-08
5.70753e-08
5.03469e-08
5.08822e-08
5.20519e-08
3.99898e-08
2.87449e-08
2.01979e-08
1.3448e-08
7.30895e-09
3.11422e-09
3.75105e-09
8.78603e-09
1.48598e-08
1.1326e-08
4.30082e-11
-1.6623e-11
2.21993e-10
3.73645e-08
3.04592e-09
6.12141e-09
1.08121e-08
1.60068e-08
2.2562e-08
2.94939e-08
3.7392e-08
4.62309e-08
5.6288e-08
6.69002e-08
7.42746e-08
7.87266e-08
8.18609e-08
8.6517e-08
9.32343e-08
1.01824e-07
1.11047e-07
1.1683e-07
1.27136e-07
1.49338e-07
1.66276e-07
1.79907e-07
1.86613e-07
1.90051e-07
1.93487e-07
1.95098e-07
1.93789e-07
1.85914e-07
1.68146e-07
1.66002e-07
1.75219e-07
1.85644e-07
1.7669e-07
1.53581e-07
1.41596e-07
1.38288e-07