/*--------------------------------*- C++ -*----------------------------------*\
| =========                 |                                                 |
| \\      /  F ield         | OpenFOAM: The Open Source CFD Toolbox           |
|  \\    /   O peration     | Version:  2.1.1                                 |
|   \\  /    A nd           | Web:      www.OpenFOAM.org                      |
|    \\/     M anipulation  |                                                 |
\*---------------------------------------------------------------------------*/
FoamFile
{
    version     2.0;
    format      ascii;
    class       volScalarField;
    location    "0.00145";
    object      epsilon;
}
// * * * * * * * * * * * * * * * * * * * * * * * * * * * * * * * * * * * * * //

dimensions      [0 2 -3 0 0 0 0];

internalField   nonuniform List<scalar> 
36520
(
215.405
442.553
1187.48
1668.92
2130.3
2506.84
2867.19
3203.93
3525.38
3820.94
4080.24
4310.31
4511.92
4707.91
4893.64
5083.8
5257.7
5395.28
5456.65
5412.26
5241.21
4937.1
4507.74
3984.85
3430.06
2948.78
2563.04
2267.78
2038.4
1849.36
1678.17
1513.15
1345.98
1185.9
1042.51
919.06
817.819
740.945
690.798
672.049
690.769
757.879
890.661
1109.49
1439.6
1911.69
2546.7
3322.01
4133.1
4886.33
6027.92
8918.69
14950.2
23271.9
27619.3
26625.7
21927.2
14003.6
2519.03
1247.45
63.2706
303.136
428.662
464.305
503.265
532.872
573.431
606.723
636.553
651.767
658.246
659.92
670.377
690.591
723.224
757.182
779.214
772.785
731.166
656.941
561.545
468.894
402.147
397.321
419.894
304.906
164.784
103.31
83.5196
72.9732
64.8782
58.1666
52.6859
48.2532
45.0812
43.47
43.2693
44.0526
46.786
53.4065
66.906
91.7681
134.603
204.297
315.649
495.982
794.144
1307.64
2238.84
3846.11
6614.83
11298.5
18663.2
28384.7
41057.6
77761.9
73402.8
54642.1
5042.42
537.796
23.5509
91.1929
110.89
104.616
103.421
102.187
106.464
109.003
112.164
111.949
111.986
114.116
123.069
141.031
171.447
216.48
281.708
377.069
522.697
746.887
1079.59
1540.2
2141.83
2899.2
3325.5
2325.23
935.906
250.308
74.0151
31.3427
17.9224
12.6757
10.2543
8.89817
8.21824
8.30753
9.31889
11.2694
14.3742
19.4847
28.1426
43.1208
69.3495
115.76
199.736
356.185
654.664
1233.62
2358.29
4497.81
8329.68
13687.3
19991.7
21936
18671.6
20473.8
20097.4
28368.6
5183.56
484.055
8.96762
28.8694
28.9979
25.2112
24.8441
25.9128
30.1522
36.7288
48.2194
67.2046
100.605
158.145
255.572
417.85
688.758
1136.68
1878.48
3093.8
5026.24
7903.79
11784
16333.4
20818.1
24616.3
25112.5
17802
8328.47
2787.79
1006.9
496.662
312.371
227.747
178.259
138.643
102.258
70.1221
50.1809
42.6942
43.3931
45.9437
49.1547
54.8882
67.2381
94.5708
150.889
257.096
462.086
870.131
1683.5
3195.5
5718.22
10377.2
13774.9
12594.4
9575.77
7904.52
6255.56
7790.76
3281.04
428.277
4.50251
13.2627
14.5065
18.1747
27.2797
44.4469
75.4075
131.164
232.637
417.024
743.634
1293.23
2157.13
3467.6
5467.35
8528.89
13308.8
20824.7
32284.3
48895.2
71100.2
97281.6
121674
134022
125784
91954.3
49811.5
20963.7
9623.71
5873.06
4395.2
3669.18
3223.19
2863.24
2501.84
2069.69
1705.71
1454.03
1367.89
1448.65
1455.43
1282.34
867.969
358.671
228.188
242.115
331.417
521.872
908.353
1630.35
2799.43
4641.2
5563.71
4589.57
3960.21
3531.05
3077.37
2877.52
1885.23
374.9
3.91017
24.9007
44.7225
82.846
150.889
280.032
515.508
951.733
1755.12
3188.49
5577.58
9147.42
13761.2
19209.4
25687.7
34023.4
45958.3
63845.3
89872.7
125336
171359
228037
290353
328917
317162
264426
178913
97200.3
54873
37978.3
30385.7
26273.1
23818
22467.5
21945.4
21276.9
20691.2
20043.8
19811.6
20615.6
20721.3
19838.8
17101
11881
8463.04
6547.83
5187.8
3530.18
2109.28
1399.69
1654.1
2187.05
2249.56
1999.36
2400.26
3146.46
2385.82
1744.76
1283.35
305.851
10.3449
128.772
275.249
543.002
979.083
1778.45
3158.23
5568.68
9738.8
16684.2
27054.5
40736.1
55137.5
67674.5
78897.1
89518.5
103647
128531
159977
195391
230168
264653
303508
341707
355676
335075
285172
219404
158651
119946
97130.2
81869.2
70495.9
62555.7
58770.1
57970.4
59534.6
62327
65086.4
68520.3
72030.6
73402.7
74469.8
66663.8
53024.9
41597.6
33453.5
26297.9
19390
13390.3
9294.37
6469.97
4686.35
3878.52
4156.09
5113.55
3017.92
1555.46
1021.94
262.809
51.6878
624.75
1467.86
3025.56
5143.65
8613.74
13378.5
20400.6
30464.1
46216.3
63623.4
79373.3
92210.6
104829
118895
132339
144699
157898
172576
184720
192987
199322
207295
221774
239703
247815
237480
217014
201312
188897
172892
151744
129042
109661
96203.1
88618.5
85236.4
84979.1
86524
89941.1
94957.9
99292.3
102717
104341
98279.2
83973.3
66793.1
50864.8
37525.2
27559.3
20369.9
15055.9
11220.9
9350.98
8985.12
9520.88
5337.53
1974.04
999.895
237.459
147.762
3205.39
9406.01
18142.3
25938
39472.8
48675.5
56188.3
62391.5
69167.1
77472.1
84589.7
86972.6
85070.5
84856.2
88113.1
90831.9
91697.3
92622.4
95777.4
100685
106018
111006
114326
117219
122473
127873
129629
129954
131991
136089
140444
138665
126621
111135
99505.8
92474.2
88542.7
85858
83604
81945.5
80617.1
79376.1
78479.6
76857.4
73012.7
66095.4
57047.5
47086.8
37190.2
27791
19749.5
13984.2
10936.3
9443.35
9058.17
6513.57
3003.27
1116.95
215.592
95.6331
2275.92
8135.12
13448.2
17032.8
20519.4
23207.4
25502.5
27640.7
29612.1
32287.7
36519.6
41071
42345.9
40431.1
38259.3
37439.7
38268.9
40315.1
43337.6
46701.2
50287.9
54427.1
58393.9
60850
62232.6
63351.3
64362.6
66732.6
70988.1
76657.1
82533.8
87325.6
90669.9
90481.8
83874.7
73685.9
64223.5
57235.2
52776.1
49962.7
48233.2
47336.2
46852.3
46207.5
44966.8
42491.4
38932.2
34452.8
29116.8
23185
17071.1
11737.7
8008.14
5681.81
4419.15
2757.05
1296.43
642.31
201.473
51.8935
1165.54
9893.72
18793.9
23601.6
28434.8
31442.6
32799.2
33539.6
35040.5
38842.5
45764.5
51908
50918.9
43750
37903.7
36028.4
36547
37591.1
38540.1
40141.1
43435.2
48070
52825.6
57453.8
61276.3
63999.6
67221.3
70457.6
74157.7
79052.5
85138.9
92147.7
99504
105188
104316
95449.1
84177.5
74894.7
69017
66432.9
65596.9
65727.7
65946.8
65637.6
64332.6
61794
57761.7
51637.9
43423.6
34186.2
25033.7
16275
10442.1
7169.81
6301.67
4324.35
1926.26
995.869
235.03
77.6853
1569.43
4143.09
7560.97
11160.4
17939.1
23411
29885.9
37700
46868.6
56268
64015.5
64870.8
56695.6
46936
41379.3
39507.6
40270.1
42395.6
44298.1
45689.7
46201.1
47740.3
51999.1
58392.5
67701.4
79123.8
84371.7
86140.3
93339.9
102886
112280
121099
128007
129125
121192
107720
95598.4
86684
83164
83653.8
85064.6
87552.6
89556.6
89773.4
88212.7
84553.3
78242.7
68481.6
55573.4
41223.3
26202.4
13719.5
7442.6
5458.02
7580.17
7674.19
2987.39
1401.35
280.179
87.1361
1725.15
3702.2
5961.18
8119.6
12569
17345.6
23450.6
31507.2
41927
54655.9
66351.5
69407.9
63011.7
53098.1
45175.1
40523.7
38312.7
37370.5
36816.2
36540.2
35766.3
34631.7
36151.3
40860.5
49694.9
64471.1
84283.1
98142.3
105148
112554
119706
126544
132150
133584
126446
112458
99004
88929.8
84362.2
84955.2
87256.9
89983.7
92126.3
93172.5
93358.1
92636.5
87895.2
71121.5
47800.9
28450.1
14815.8
7365.36
5490.62
5750.76
8070.59
8094.35
3098.41
1463.98
289.459
64.6667
1860.66
13408
23754.3
21389.3
22528.4
24689.3
28128.4
32060.7
36308.5
40572.3
44171.3
44954
42668.8
40840.8
41057
42186.8
42245.9
40600.6
38480.4
37267
35708.6
32607.6
29894.5
30036.9
33840.5
42421.2
57604.1
76217.1
88448.5
95417.8
101227
106259
110917
115328
117148
110114
96344.2
83959.4
75689.4
71083.1
68738.1
67829.8
67084.2
65811.1
64271.9
62205
58835.6
52117.8
41173.2
28602.8
17003.3
9042.99
5288.21
4091.2
4461.93
3455.07
1986.76
1223.39
272.23
75.9119
1125.96
4005.75
11715.1
14008
16081.2
17307.9
18189.5
18761
18807.6
18001.9
16852.3
17909
22420.8
31462.6
43967.2
56103.5
65395.3
69728.6
70649.3
70865.6
69917
66389.2
59764.2
52356.4
45895.9
45206.4
52345.5
68465.6
87922.1
102298
110434
117134
123577
124983
115807
101901
90715.4
82737.2
77328.5
73287.4
70270.7
67877.8
64126.9
59248.5
53881.3
47213.6
40266.8
32936
25392.3
18464.3
12452.7
7725.28
4997.23
3809.4
3752.58
2730.88
1575.8
948.269
251.769
102.569
1820.98
5467.04
11787.9
18906.7
25215.7
31550.1
38370.8
45994.1
53912.6
62267.4
72820.2
91482.5
122882
164054
196746
199219
182796
169097
164883
163610
160475
153924
145296
131607
114982
108948
117036
135045
145606
146774
144881
140345
132232
120756
108817
99498
91425
83261.1
76893.9
72218.5
67370.8
61767.9
55599.3
49177.2
41744.2
34570.4
28564.2
23374.7
18615.1
14192.4
10173.9
7028.21
5161.85
4141.92
3886.35
2710.53
1479.97
873.719
248.177
60.6006
720.115
1669.21
3576.9
6553.05
11186.3
18034.4
29004.7
49023.5
75847.6
110436
149707
174910
174069
155005
138720
137906
151339
176761
208231
236913
256745
264670
262799
261819
268202
271595
262813
233145
201551
181802
165432
147913
131071
116340
103956
92225.7
81097.5
74108.2
71181.5
69919.9
67915.9
64908.6
60503.6
53769.6
44371
34944.7
27584.3
21787
16857.2
13023.4
10367.4
8228.92
6867.94
6108.21
6236.68
3956.78
1853.58
1069.05
281.954
10.0837
108.911
232.326
458.481
826.965
1464.46
2551.85
4441.39
7702.99
12796.2
20158.1
28756.5
35738.2
39170.9
38852.5
43245.7
54335.9
71293.1
95108.7
122343
148384
174151
197266
216132
229902
233696
223007
202194
177289
155537
135282
115541
97394.7
82365.8
70144.7
59617.6
51631.5
48027
47736.9
49087.1
49136.7
47532.3
45578.5
42905.7
38840.1
32051.7
26742.9
24341.2
22594.1
20374.9
19366
18123.6
16119.3
14031.7
10943
8923.83
4767.49
2495.59
1553.45
335.373
5.04442
16.3299
27.7747
48.0374
79.9866
130.859
211.398
341.304
555.843
897.544
1412.71
2094.6
2891.11
3730.97
4162.49
5558.78
7800.36
11147.7
15833.5
21928.6
29611.9
39137.7
50230.3
62364.5
74704.7
86024.5
91362.5
85731.1
72015.3
55251
40426
29270.6
21188.4
15448
11230.2
8010.83
6019.24
5244.91
5063.24
5237.53
5902.09
7969.8
9382.55
9854.42
8991.85
7239.54
6965.4
7313.58
7836.05
9351.78
11956.2
16527.4
20120.8
17061.3
13804.3
10757.7
5732.55
3583.07
2436.98
414.459
6.44946
9.85974
7.94991
8.29749
10.6398
14.4333
20.1259
28.0647
39.8724
57.7791
84.9856
123.024
172.017
237.123
285.98
403.695
592.834
900.037
1392.08
2154.68
3307.14
4990.71
7322.84
10361.6
14065.2
18236.5
21481.3
20006.5
15019.2
9603.4
5721.38
3322.6
1908.11
1089.94
608.862
330.062
214.401
214.013
234.453
271.446
339.772
459.258
616.892
841.225
1169.88
1689.77
2586.79
4098.53
6588.93
10366.6
16196
25837.2
34019.8
29928.6
21045.9
13404.2
7760.37
5350.66
3455.34
510.801
12.9909
28.1217
20.7055
15.194
13.3908
12.0244
12.0625
11.7203
11.6765
11.5863
12.1891
13.7685
16.8252
21.5432
27.2922
36.6689
50.876
74.1826
114.425
183.316
298.068
481.675
762.923
1170.49
1726.85
2463.31
2961.1
2584.49
1684.31
908.615
456.031
224.544
113.493
62.7515
41.929
37.3067
43.164
57.1758
80.9256
119.91
184.878
294.367
479.138
792.08
1328.37
2247.5
3829.3
6525.39
10986.5
17490.3
28017.1
42035.7
47558.4
44514.7
30542.1
17771.4
10972.4
7961.8
4424.52
594.746
27.9411
92.9046
88.0741
72.2269
66.6686
61.3398
60.873
57.7806
55.0438
49.8483
45.3594
42.4345
43.2714
47.2189
53.2008
58.0174
59.1751
56.4537
51.7404
48.1732
48.4617
55.9361
74.0587
106.862
156.234
224.717
250.477
195.23
111.233
54.4931
27.5829
16.9409
14.1505
15.2342
18.8703
25.1746
35.3025
51.5929
78.0487
121.864
195.959
323.447
544.966
935.927
1639.1
2908.99
5212.2
9281.87
15820.2
25280.2
37661.1
48583.4
53630.1
54900.3
43939.4
29054.7
18954.8
19992.4
7069.67
790.461
80.0425
303.088
380.424
378.784
392.029
397.273
413.105
417.71
420.175
410.973
400.181
392.781
399.324
418.305
443.995
463.245
464.982
445
405.428
352.885
291.704
228.519
167.904
119.552
88.8866
79.4367
72.3214
63.3588
55.4225
50.3976
47.4508
45.7364
44.8904
45.0673
46.7141
50.7286
58.6646
72.0633
92.5543
124.685
176.391
263.209
415.088
697.838
1260
2411.12
4757.02
9357.54
15804.7
23316.8
30235.9
35131.4
36143.3
37325.8
43783.8
49860
39633.8
45580.4
8859.75
982.143
332.909
599.091
1278.73
1667.16
2023.35
2303.81
2563.06
2797.99
3009.35
3194.93
3348.38
3477.63
3591.33
3701.93
3812.33
3917.49
4000.89
4044.19
4030.66
3952.68
3808.33
3601.72
3342.32
3043.74
2725.42
2409.47
2131.37
1894.82
1691.18
1512.42
1352.39
1209.08
1082.92
973.882
881.774
808.337
754.902
724.254
718.033
737.155
782.65
853.878
943.618
1037.43
1133.09
1256.99
1463.41
1691.2
1905.05
2160.81
2716.11
4184.29
7608.76
13524.8
20365.1
22435.3
19664.3
15390.3
5514.38
2263.49
267.277
548.483
1235.78
1660.07
2052.31
2330.56
2599.06
2813.55
3008.09
3175.75
3314.55
3440.58
3542.81
3643.97
3725.42
3797.45
3832.95
3833.05
3781.76
3683.13
3539.26
3359.46
3151.21
2922.96
2681.69
2435.72
2190.66
1953.53
1727.46
1516.14
1319.26
1141.66
990.562
864.303
760.188
677.186
615.348
576.763
563.77
579.945
628.789
711.571
823.919
950.547
1070.34
1172.39
1249.09
1299.18
1399.3
1785.08
3036.45
6333.34
13355.6
23528.5
31148.1
30227
22436.7
16514.7
6612.78
2788.48
60.213
247.277
328.123
328.723
328.785
320.276
320.062
309.094
303.84
290.77
281.363
271.333
268.775
266.764
268.917
263.378
252.714
234.046
211.687
188.581
166.778
148.123
130.741
114.908
100.867
88.7731
79.2965
72.3997
67.8648
64.5547
61.4852
58.9618
57.0305
55.5165
54.208
53.8857
56.397
64.2084
79.0625
105.071
148.227
217.213
325.362
492.158
748.548
1140.89
1734.17
2351.61
2969.34
3699.79
4768.24
6647.66
10201.3
16276
23679.4
31193.1
25141.3
37080.1
10160.8
1357.51
18.5634
63.0095
62.7766
49.7911
41.5784
34.5671
30.6965
25.9464
23.1352
19.4487
17.1426
15.2186
14.603
14.5911
15.178
15.0975
14.6513
13.8472
13.3614
13.6668
14.9724
17.0832
19.6545
22.5198
25.5876
29.1489
32.8625
35.2772
37.5036
39.4959
38.8104
36.0975
31.9335
28.0737
26.9578
29.9229
37.1789
48.9113
68.0558
99.6883
152.761
242.247
393.207
644.682
1058.86
1725.77
2744.93
4123.02
5742.15
7469.34
8665.48
9568.18
10905.4
13681.4
22055
22526.3
17995.7
17840
10057.7
1278.08
8.07861
16.6441
11.9063
7.48643
5.5029
4.1194
3.56825
3.12125
3.21658
3.56031
4.61159
6.49486
9.79825
15.2011
24.246
39.5748
66.0837
111.611
187.833
311.385
509.121
738.298
967.689
1190.62
1395.45
1534.94
1562.12
1458.99
1272.37
1063.7
899.513
737.372
552.058
364.17
223.614
165.256
157.719
178.72
227.43
306.188
431.069
627.94
939.43
1431.55
2199.97
3408.12
5304.69
8180.9
12376.9
18063.5
25027.4
33254.3
42844.2
52983.2
51117.9
34929.8
21725.4
14039.5
9055.5
1030.27
4.57171
5.03462
3.03923
2.33217
2.74647
3.94075
6.34427
10.6394
18.239
31.3807
54.213
93.74
162.919
283.157
495.216
873.608
1547.48
2710.05
4596.22
7403.93
11065.3
14958.8
18765.8
22212
24929.1
26576.3
26813.6
25643.4
23251.8
20130
16813.8
13673.3
10579.7
7400.85
4726.09
3023.05
2016.03
1456.63
1213.86
1079.94
1044.83
1088.84
1222.63
1569.38
2241.43
3382.45
5197.85
8013.79
12294.7
18896
31338.8
48875.5
63542.3
68905.3
58613.1
37854.3
16919.2
8837.66
5844.22
628.146
2.82738
4.86482
7.10828
12.51
21.8657
37.3902
62.9185
105.749
178.597
299.917
498.802
825.744
1367.99
2261.59
3713.92
6030.48
9685.98
15284.4
23369.9
34292.5
47891
62505.2
76868.5
90203.4
101367
109492
113728
114341
111283
105165
96629.8
86217
75218
63550.9
51959.5
41565.8
33248.1
26146.5
20615.2
15852
12237
9551.63
7447.48
5781.49
4129.25
3264.12
4051.23
6024.08
9286.02
14513.9
23437.6
36210.1
50686.9
60282.5
48625.6
28318.7
12047.3
5829.84
3924.54
461.934
3.08738
34.94
76.7924
153.134
276.331
482.06
817.133
1354.49
2201.56
3424.68
5010.89
6945.71
9360.37
12700.9
17410.5
23822.4
32677.8
45071.3
61528.8
82358.7
106740
132076
156152
178326
197055
210780
219292
223709
224652
222206
215841
204987
192046
178615
166557
156381
148739
140435
136462
132544
127324
120185
104537
83943.6
60860.5
36774.9
16467.4
8859.33
8854.76
11109.3
15465.2
21540.1
28760.1
33613.6
26755.5
18594.2
8870.72
4634.06
2964.94
422.054
14.9616
309.377
802.589
1720.9
3203.54
5613.99
9290.97
14603.3
22089.2
31921.7
43224.6
54521.5
61537
64418.8
67549.5
72750.3
80195.1
92246.3
109812
133537
162341
194732
225408
251980
272979
287586
296004
299963
301234
300068
295978
288046
276292
261682
246581
234424
227570
224977
226336
235484
250794
273888
300935
317777
304347
258519
183642
103297
57591.6
37700.1
28798.8
23817.5
22120.8
20810
17433.2
13999.1
7025.9
3330.72
1817.9
323.934
123.415
1931.26
5091.52
10399.8
18134.4
30041.4
47205.2
71472.3
99156.1
130925
166779
201923
226409
230887
216638
195277
173644
158719
152466
153619
163061
183080
207344
229000
246142
258495
265407
267094
265642
263239
260843
258263
254101
245894
232904
218088
205883
198136
192919
190892
190761
190687
189206
183593
172843
157435
141748
127331
113842
98041.7
78272.6
57782.5
40135.4
26115.3
16950.9
12685.4
6418.78
2146.46
1042.69
243.515
344.689
11070.8
30334.6
52719.3
78805.5
113090
142294
176411
208777
229205
237680
242404
249999
265633
286124
306285
307780
272158
218654
170578
140976
128948
128734
133543
139411
145076
149441
151520
151194
149059
146389
144148
142803
142015
140448
136071
128644
121126
115236
110317
105196
99637.6
94187.7
88715.8
81823.2
72805.5
62520.5
52094.1
41953.6
32492.9
24002
17377.5
12932.5
10156.1
7629.36
5713.2
3503.25
1495.3
609.678
189.464
164.181
2320.28
28450.1
44023.9
54194.2
67419.5
81332.2
95811.7
111676
125373
129741
126379
124582
128142
136692
142794
141307
134597
128726
129889
129229
117882
108992
106375
106481
106793
107132
107261
106396
104169
100712
96427.6
91788.6
87315.2
83166.7
78247.2
71927.5
65590
60085.4
55422.4
51524.5
48468.1
46528.4
45194.7
43425.2
40619.5
36264
30565.7
24299.1
18213.5
12879
8660.17
5910.03
4190.09
2952.5
2302.95
1521.83
796.109
473.914
181.928
87.4626
633.164
11015
17943
19876.1
20719.6
20769.3
21929.9
23987.6
24346.2
22142.6
19377.6
18519.4
19137
22850.9
27305.9
29618.5
32193.2
38171.2
50916.9
75168.7
100509
115489
121534
125605
129293
132771
135100
134169
128981
120579
110863
100863
90926.3
81795.5
74085.3
67432
60968.1
54895.9
50380.3
47681.4
46649.9
46662.1
46419.6
44938.9
42238.9
37438.9
30386.2
22469
15307.6
9595.4
5731.31
3501.15
2292.45
1617.43
1460.37
1151.45
771.604
526.946
186.605
81.1917
2255.93
16488
31460
30765.7
32145.7
33435.3
34972.9
37403
41179.8
45663.4
48651.8
48862.7
44387.7
37134.3
29752.7
25583.1
26438.5
33239.2
46650
63787.2
80095.6
95589.8
111072
126015
135069
135066
131021
127260
124657
122507
118674
111145
101188
91167
82221
74954.5
68713.8
62986.2
58778.5
56227.2
54919.7
54650.5
54394.2
53041.3
49631.1
42946.8
33940.3
24750.1
16589
10339.7
6256.1
3710.26
2323.65
1637.56
1551.63
1260
806.894
533.972
187.094
87.2647
2479.02
7946.89
15595.7
18690.7
23396.3
27549.8
33670.6
42366.5
52698.6
62786.9
69616
69385.9
62727
56031.5
51893.9
49483.6
49674.7
51936
55122.2
59815.4
68609.5
80953.2
92395.4
99546.5
102805
103964
104712
105699
106571
107552
109060
110887
110802
105698
96729.3
87553.2
79325
72296.3
67841.3
65712
65094.4
65105.4
64806.5
63133.9
58955.4
52039.5
42599.2
32002.9
22234.3
14372.9
8908.72
5694.17
4313.34
3645.83
3063.34
1997.29
1103.44
699.377
209.46
168.517
2931.98
6843.24
10274.6
12605.4
16957.7
21618.2
27715.7
35416.7
45173.1
56920.7
66479.8
68189.5
63279.6
58875.7
58086.2
58534.3
59356.9
62818.8
70522.2
84108.1
104148
128505
147625
153489
151558
149012
148462
149007
149418
149748
151045
153817
154696
149340
138197
126250
116423
109480
106173
105283
106138
107649
106711
99962.8
87337.5
71064.7
54080.3
38640.5
26365.1
17646.1
11706.9
7655.93
4891.78
3093.17
3250.78
2500.18
1634.06
1133.97
255.49
270.837
1670.52
2301.54
3924.91
6680.18
10689.5
15841.6
22337.3
31444.2
42759.1
52883.9
59536.2
59899.5
57044.7
56699
59788.6
65738.7
74045.8
87063.3
106060
132614
166156
196192
204265
199142
196085
195764
196158
195695
193589
190236
185703
179111
169356
154325
137674
125536
117420
112662
111195
112683
116533
116647
107452
88397.9
68219.9
50916.1
36386.9
24701.5
16314
10779.4
7070.1
4665.17
3034.06
2523.73
3758.5
3080.66
1988.1
1374.68
295.08
113.782
1311.69
2928.32
6016.68
10415.1
16858.7
24403.5
33513.6
44406.4
57555.8
71885.9
79996.6
81040.6
79817.5
83803.5
93245.3
107934
128343
153612
184713
219994
257092
276421
266688
250900
241149
234193
228607
223161
217200
210849
203057
191885
177580
162782
150873
140839
132099
126268
123884
122281
117574
108827
97574
82476
64960.1
48314.9
34055.6
22883.5
14696.8
9486.14
6745.41
5121.85
4033.06
4097.61
5400.5
4803.89
2643.49
1496.79
313.221
35.3747
461.537
1144.28
2387.74
4282.59
6880.18
9771.42
13312.5
17643.9
23374.3
30618.7
38192.6
45269.8
53003.2
64681.2
81346.9
104883
136449
172032
202301
223386
229740
216318
196116
182875
176419
173859
171206
167294
161787
154571
145964
137592
130353
124429
119349
115583
114024
114755
116115
115054
107819
95570.8
80982.9
63742.3
46384.6
33114.6
23346.2
16472.9
11738.9
9064.11
7833.66
7300.94
6826.56
6512.46
6266.53
4452.22
2732.57
1674.97
363.561
6.80438
36.8743
85.1788
181.866
352.876
628.556
1040.9
1654.32
2551.49
3847.84
5617.97
7815.9
10500
13921.7
18774.7
25789.3
35983.8
50321.7
68594.5
87795.3
98001.7
97201
87418.3
76682.6
70505.5
69092.5
69501.6
69737.8
69253.6
67845.7
65572.9
62559
59422.1
56472.8
53447.4
50382.6
48528.1
46818.2
45366.1
42155.3
39734.2
35339.3
30592.4
25133.2
19416.8
14334.3
11283.9
10319.9
11881.5
16195
23876.9
29113.9
29299.8
22164.8
14585.9
9838.23
6276.62
4705.4
2838.77
475.299
8.25804
10.1777
9.41862
13.072
21.2017
34.4279
55.1539
86.6746
135.145
208.046
315.8
470.78
698.67
1044.41
1593.47
2461.43
3822.7
5870.21
8721.46
12335.3
15229.3
14900.9
12316.7
9647.18
8246.91
8084.14
8435.57
8686.87
8765.22
8691.93
8434.53
7828.13
7174.88
6542.73
5839.83
5236.61
4883.99
4671.33
4700.15
4724.52
4945.81
4647.18
4082.84
3433.59
3198.48
3815.68
5934.91
10203.7
17347.6
29945.7
47067.8
58727.6
55497.1
43851.2
28750.9
17161.7
10358.3
7831.98
4578.04
646.283
12.0695
24.7513
16.6137
10.9381
8.83035
7.72495
7.98077
8.47403
9.70374
11.1869
13.6149
17.165
22.8225
31.8791
46.8215
71.7493
114.187
185.739
301.957
477.483
725.076
736.734
547.376
356.734
268.409
260.543
278.544
285.717
284.265
279.676
277.273
253.954
224.909
194.367
166.072
151.712
152.047
163.962
191.855
239.599
331.702
503.175
803.818
1389.94
2574.16
4916.59
9511.29
18134.9
33646.2
59519.6
83564.1
98788.5
100096
84747.6
56869.7
32279.3
18724.7
15621.3
7139.13
792.957
25.8975
86.4868
78.8014
60.7785
52.1452
44.7948
42.4222
39.3498
37.9496
34.7541
32.819
31.086
30.7003
30.7277
29.9891
27.6135
23.8539
19.9806
17.8237
18.9416
24.7484
27.4764
25.211
24.3763
27.2951
30.1628
30.3589
28.3291
24.9736
21.3778
18.2847
16.2162
15.3992
15.8148
17.5881
21.1963
27.9698
40.1025
62.3495
104.703
188.464
357.914
708.922
1449.59
3036.16
6443.99
13647.9
28139
55943.4
86258.6
116692
136670
143862
128705
88562.9
56583.2
37286.7
40577.5
10223.5
965.907
78.5225
298.804
377.762
365.04
367.191
361.706
368.65
369.781
374.18
368.758
366.044
361.979
363.839
366.189
363.933
349.205
320.424
280.76
237.865
202.448
180.025
170.613
163.505
157.698
152.451
143.353
129.492
113.704
98.3416
85.0513
74.6584
66.6959
60.5887
56.1618
53.1878
51.73
52.7925
58.0123
70.3891
96.247
149.375
262.13
512.112
1098.44
2532.02
6095.86
14789.9
33047.8
57098.4
80864.9
101987
111736
101778
89082.5
88487
103163
72947
85215.9
11391.3
1157.15
314.682
621.198
1354.65
1778.93
2160.54
2457.59
2737.87
2982.08
3207.79
3408.21
3577.68
3731.92
3865.08
3995.37
4111.31
4212.82
4273.47
4284.26
4228.62
4108.03
3927.85
3705.99
3464.93
3210.48
2941.88
2671.4
2404.58
2146.83
1901.07
1672.09
1460.64
1270.21
1105.51
965.779
848.795
753.563
678.572
624.384
594.377
593.476
629.402
715.48
875.538
1149.12
1628.06
2552.19
4633.08
7123.42
8675.39
8851.15
8242.63
8211.24
10815.3
18485.8
30014.4
37444.6
35134.3
29163.4
7129.51
2623.44
257.665
509.257
1119.52
1478.1
1806.42
2070.02
2304.42
2519.15
2707.67
2872.44
3006.62
3119.04
3219.01
3318.04
3420.68
3518.59
3596.04
3635.86
3623.67
3554.28
3428.17
3249.57
3027.55
2774.05
2505.61
2239.15
1999.42
1798.25
1627.15
1478.86
1347.69
1231.84
1131.4
1047.58
982.056
936.934
912.441
910.445
929.599
964.551
1009.8
1066.69
1147.47
1316.84
1641.36
2123.56
2770.52
3426.33
3876.83
4073.86
4338.5
5350.4
8250.18
14137.7
20390.6
21027.2
19752.5
16529.6
5361.65
2016.98
179.678
379.842
874.246
1172.17
1431.79
1645.94
1828.52
1998.67
2143.78
2269.98
2371.04
2455.89
2532.87
2611.57
2692.61
2770.96
2832.17
2863.43
2855.1
2805.39
2716.64
2592.24
2438.28
2262.85
2076.69
1891.51
1715
1559.35
1420.74
1292.52
1170.54
1061.98
969.361
892.945
833.619
790.998
761.803
746.828
757.873
818.937
962.559
1244
1732.89
2437.44
3254.89
4151.48
5228.42
6239.89
6916.03
7203.28
7629.35
9089.42
12698.5
18812.3
21223.9
18901.9
18166.9
16039.2
4684.49
1665.71
163.882
314.228
636.387
830.243
1008.03
1160.22
1288.02
1410.56
1513.6
1603.44
1675.2
1736.09
1792.34
1849.76
1907.49
1960.32
1997.43
2010.13
1993.81
1949.42
1879.81
1787.61
1675.41
1547.73
1409.91
1266.79
1121.24
982.471
861.163
760.218
683.841
634.601
616.601
638.034
677.439
720.057
780.587
897.503
1111.09
1450.4
1938.24
2586.69
3409.91
4359.54
5274.92
6134.66
7112.05
8184.36
8905.08
8990.24
9461.79
12505.4
18772.9
23398
19910
15473.8
14853.3
13007.1
3494.16
1287.53
157.445
249.323
432.673
536.444
647.245
747.494
834.687
921.928
995.752
1057.51
1102.26
1137.53
1168.71
1199.22
1227.29
1249.22
1257.93
1249.21
1222.72
1182.47
1135.15
1086.94
1055.29
1065.11
1132.17
1282.24
1461.43
1639.22
1837.76
2124.82
2466.29
2729.82
2850.67
2966.51
3180.44
3303.04
3357.45
3473.08
3715.67
4165.68
4884.21
5761.42
6505.21
7109.11
7718.83
8421.64
9474.82
10707.4
11771.5
12307.5
12982.1
15800.9
21760.1
24766.1
17798.1
11851.7
11123
8893.95
2591.26
955.674
145.679
161.443
217.232
270.22
326.302
384.785
429.417
478.794
514.012
541.596
557.103
567.938
576.864
586.518
591.557
589.349
575.805
553.948
529.192
508.898
501.151
513.408
554.876
639.718
790.568
1010.79
1276.87
1584.67
1950.85
2415.15
2942.91
3472.13
3909.48
4253.11
4535.35
4584.33
4572.41
4642.23
4961.05
5371.12
5895.19
6521.64
7020.51
7214.56
7272.1
7606.46
8275.19
8937.44
9441.95
9607.48
10675.2
14245.1
20332.3
23750
15234.3
9008.54
9336.51
6842.81
1772.67
713.379
127.073
95.2238
130.935
169.083
214.445
251.586
290.39
321.998
348.44
365.232
373.975
377.034
377.884
378.698
377.809
373.956
367.267
361.046
359.421
365.96
384.031
418.061
476.999
575.104
709.653
869.776
1063.14
1293.38
1569.01
1903.37
2280.27
2712.16
3154.45
3581.13
3913.02
3969.96
4004.76
4100.91
4448.25
4912.95
5440.08
5955.15
6368.04
6586.16
6644.63
6921.33
7324.88
7482.42
7690.06
8118.19
9082.71
11733.5
15389.5
18069
12264.2
7510.73
9109.46
7169.27
1599.16
622.198
126.053
153.96
233.343
298.317
371.914
435.957
506.062
565.845
617.358
652.397
671.016
678.68
682.602
683.412
677.754
663.072
636.669
603.954
572.586
548.806
538.769
548.018
583.733
655.818
736.287
824.124
930.952
1073.53
1274.25
1548.2
1878.82
2302.43
2829.33
3413.88
3991.87
4584.57
4966.84
5333.78
5798.27
6367.42
7026.8
7707.36
8166.67
8354.89
8463.91
8694.28
8466.52
7558.84
6719.26
6537.59
7457.02
9656.62
12463.4
12662.1
7021.43
7216.36
9281.03
7677.83
1831.01
688.107
93.8066
197.547
427.297
590.219
766.782
912.477
1064.11
1195.5
1313.83
1408.63
1474.8
1512.07
1525.85
1528.08
1508.97
1464.9
1377.35
1253.58
1111.84
975.82
866.932
799.396
788.248
847.502
990.099
1170.69
1405.38
1713.37
2137.62
2711.53
3491.05
4479.59
5749.25
7214.16
8410.91
9088.39
9830.67
10680.1
11673.8
12643.6
13461.9
14176.9
15003.2
16277.3
17607.5
18526.3
18925.2
18835.2
18332.9
17518.3
16854.6
18844.6
25093.2
24546.9
13395.1
15307.9
20516.3
19110.9
3879.12
1216.1
89.5043
234.031
588.808
854.32
1142.9
1384.32
1630.82
1851.33
2054.07
2234.54
2394.83
2535.57
2670.01
2808.74
2946.44
3070.22
3149.37
3156.34
3071.75
2889.38
2616.26
2282.65
2005.3
1815.08
1729.62
1781.87
1952.46
2252.75
2702.97
3331.87
4193.94
5266.12
6559.5
7873.85
9152.95
10126.8
10419.5
10766.5
11571.9
12684
13923
15174.2
16643.8
18386.8
20115.6
21737.3
23506.6
25098.9
25877.9
25124.1
22413.6
21723.6
27944.2
30822.7
19846.6
24217.4
31259.1
29345
5547.63
1579.57
102.428
293.703
749.885
1079.11
1425.23
1720.23
2003.33
2253.56
2482.18
2684.25
2866.92
3034.54
3202.22
3385.64
3588.48
3804.59
4007.03
4171.43
4274.44
4299.79
4241.13
4101.86
3892.18
3620.74
3278.67
2967.68
2752.25
2631.32
2587.65
2605.93
2682.16
2845.63
3046.64
3185.05
3268.04
3293.37
3298.22
3425.48
3853.85
4666.09
5870.95
7627.13
9693.73
11936.8
14117.5
16010.3
17622.7
18712.6
18803.6
17488.7
15913.2
19003.3
29687.1
37644.7
30145.8
33987.2
38729.5
33475.3
6420.31
1761.43
126.752
350.757
871.463
1247.25
1612.32
1915.22
2193.24
2434.83
2650.37
2838.53
3001.36
3150.49
3293.43
3449.13
3617.75
3798.22
3967
4109.99
4211.45
4259.61
4249.99
4185.82
4070.35
3917.23
3733.89
3532.37
3306.15
3040.6
2796.09
2581.91
2389.03
2221.92
2095.95
1991.44
1900.93
1808.58
1700.86
1617.48
1654.16
1911.4
2509.24
3511.62
4985.74
6742.16
8487.7
9737.02
10416.7
10265.8
9484.9
8870.89
9192.16
12189.2
21233.7
32474.7
33095.3
33753.9
34292.3
27154.6
5621.58
1720.89
139.901
350.087
906.704
1297.96
1664.57
1961.43
2224.54
2450.73
2647.13
2818.42
2961.61
3092.25
3211.25
3338.15
3464.7
3595.02
3704.37
3785.47
3825.85
3821.71
3773.53
3687.7
3567.52
3422.18
3255.06
3073.6
2873.53
2649.18
2417.24
2217.46
2046.95
1906.69
1811.86
1753.54
1726.72
1709.69
1675.38
1603.16
1525.44
1489.44
1600.28
1968.74
2665.52
3720.42
4941.08
5825.29
6159.52
5965.9
5417.84
4910.56
5358.91
8488.56
16596
28323.3
33287
33637.9
28831.8
22735.8
5674.91
1837.89
143.867
344.95
969.556
1389.02
1764.09
2060.03
2320.56
2539.81
2729.53
2894.64
3028.69
3150.51
3254.28
3362.25
3460.57
3556.52
3622.34
3654.69
3638.14
3573.67
3464.49
3321.22
3152.33
2969.45
2778.99
2588.04
2397.55
2211.6
2030.98
1856.99
1690.92
1546.91
1424.74
1322.91
1237.92
1165.71
1107.52
1073.44
1075.1
1119.75
1206.3
1345.66
1558.28
1859.69
2209.16
2479.96
2608.83
2592.47
2532.76
2713.44
3860.87
7599.82
15503.2
26089.8
33212.1
33233.7
26056.8
20886.3
6294.17
2114.41
204.491
468.944
1120.88
1539.13
1924.39
2214.62
2479.95
2696.62
2886.99
3052.6
3186.66
3309.82
3410.39
3513.92
3600.74
3682.31
3728.16
3738.57
3696.27
3604.23
3465.65
3290.94
3090.03
2873.54
2649.24
2425.44
2205.92
1997.32
1802.22
1623.56
1458.22
1309.34
1181.95
1075.39
988.724
922.319
879.568
866.204
886.117
947.197
1052.31
1196.86
1359.73
1504.09
1609.39
1670.73
1691.47
1699.93
1774.61
2148.78
3483.52
7142.79
14587.2
24804.7
32088.2
31781.9
24289
18989
6642.9
2464.42
241.573
516.402
1288.9
1762.59
2194.59
2531.76
2841.96
3112.45
3360.11
3577.26
3755.76
3916.64
4058.61
4201.44
4338.81
4466.08
4555.12
4588.33
4547.59
4430.42
4245.98
4013.05
3749.04
3473
3192.23
2916.51
2646.96
2386.47
2138.04
1907.66
1696.93
1511.68