/*--------------------------------*- C++ -*----------------------------------*\
| =========                 |                                                 |
| \\      /  F ield         | OpenFOAM: The Open Source CFD Toolbox           |
|  \\    /   O peration     | Version:  2.1.1                                 |
|   \\  /    A nd           | Web:      www.OpenFOAM.org                      |
|    \\/     M anipulation  |                                                 |
\*---------------------------------------------------------------------------*/
FoamFile
{
    version     2.0;
    format      ascii;
    class       volVectorField;
    location    "0.00145";
    object      fluctuation2;
}
// * * * * * * * * * * * * * * * * * * * * * * * * * * * * * * * * * * * * * //

dimensions      [0 1 -1 0 0 0 0];

internalField   nonuniform List<vector> 
36520
(
(0.408471 0.241336 0.309095)
(0.532184 0.348196 0.33628)
(0.736262 0.489812 0.466203)
(0.814633 0.555586 0.53065)
(0.882979 0.601247 0.57815)
(0.930228 0.635367 0.612705)
(0.973325 0.663379 0.641069)
(1.01058 0.687221 0.66564)
(1.04462 0.707833 0.687003)
(1.07411 0.725411 0.706008)
(1.09909 0.739675 0.721933)
(1.12057 0.751672 0.735413)
(1.13959 0.761379 0.746034)
(1.15831 0.770118 0.755177)
(1.17657 0.777564 0.762577)
(1.19548 0.784243 0.769625)
(1.21305 0.789394 0.775793)
(1.22728 0.792382 0.78092)
(1.23475 0.791966 0.783589)
(1.23307 0.786979 0.78271)
(1.22036 0.776436 0.777209)
(1.19548 0.759788 0.766032)
(1.15797 0.736452 0.748318)
(1.1095 0.706483 0.723039)
(1.05417 0.671409 0.690954)
(1.00281 0.637123 0.657232)
(0.959691 0.606105 0.624245)
(0.925563 0.579705 0.5941)
(0.897471 0.557752 0.567973)
(0.872031 0.538971 0.545656)
(0.846466 0.521411 0.525329)
(0.8193 0.503703 0.505434)
(0.789157 0.484697 0.484571)
(0.757373 0.46493 0.46312)
(0.726278 0.445683 0.442316)
(0.697079 0.427684 0.422897)
(0.67101 0.411796 0.40563)
(0.649663 0.399068 0.391519)
(0.634844 0.390758 0.381587)
(0.629082 0.388512 0.377071)
(0.634851 0.393952 0.378983)
(0.65475 0.408962 0.388361)
(0.690868 0.435226 0.406061)
(0.743146 0.472927 0.432014)
(0.810229 0.52128 0.465401)
(0.890166 0.579306 0.504886)
(0.978193 0.645811 0.548147)
(1.06538 0.717294 0.591119)
(1.13994 0.786969 0.629313)
(1.19661 0.852122 0.663808)
(1.26465 0.940342 0.725043)
(1.4023 1.1101 0.857135)
(1.60989 1.35083 1.06502)
(1.83136 1.54284 1.29218)
(1.93833 1.55791 1.42334)
(1.93042 1.48485 1.46359)
(1.78581 1.36763 1.42123)
(1.50936 1.15409 1.27997)
(0.771908 0.650376 0.793774)
(0.705998 0.48265 0.547758)
(0.373715 0.215152 0.215677)
(0.440639 0.283208 0.264046)
(0.484577 0.320704 0.305249)
(0.483895 0.325846 0.312811)
(0.490041 0.330697 0.318838)
(0.49307 0.33391 0.323062)
(0.501618 0.339098 0.328677)
(0.507357 0.342474 0.332895)
(0.512286 0.34512 0.336105)
(0.512754 0.344847 0.336949)
(0.511187 0.34324 0.33622)
(0.508505 0.340924 0.334533)
(0.508754 0.340107 0.333919)
(0.511429 0.34064 0.334253)
(0.517035 0.342594 0.335922)
(0.522015 0.343747 0.337065)
(0.522762 0.342224 0.33586)
(0.514761 0.335588 0.33015)
(0.495903 0.322956 0.318988)
(0.465804 0.30421 0.302145)
(0.425713 0.280255 0.280326)
(0.381179 0.254599 0.256626)
(0.339887 0.231734 0.235193)
(0.319782 0.221524 0.225708)
(0.320143 0.221205 0.225406)
(0.294606 0.20094 0.204531)
(0.259503 0.172687 0.175569)
(0.239333 0.154991 0.157021)
(0.22981 0.146165 0.147392)
(0.222408 0.140034 0.14072)
(0.215036 0.134731 0.134959)
(0.207853 0.129988 0.12973)
(0.201415 0.12596 0.125123)
(0.196051 0.122699 0.121202)
(0.1924 0.120534 0.118328)
(0.191067 0.119848 0.11687)
(0.191969 0.120657 0.116772)
(0.194628 0.122782 0.117695)
(0.200422 0.127212 0.120396)
(0.211765 0.135612 0.126187)
(0.231228 0.14979 0.136474)
(0.260612 0.171116 0.152268)
(0.300466 0.200029 0.173902)
(0.349616 0.235898 0.200776)
(0.407553 0.278614 0.232825)
(0.47545 0.329402 0.270977)
(0.55466 0.390191 0.316655)
(0.648339 0.464171 0.37295)
(0.763237 0.556212 0.446179)
(0.899885 0.661234 0.538425)
(1.07173 0.785743 0.663222)
(1.29275 0.942963 0.835287)
(1.55566 1.12708 1.06474)
(1.8247 1.30063 1.3185)
(2.08606 1.45659 1.51463)
(2.6816 1.78646 1.73154)
(2.60545 1.65915 1.55826)
(2.25598 1.43104 1.32825)
(0.904937 0.623057 0.597304)
(0.707889 0.467483 0.495989)
(0.274869 0.150205 0.149021)
(0.256008 0.16479 0.153961)
(0.263777 0.175036 0.167416)
(0.247686 0.167082 0.16104)
(0.240414 0.162644 0.157431)
(0.233972 0.158648 0.15415)
(0.23389 0.158526 0.154233)
(0.232072 0.157313 0.153448)
(0.230955 0.156628 0.153039)
(0.226505 0.153957 0.150846)
(0.221921 0.151457 0.148591)
(0.218188 0.149828 0.147029)
(0.218934 0.151244 0.148333)
(0.224725 0.156131 0.152972)
(0.236312 0.164896 0.161528)
(0.252343 0.176749 0.173331)
(0.272618 0.191881 0.188541)
(0.297754 0.211057 0.207837)
(0.331134 0.236565 0.233404)
(0.376269 0.270366 0.267044)
(0.43401 0.312571 0.308952)
(0.501442 0.36097 0.356879)
(0.574526 0.412374 0.407742)
(0.650821 0.463271 0.458329)
(0.687501 0.484275 0.478134)
(0.584951 0.412689 0.405598)
(0.395029 0.281374 0.276727)
(0.228989 0.163323 0.163942)
(0.142008 0.0999128 0.102978)
(0.104609 0.0725216 0.0754716)
(0.0880639 0.0604503 0.0628484)
(0.0804762 0.0549741 0.0569187)
(0.0771309 0.0526108 0.0541756)
(0.0759611 0.0517979 0.0529835)
(0.0765495 0.052185 0.0529582)
(0.0792495 0.0540021 0.0542926)
(0.0843704 0.057491 0.0571836)
(0.0916942 0.062577 0.0615101)
(0.10151 0.0695311 0.0673976)
(0.115009 0.0792358 0.0755512)
(0.133534 0.0926966 0.0867813)
(0.158418 0.110931 0.101941)
(0.190853 0.134792 0.121829)
(0.231984 0.164995 0.147377)
(0.283801 0.202909 0.180254)
(0.350006 0.251444 0.222894)
(0.435581 0.314813 0.278692)
(0.547195 0.398628 0.352377)
(0.693139 0.50992 0.450231)
(0.884133 0.655049 0.580246)
(1.12865 0.834533 0.747883)
(1.38356 1.01139 0.926892)
(1.62732 1.17425 1.11527)
(1.689 1.19866 1.20884)
(1.5382 1.1017 1.20461)
(1.49958 1.12862 1.24681)
(1.44443 1.13268 1.17074)
(1.76191 1.18754 1.10883)
(0.989831 0.648715 0.59275)
(0.68531 0.453922 0.471878)
(0.203027 0.104296 0.105441)
(0.14984 0.0962357 0.0904627)
(0.140286 0.0935649 0.0898262)
(0.124672 0.0853704 0.0824408)
(0.1182 0.0818467 0.0793667)
(0.114348 0.0802273 0.0781171)
(0.116309 0.0826084 0.0807774)
(0.120051 0.0865689 0.0850323)
(0.128234 0.0940102 0.0927532)
(0.140733 0.105204 0.104145)
(0.161646 0.122872 0.121774)
(0.193127 0.148231 0.146868)
(0.237504 0.182511 0.180562)
(0.296434 0.226538 0.223738)
(0.373103 0.281934 0.278451)
(0.470485 0.350165 0.346734)
(0.593583 0.434319 0.432089)
(0.746963 0.537681 0.537332)
(0.933063 0.661985 0.663237)
(1.1467 0.803447 0.804794)
(1.37339 0.951671 0.951175)
(1.58708 1.0908 1.08564)
(1.75772 1.20369 1.19012)
(1.86929 1.27706 1.25477)
(1.85978 1.26726 1.23692)
(1.5882 1.09113 1.05504)
(1.14028 0.797687 0.767903)
(0.717333 0.506985 0.497556)
(0.465677 0.326873 0.33289)
(0.34252 0.23893 0.24947)
(0.279518 0.194537 0.205308)
(0.243595 0.169282 0.17911)
(0.218893 0.151898 0.160433)
(0.19585 0.135792 0.143019)
(0.171409 0.118869 0.125176)
(0.146752 0.101888 0.107921)
(0.129584 0.0901071 0.0963342)
(0.123359 0.0858501 0.0923151)
(0.125531 0.0873729 0.0940106)
(0.130303 0.0909311 0.0976354)
(0.137012 0.0962741 0.102736)
(0.147438 0.10487 0.110549)
(0.164031 0.118511 0.122756)
(0.189803 0.139097 0.141566)
(0.227314 0.168352 0.16925)
(0.27835 0.207797 0.206932)
(0.348012 0.261512 0.258074)
(0.444757 0.334875 0.327758)
(0.577218 0.434356 0.421279)
(0.745827 0.562849 0.540368)
(0.946422 0.720057 0.684561)
(1.23533 0.941113 0.886762)
(1.43855 1.08226 1.02018)
(1.41279 1.05382 1.01958)
(1.24785 0.939112 0.932674)
(1.11507 0.82316 0.864958)
(1.03861 0.737593 0.784301)
(1.17469 0.762171 0.768256)
(0.884171 0.568876 0.524738)
(0.66187 0.439404 0.442894)
(0.161867 0.0808806 0.0849148)
(0.0922596 0.0610082 0.0588376)
(0.0838338 0.0598586 0.0584073)
(0.0820081 0.0621224 0.0611565)
(0.092166 0.0715392 0.0709762)
(0.110609 0.086829 0.0866741)
(0.138318 0.108658 0.10892)
(0.176819 0.138265 0.138943)
(0.229631 0.178405 0.179568)
(0.300736 0.232306 0.233853)
(0.393598 0.302793 0.304183)
(0.509421 0.390699 0.390815)
(0.646589 0.494208 0.491517)
(0.80614 0.612225 0.606477)
(0.994421 0.746984 0.74005)
(1.21735 0.900307 0.896818)
(1.48673 1.07841 1.08588)
(1.81438 1.29025 1.31411)
(2.20285 1.53815 1.57992)
(2.6458 1.81706 1.87348)
(3.1222 2.1094 2.17386)
(3.58833 2.38641 2.44865)
(3.95926 2.60364 2.64396)
(4.11137 2.69153 2.69273)
(3.96834 2.60136 2.55799)
(3.46261 2.30026 2.21532)
(2.6774 1.82561 1.72951)
(1.88235 1.30971 1.25292)
(1.37379 0.950912 0.945704)
(1.11919 0.768129 0.788564)
(0.989669 0.677481 0.706802)
(0.916754 0.627008 0.657924)
(0.867615 0.592661 0.620839)
(0.82256 0.561078 0.583848)
(0.770529 0.525043 0.54203)
(0.702238 0.478059 0.491308)
(0.637601 0.43314 0.446062)
(0.586635 0.397262 0.41219)
(0.562063 0.379508 0.397197)
(0.565402 0.381212 0.401022)
(0.554315 0.373454 0.394568)
(0.511539 0.344634 0.365816)
(0.419863 0.283467 0.303081)
(0.288438 0.195431 0.215289)
(0.248828 0.170902 0.193757)
(0.259554 0.182423 0.207742)
(0.294812 0.211631 0.239552)
(0.352077 0.257028 0.28746)
(0.437294 0.323181 0.355654)
(0.552473 0.411439 0.445028)
(0.692331 0.516474 0.550358)
(0.866204 0.653567 0.683461)
(0.963335 0.734554 0.766165)
(0.929909 0.729825 0.742833)
(0.889797 0.701559 0.715022)
(0.827104 0.652096 0.688926)
(0.761504 0.592326 0.626319)
(0.817154 0.563023 0.588774)
(0.726272 0.478651 0.477512)
(0.635569 0.42762 0.412407)
(0.150996 0.0783256 0.086469)
(0.0905917 0.0679144 0.0679653)
(0.111 0.088325 0.087723)
(0.144619 0.11656 0.116015)
(0.190623 0.152215 0.152571)
(0.254004 0.200437 0.202118)
(0.336921 0.262657 0.26592)
(0.447499 0.344044 0.349275)
(0.593527 0.450444 0.457777)
(0.780915 0.58664 0.595475)
(1.00771 0.753504 0.760473)
(1.26024 0.942473 0.941034)
(1.51393 1.13602 1.11868)
(1.75876 1.32344 1.28742)
(2.00497 1.50525 1.4584)
(2.27293 1.69045 1.64955)
(2.59315 1.89587 1.88567)
(2.98955 2.13882 2.17968)
(3.46108 2.42728 2.5253)
(3.98989 2.75054 2.90121)
(4.56854 3.09333 3.28565)
(5.18703 3.43886 3.65642)
(5.79136 3.76041 3.96588)
(6.15234 3.93187 4.08421)
(6.08191 3.86019 3.93354)
(5.65486 3.62123 3.5832)
(4.83727 3.1938 3.04562)
(3.82157 2.60963 2.44732)
(3.07591 2.10773 2.03049)
(2.66541 1.80891 1.80624)
(2.4342 1.64737 1.68387)
(2.29155 1.55277 1.60911)
(2.20241 1.49426 1.55632)
(2.15267 1.46107 1.51516)
(2.1295 1.44568 1.48106)
(2.09233 1.42191 1.43486)
(2.05239 1.39476 1.39117)
(2.0059 1.35984 1.34814)
(1.97359 1.33213 1.31846)
(1.97855 1.32993 1.3176)
(1.95042 1.30743 1.29843)
(1.87734 1.25631 1.25512)
(1.7155 1.15097 1.156)
(1.42222 0.961666 0.972124)
(1.20056 0.816227 0.834495)
(1.0552 0.718687 0.748933)
(0.937401 0.637595 0.683563)
(0.778941 0.529767 0.589227)
(0.618463 0.422779 0.492422)
(0.523821 0.362826 0.442714)
(0.561762 0.393328 0.484157)
(0.63673 0.453698 0.548923)
(0.67035 0.482234 0.581487)
(0.695654 0.480596 0.570426)
(0.78039 0.53936 0.597627)
(0.854316 0.613811 0.63624)
(0.692708 0.582544 0.582246)
(0.602846 0.497329 0.508749)
(0.59473 0.455824 0.445715)
(0.585982 0.408997 0.387423)
(0.1965 0.118656 0.13009)
(0.181235 0.14035 0.144231)
(0.253018 0.200925 0.202052)
(0.344886 0.273644 0.275352)
(0.454951 0.356181 0.358495)
(0.600394 0.462813 0.467303)
(0.780556 0.593254 0.599168)
(1.00939 0.754318 0.763182)
(1.29696 0.954103 0.96633)
(1.64748 1.19703 1.21233)
(2.03726 1.46948 1.48583)
(2.43326 1.75429 1.7588)
(2.7733 2.01001 1.98459)
(3.03385 2.2183 2.14545)
(3.25027 2.39659 2.27729)
(3.443 2.55375 2.40959)
(3.67906 2.72347 2.59532)
(4.03859 2.93825 2.87611)
(4.44406 3.16098 3.18791)
(4.85421 3.39015 3.49961)
(5.23727 3.59996 3.77349)
(5.61263 3.7897 4.01074)
(6.01811 3.98307 4.22345)
(6.40576 4.14503 4.36757)
(6.58249 4.17993 4.35787)
(6.46797 4.09298 4.19193)
(6.07196 3.92205 3.89376)
(5.47426 3.65984 3.51037)
(4.8545 3.30058 3.13598)
(4.3881 2.96968 2.86577)
(4.04755 2.72767 2.68269)
(3.7727 2.54653 2.5481)
(3.54179 2.40094 2.43778)
(3.36698 2.29302 2.35117)
(3.27685 2.24098 2.30133)
(3.25323 2.2358 2.27253)
(3.28021 2.26445 2.26091)
(3.32915 2.30208 2.25879)
(3.37233 2.33121 2.25583)
(3.42076 2.35699 2.25876)
(3.46105 2.37245 2.25655)
(3.45378 2.35186 2.22949)
(3.42821 2.31522 2.20402)
(3.21757 2.17785 2.07744)
(2.8757 1.96975 1.87453)
(2.55562 1.77017 1.68603)
(2.29719 1.59743 1.53695)
(2.03751 1.41737 1.39444)
(1.74479 1.22266 1.2316)
(1.4461 1.02777 1.05789)
(1.20964 0.8699 0.9206)
(1.03355 0.738937 0.807843)
(0.925911 0.647705 0.724278)
(0.901316 0.604512 0.686472)
(0.982315 0.642603 0.687859)
(1.10588 0.715188 0.702498)
(0.833636 0.622955 0.601863)
(0.519655 0.495732 0.480199)
(0.521181 0.464225 0.423446)
(0.551915 0.395249 0.370358)
(0.311151 0.223898 0.237122)
(0.367906 0.286658 0.290981)
(0.532601 0.419337 0.409374)
(0.736059 0.574463 0.562398)
(0.942057 0.732618 0.708535)
(1.19648 0.921301 0.889558)
(1.46164 1.11845 1.07804)
(1.76888 1.33808 1.29189)
(2.11879 1.57543 1.53014)
(2.5567 1.86047 1.82087)
(2.95321 2.11203 2.08974)
(3.25619 2.31708 2.31159)
(3.46874 2.48438 2.49056)
(3.66048 2.64857 2.64337)
(3.86852 2.81907 2.77385)
(4.06059 2.97864 2.88751)
(4.22994 3.12741 3.00762)
(4.41106 3.26533 3.14506)
(4.62425 3.38697 3.29008)
(4.82565 3.47413 3.40858)
(4.99327 3.5339 3.4982)
(5.14193 3.57675 3.58359)
(5.30571 3.62162 3.68698)
(5.5318 3.69121 3.81431)
(5.77952 3.76745 3.9219)
(5.8971 3.8027 3.95177)
(5.79761 3.78236 3.88817)
(5.57799 3.72414 3.75385)
(5.41595 3.65854 3.6099)
(5.30217 3.56996 3.47116)
(5.14214 3.44201 3.32177)
(4.89509 3.27289 3.15498)
(4.58507 3.08018 2.99121)
(4.27693 2.89887 2.85657)
(4.03502 2.76057 2.75883)
(3.88593 2.68144 2.69411)
(3.81555 2.65281 2.64882)
(3.80512 2.65917 2.62077)
(3.82456 2.68077 2.60844)
(3.8709 2.7171 2.61363)
(3.93695 2.76198 2.63024)
(3.98622 2.79087 2.63016)
(4.01476 2.79821 2.61365)
(4.0021 2.77852 2.5696)
(3.86 2.68435 2.44763)
(3.57218 2.50365 2.24351)
(3.20708 2.27572 2.001)
(2.82454 2.03026 1.76077)
(2.44671 1.78795 1.53616)
(2.10241 1.57145 1.34299)
(1.80549 1.38315 1.18272)
(1.55121 1.20596 1.05684)
(1.35258 1.04986 0.961019)
(1.26589 0.949854 0.916699)
(1.31059 0.903313 0.902096)
(1.42085 0.884121 0.879036)
(1.13251 0.709912 0.684909)
(0.710161 0.52612 0.489597)
(0.57183 0.444869 0.400036)
(0.542613 0.37612 0.353051)
(0.453256 0.336441 0.301159)
(0.759905 0.494404 0.504115)
(1.17387 0.817076 0.813273)
(1.5664 1.1046 1.09053)
(1.84527 1.30254 1.29556)
(2.23396 1.58431 1.56016)
(2.46107 1.74983 1.71465)
(2.63983 1.88148 1.83024)
(2.78978 1.99064 1.92349)
(2.95217 2.09796 2.01504)
(3.13905 2.20669 2.11647)
(3.29807 2.29702 2.2195)
(3.36317 2.3473 2.30968)
(3.33453 2.37159 2.38902)
(3.32191 2.42508 2.47701)
(3.38088 2.5099 2.56102)
(3.45546 2.57914 2.60775)
(3.5249 2.62578 2.6171)
(3.61658 2.67473 2.6136)
(3.75299 2.74499 2.63046)
(3.9129 2.82314 2.67722)
(4.07297 2.88898 2.74677)
(4.21734 2.93054 2.83732)
(4.31139 2.94412 2.9405)
(4.36429 2.95604 3.04682)
(4.42587 3.00099 3.15108)
(4.48277 3.05807 3.22085)
(4.50135 3.08977 3.2278)
(4.52243 3.1047 3.18791)
(4.57697 3.12613 3.141)
(4.65634 3.15701 3.10412)
(4.73162 3.18417 3.06988)
(4.71474 3.16234 3.00869)
(4.54492 3.05849 2.90323)
(4.30179 2.91979 2.79611)
(4.09077 2.80683 2.72104)
(3.94368 2.73368 2.67077)
(3.85367 2.69063 2.63404)
(3.79736 2.66088 2.59665)
(3.75483 2.6371 2.56155)
(3.72315 2.61985 2.53292)
(3.69642 2.6048 2.50299)
(3.67189 2.58779 2.4654)
(3.65024 2.5693 2.42034)
(3.60574 2.53785 2.35242)
(3.50762 2.47706 2.24463)
(3.33453 2.37447 2.09198)
(3.09551 2.23575 1.90863)
(2.80769 2.07091 1.7089)
(2.48524 1.88791 1.50248)
(2.13691 1.68866 1.29528)
(1.79003 1.48418 1.10981)
(1.50438 1.29888 0.971747)
(1.34385 1.17101 0.898038)
(1.30403 1.07163 0.871144)
(1.352 0.962467 0.866404)
(1.21844 0.781584 0.744338)
(0.904061 0.568541 0.546923)
(0.660813 0.42608 0.40816)
(0.537491 0.350308 0.340345)
(0.386397 0.291176 0.268769)
(0.65726 0.404731 0.434981)
(1.08867 0.753634 0.763867)
(1.34448 0.960335 0.947138)
(1.51857 1.09587 1.09352)
(1.66703 1.21162 1.19973)
(1.7771 1.30139 1.2782)
(1.87297 1.37732 1.33869)
(1.96529 1.44664 1.3909)
(2.05947 1.50874 1.43639)
(2.1844 1.57656 1.49016)
(2.35128 1.66445 1.5685)
(2.50793 1.75773 1.65971)
(2.55795 1.81275 1.72996)
(2.50575 1.82854 1.78962)
(2.44461 1.83905 1.84821)
(2.44556 1.86457 1.8921)
(2.52607 1.91149 1.91927)
(2.65963 1.97509 1.9426)
(2.81591 2.0529 1.98285)
(2.96626 2.12865 2.04249)
(3.10954 2.1929 2.11849)
(3.25411 2.24804 2.21422)
(3.37401 2.28885 2.32431)
(3.43558 2.31097 2.43187)
(3.45847 2.33003 2.52317)
(3.47597 2.35862 2.58493)
(3.50562 2.39321 2.60846)
(3.57565 2.4469 2.6157)
(3.68415 2.52089 2.62919)
(3.81079 2.6049 2.65837)
(3.93324 2.68392 2.68999)
(4.03295 2.74481 2.70563)
(4.10156 2.78256 2.70019)
(4.09192 2.77667 2.66664)
(3.94783 2.70249 2.59251)
(3.71922 2.58737 2.49752)
(3.49635 2.47247 2.4083)
(3.32759 2.37999 2.33379)
(3.22245 2.31682 2.27694)
(3.16217 2.27507 2.23632)
(3.13267 2.24701 2.20675)
(3.12662 2.22873 2.18362)
(3.12971 2.21319 2.16196)
(3.12095 2.19211 2.13044)
(3.08217 2.16081 2.07937)
(2.99433 2.10828 1.9946)
(2.85633 2.03335 1.87827)
(2.66888 1.93512 1.73333)
(2.42839 1.81097 1.55831)
(2.13592 1.65856 1.35956)
(1.80098 1.47545 1.15159)
(1.47294 1.27991 0.957357)
(1.21952 1.11034 0.805443)
(1.06894 0.968124 0.712183)
(1.02505 0.818976 0.665611)
(0.893927 0.631152 0.566903)
(0.694891 0.469331 0.443379)
(0.591837 0.391953 0.370674)
(0.525762 0.342671 0.331998)
(0.31201 0.228858 0.23224)
(0.504112 0.300482 0.358052)
(1.17278 0.830219 0.844781)
(1.55436 1.09674 1.07223)
(1.72869 1.23516 1.18852)
(1.88673 1.35882 1.28838)
(1.98283 1.44668 1.35426)
(2.03774 1.50875 1.39814)
(2.08465 1.55989 1.44139)
(2.1654 1.61659 1.49873)
(2.31961 1.69601 1.57773)
(2.54859 1.80766 1.6833)
(2.74476 1.90424 1.78006)
(2.76624 1.92534 1.82155)
(2.60896 1.88383 1.8361)
(2.45189 1.85294 1.86683)
(2.41398 1.86065 1.91086)
(2.47158 1.89303 1.95375)
(2.5628 1.93294 1.98041)
(2.65736 1.97901 1.99012)
(2.76471 2.03677 2.00703)
(2.90813 2.10342 2.06313)
(3.07528 2.16719 2.15301)
(3.23514 2.21161 2.24733)
(3.3779 2.24614 2.34162)
(3.48339 2.28265 2.43311)
(3.54657 2.32408 2.51721)
(3.6069 2.38574 2.60292)
(3.67559 2.45931 2.65535)
(3.76745 2.53869 2.67756)
(3.8788 2.62165 2.70477)
(3.99834 2.70407 2.74854)
(4.12367 2.78217 2.79844)
(4.24957 2.85024 2.83772)
(4.33929 2.89591 2.85022)
(4.30147 2.89089 2.82002)
(4.11213 2.82279 2.74126)
(3.87479 2.72194 2.64078)
(3.6746 2.62496 2.55331)
(3.54706 2.555 2.49027)
(3.4957 2.51597 2.45839)
(3.4857 2.49556 2.44607)
(3.49797 2.48616 2.44279)
(3.51355 2.47605 2.43748)
(3.51641 2.45872 2.41925)
(3.48981 2.42998 2.38025)
(3.42336 2.38598 2.31588)
(3.30629 2.32177 2.21901)
(3.12005 2.22489 2.07827)
(2.85479 2.08667 1.88822)
(2.51946 1.90947 1.65772)
(2.12303 1.69636 1.39613)
(1.68567 1.43239 1.1089)
(1.3503 1.20305 0.889801)
(1.16493 1.02932 0.763667)
(1.19555 0.891447 0.741865)
(1.07997 0.724743 0.660024)
(0.788073 0.556067 0.507274)
(0.65837 0.457332 0.415499)
(0.549074 0.367844 0.349364)
(0.353503 0.225597 0.30146)
(0.544793 0.379407 0.450692)
(0.831213 0.617162 0.597618)
(1.07331 0.798301 0.738832)
(1.2614 0.958115 0.857032)
(1.5487 1.18192 1.03833)
(1.73661 1.34229 1.16522)
(1.93556 1.50237 1.30307)
(2.16386 1.66448 1.45096)
(2.42433 1.82617 1.60816)
(2.68566 1.97064 1.76874)
(2.89884 2.08219 1.91213)
(2.96521 2.12089 1.98387)
(2.8342 2.0713 1.96103)
(2.63892 1.98853 1.90527)
(2.52621 1.92726 1.88983)
(2.50093 1.91441 1.92762)
(2.54402 1.94877 2.00428)
(2.63197 2.00796 2.08635)
(2.72426 2.06701 2.14343)
(2.8167 2.11387 2.16898)
(2.90284 2.13387 2.1638)
(3.00913 2.16112 2.17098)
(3.16938 2.21163 2.21473)
(3.37198 2.27728 2.28611)
(3.62582 2.3621 2.3966)
(3.89401 2.46645 2.5355)
(4.00528 2.54404 2.62518)
(4.01771 2.61646 2.69226)
(4.11895 2.72974 2.78905)
(4.26031 2.84001 2.8815)
(4.39362 2.93026 2.9636)
(4.51436 3.00271 3.03675)
(4.60805 3.05128 3.09153)
(4.62156 3.05831 3.10014)
(4.50058 3.014 3.03035)
(4.28053 2.93325 2.8987)
(4.05934 2.84392 2.76536)
(3.88247 2.75431 2.65572)
(3.80134 2.704 2.59732)
(3.79814 2.69023 2.58264)
(3.81759 2.68605 2.58708)
(3.85801 2.6933 2.60977)
(3.88787 2.69685 2.62913)
(3.88624 2.68399 2.62557)
(3.8504 2.65376 2.59303)
(3.77025 2.60045 2.52014)
(3.62695 2.51735 2.39788)
(3.39228 2.39172 2.21649)
(3.04959 2.20896 1.96784)
(2.61004 1.96208 1.65996)
(2.05683 1.63463 1.29886)
(1.47845 1.26175 0.934775)
(1.10881 0.993148 0.701786)
(1.03088 0.89057 0.637159)
(1.32819 0.920659 0.775402)
(1.39401 0.868423 0.812236)
(0.902808 0.667042 0.577033)
(0.693177 0.518019 0.441734)
(0.576612 0.400355 0.368228)
(0.367099 0.239774 0.30934)
(0.559333 0.390362 0.445951)
(0.772422 0.583209 0.549705)
(0.94696 0.720161 0.656909)
(1.08213 0.841368 0.747486)
(1.31981 1.02943 0.899038)
(1.52533 1.20566 1.03953)
(1.75188 1.38744 1.19438)
(2.01068 1.57822 1.36386)
(2.30248 1.77261 1.55527)
(2.60852 1.9601 1.7728)
(2.86235 2.10804 1.97347)
(2.94436 2.16065 2.06681)
(2.84883 2.11752 2.0324)
(2.68426 2.01958 1.92378)
(2.55075 1.92343 1.83374)
(2.46956 1.86982 1.81191)
(2.4336 1.8571 1.85379)
(2.42803 1.8653 1.92579)
(2.43484 1.88262 1.99311)
(2.4595 1.90124 2.0442)
(2.5046 1.89726 2.05019)
(2.57447 1.8894 1.99704)
(2.71384 1.92851 1.97434)
(2.9196 2.012 2.01889)
(3.20888 2.14115 2.12908)
(3.59602 2.32607 2.30653)
(4.01421 2.55645 2.52376)
(4.24725 2.74318 2.70158)
(4.32776 2.84905 2.83736)
(4.41357 2.93252 2.94293)
(4.50056 2.99881 3.0209)
(4.58525 3.05055 3.08597)
(4.65691 3.08382 3.13457)
(4.67842 3.0877 3.1411)
(4.58204 3.04646 3.0663)
(4.36401 2.96495 2.92869)
(4.12474 2.87135 2.79166)
(3.92583 2.77677 2.67966)
(3.82327 2.71796 2.6167)
(3.81889 2.70565 2.60291)
(3.84706 2.71022 2.61075)
(3.88167 2.71651 2.62753)
(3.90629 2.71583 2.64103)
(3.90897 2.70494 2.64124)
(3.88993 2.68383 2.6177)
(3.83807 2.64994 2.55482)
(3.69333 2.57178 2.41436)
(3.29812 2.35506 2.13265)
(2.71428 2.01241 1.74482)
(2.11521 1.63702 1.3431)
(1.54454 1.26446 0.973475)
(1.10434 0.978574 0.711273)
(0.973945 0.933605 0.650256)
(1.06065 0.987259 0.699674)
(1.36596 0.996299 0.829298)
(1.42706 0.904832 0.845493)
(0.90937 0.666839 0.585134)
(0.716634 0.522451 0.456288)
(0.582729 0.405011 0.372288)
(0.3309 0.246929 0.255834)
(0.57712 0.359506 0.409051)
(1.30474 0.910319 0.906344)
(1.66244 1.17959 1.10593)
(1.60095 1.17157 1.07121)
(1.66745 1.24042 1.12418)
(1.75847 1.33388 1.20054)
(1.88368 1.44797 1.30139)
(2.01789 1.56178 1.4105)
(2.15279 1.66623 1.52848)
(2.27759 1.75399 1.65039)
(2.38135 1.81384 1.75511)
(2.42385 1.82342 1.79628)
(2.39418 1.79811 1.76479)
(2.37077 1.79577 1.71657)
(2.39524 1.83228 1.6885)
(2.44012 1.88364 1.6908)
(2.46438 1.90909 1.71944)
(2.46014 1.89398 1.75907)
(2.44968 1.87207 1.79749)
(2.45464 1.87229 1.84405)
(2.44661 1.85849 1.88219)
(2.41 1.80225 1.87704)
(2.40423 1.75686 1.84227)
(2.50324 1.772 1.83382)
(2.7153 1.85915 1.87913)
(3.0425 2.01899 1.9979)
(3.4809 2.25798 2.19929)
(3.9034 2.53232 2.43156)
(4.12658 2.72523 2.61991)
(4.22466 2.82729 2.76511)
(4.29871 2.89337 2.86834)
(4.36604 2.93851 2.93057)
(4.43537 2.97021 2.95844)
(4.50394 2.99439 2.95476)
(4.5207 3.00328 2.92192)
(4.37988 2.95592 2.84401)
(4.11416 2.85041 2.73099)
(3.86714 2.73822 2.6242)
(3.6978 2.64925 2.54507)
(3.60042 2.59089 2.49534)
(3.55034 2.55507 2.46357)
(3.53297 2.53361 2.43824)
(3.51877 2.511 2.40609)
(3.4879 2.47795 2.36145)
(3.44041 2.43683 2.30444)
(3.36596 2.38651 2.21659)
(3.24274 2.31368 2.08634)
(3.0134 2.18644 1.90796)
(2.64514 1.9756 1.66966)
(2.1828 1.69238 1.38045)
(1.67865 1.35975 1.06818)
(1.23697 1.05592 0.808439)
(0.974775 0.880173 0.665673)
(0.923171 0.809695 0.632962)
(1.05739 0.769982 0.688999)
(1.00175 0.679973 0.664531)
(0.817572 0.574201 0.553956)
(0.717688 0.485927 0.463151)
(0.573829 0.386778 0.37117)
(0.345936 0.273717 0.260818)
(0.47751 0.301012 0.334915)
(0.798861 0.545947 0.584831)
(1.24857 0.885381 0.895333)
(1.35177 0.995168 0.991629)
(1.44535 1.08775 1.07734)
(1.50014 1.15587 1.14502)
(1.54104 1.21068 1.2017)
(1.57307 1.25094 1.24582)
(1.59263 1.26516 1.27171)
(1.58602 1.2453 1.27112)
(1.563 1.21394 1.25153)
(1.61436 1.24238 1.27167)
(1.78043 1.35924 1.36222)
(2.06372 1.55848 1.53174)
(2.40112 1.79185 1.73917)
(2.69741 2.00376 1.9288)
(2.91101 2.17482 2.08647)
(3.02556 2.28042 2.19372)
(3.08919 2.33187 2.26767)
(3.14848 2.36717 2.33114)
(3.17859 2.39446 2.37304)
(3.14503 2.38513 2.38246)
(3.05453 2.31539 2.33207)
(2.96951 2.21234 2.22592)
(2.92559 2.1102 2.09351)
(3.02767 2.09649 2.03392)
(3.30648 2.20742 2.0978)
(3.73198 2.43644 2.28706)
(4.12552 2.70003 2.52978)
(4.34957 2.89018 2.7529)
(4.45229 2.98183 2.89096)
(4.53408 3.03704 2.96352)
(4.61566 3.07728 2.99265)
(4.6243 3.07521 2.96799)
(4.47001 2.99377 2.8745)
(4.22382 2.8746 2.75566)
(4.00463 2.7748 2.65124)
(3.83867 2.6954 2.55947)
(3.72218 2.6314 2.48604)
(3.63416 2.57611 2.42435)
(3.56665 2.52954 2.3682)
(3.51012 2.48525 2.31189)
(3.42035 2.42129 2.23605)
(3.2955 2.34034 2.14149)
(3.13896 2.24909 2.0272)
(2.9273 2.13421 1.87803)
(2.68509 1.99986 1.71315)
(2.40804 1.83889 1.53309)
(2.09805 1.65055 1.33728)
(1.78234 1.44146 1.13746)
(1.47162 1.21583 0.941736)
(1.18438 0.999316 0.767338)
(0.989909 0.845669 0.663087)
(0.925433 0.754461 0.631459)
(0.99656 0.707414 0.660465)
(0.924635 0.637894 0.611463)
(0.748645 0.539429 0.498523)
(0.660771 0.458018 0.422062)
(0.559766 0.376989 0.360218)
(0.392895 0.308035 0.268201)
(0.583288 0.400484 0.401354)
(0.925543 0.643382 0.662329)
(1.28645 0.907621 0.936794)
(1.57817 1.13241 1.18961)
(1.79377 1.29725 1.36631)
(1.98085 1.445 1.52635)
(2.16633 1.59147 1.67767)
(2.35691 1.73905 1.82638)
(2.54628 1.87063 1.95474)
(2.74634 1.98212 2.05734)
(2.97974 2.09773 2.15021)
(3.30996 2.28059 2.30223)
(3.75364 2.55797 2.54199)
(4.23693 2.8853 2.8144)
(4.5758 3.14718 3.03343)
(4.61102 3.22058 3.14118)
(4.49526 3.17293 3.18336)
(4.40555 3.17175 3.22024)
(4.40687 3.23184 3.27648)
(4.46514 3.27247 3.31207)
(4.52142 3.28209 3.30288)
(4.5241 3.27592 3.25288)
(4.47661 3.25323 3.17714)
(4.36189 3.16395 3.04554)
(4.21878 3.01736 2.86932)
(4.22941 2.94288 2.76116)
(4.44428 2.991 2.77125)
(4.76181 3.13116 2.89566)
(4.92474 3.22928 3.02822)
(4.93309 3.26069 3.1084)
(4.89641 3.25525 3.12586)
(4.8296 3.21663 3.0884)
(4.71419 3.1405 3.01365)
(4.53805 3.03145 2.92108)
(4.33381 2.9181 2.82982)
(4.15771 2.83217 2.73977)
(3.99969 2.75678 2.63276)
(3.84049 2.67046 2.52073)
(3.7127 2.59273 2.4308)
(3.61393 2.52625 2.35565)
(3.5041 2.45224 2.27156)
(3.36504 2.36227 2.17129)
(3.20061 2.25846 2.05007)
(3.01187 2.1458 1.91036)
(2.77697 2.01228 1.74782)
(2.5246 1.87339 1.58832)
(2.28744 1.73987 1.44399)
(2.06206 1.60249 1.30557)
(1.83596 1.45722 1.16562)
(1.60552 1.29709 1.02156)
(1.37319 1.12347 0.879907)
(1.16733 0.962487 0.761851)
(1.03999 0.847767 0.69729)
(0.996165 0.75517 0.664071)
(1.03721 0.708979 0.659765)
(0.93584 0.63371 0.585477)
(0.733181 0.535091 0.476202)
(0.630702 0.45354 0.409534)
(0.555427 0.378149 0.357313)
(0.326623 0.237886 0.250397)
(0.390262 0.313458 0.305748)
(0.567857 0.459345 0.425979)
(0.796546 0.635957 0.597009)
(1.04392 0.822426 0.772244)
(1.32212 1.02528 0.967838)
(1.62648 1.242 1.17983)
(2.00066 1.50249 1.43398)
(2.51293 1.85044 1.77833)
(3.04919 2.19488 2.11678)
(3.61826 2.54049 2.45695)
(4.15876 2.854 2.76252)
(4.46871 3.02659 2.92652)
(4.47478 3.03589 2.93572)
(4.26624 2.94402 2.8686)
(4.06167 2.86437 2.83999)
(4.05031 2.9061 2.90838)
(4.23798 3.07597 3.05006)
(4.56847 3.32694 3.25554)
(4.9517 3.58392 3.48388)
(5.28996 3.79711 3.67382)
(5.53252 3.95636 3.79147)
(5.65794 4.05877 3.82677)
(5.69422 4.10258 3.79739)
(5.74518 4.11455 3.76034)
(5.87181 4.11176 3.75269)
(5.98579 4.05741 3.72714)
(5.99335 3.94302 3.68652)
(5.77995 3.74624 3.61707)
(5.49196 3.56517 3.54642)
(5.29575 3.45654 3.46256)
(5.11651 3.35034 3.34948)
(4.89724 3.21463 3.2205)
(4.65814 3.07244 3.0974)
(4.42397 2.94772 2.98202)
(4.21112 2.84904 2.86384)
(4.00199 2.75202 2.7311)
(3.79332 2.64196 2.59402)
(3.65044 2.56378 2.49963)
(3.58222 2.52526 2.44792)
(3.54497 2.49896 2.4094)
(3.48977 2.45889 2.35002)
(3.40701 2.40155 2.26563)
(3.28328 2.32012 2.14892)
(3.08808 2.19691 1.99342)
(2.80451 2.02094 1.80588)
(2.49646 1.82338 1.61859)
(2.22202 1.63953 1.45967)
(1.97392 1.46581 1.32017)
(1.73136 1.29952 1.19209)
(1.51475 1.15099 1.08506)
(1.34126 1.02806 1.00999)
(1.20339 0.91566 0.947017)
(1.13697 0.82822 0.907333)
(1.14322 0.758769 0.865591)
(1.22221 0.746705 0.826546)
(1.03218 0.662985 0.670101)
(0.681666 0.530039 0.48467)
(0.592315 0.478044 0.419736)
(0.570404 0.402795 0.374879)
(0.197344 0.11695 0.125749)
(0.167898 0.132715 0.127568)
(0.23489 0.189084 0.178191)
(0.320899 0.256545 0.242523)
(0.423426 0.333278 0.315925)
(0.552378 0.427323 0.406789)
(0.712664 0.541051 0.51718)
(0.916649 0.683057 0.655036)
(1.17481 0.860122 0.826944)
(1.47603 1.06601 1.02452)
(1.80703 1.29539 1.2438)
(2.10913 1.51048 1.45244)
(2.3082 1.66062 1.6062)
(2.3912 1.73436 1.69376)
(2.38814 1.75303 1.7329)
(2.50617 1.84429 1.82287)
(2.77535 2.03804 1.97501)
(3.13772 2.30194 2.1746)
(3.56537 2.61523 2.42575)
(3.98779 2.92089 2.68122)
(4.35654 3.18219 2.90149)
(4.70093 3.40953 3.10288)
(4.99862 3.58469 3.27402)
(5.25626 3.70538 3.39896)
(5.47355 3.76706 3.48397)
(5.58878 3.74621 3.5294)
(5.54514 3.62978 3.52107)
(5.3712 3.45792 3.48507)
(5.11164 3.27822 3.41481)
(4.85778 3.12929 3.28662)
(4.59859 2.97745 3.10013)
(4.31039 2.8055 2.9045)
(4.00496 2.62687 2.71717)
(3.71711 2.46548 2.54754)
(3.45587 2.32327 2.38852)
(3.21174 2.18683 2.23066)
(3.01311 2.06628 2.09733)
(2.91551 1.99727 2.0252)
(2.90364 1.98081 2.005)
(2.93421 1.99341 2.01283)
(2.93192 1.99296 2.0002)
(2.88315 1.96538 1.94989)
(2.81415 1.91982 1.88357)
(2.71555 1.85448 1.80939)
(2.56229 1.75305 1.71912)
(2.31266 1.58826 1.585)
(2.09055 1.43466 1.47683)
(1.94011 1.32388 1.42701)
(1.78679 1.22048 1.38826)
(1.62164 1.12067 1.3444)
(1.53743 1.0699 1.34268)
(1.49709 1.03448 1.34482)
(1.46049 0.996905 1.33221)
(1.44056 0.960426 1.29858)
(1.38995 0.878766 1.15972)
(1.36792 0.829906 1.01325)
(1.06323 0.715378 0.770866)
(0.689996 0.580489 0.570281)
(0.626526 0.518786 0.472588)
(0.598673 0.426187 0.402806)
(0.166503 0.0800316 0.0946461)
(0.0785232 0.0580686 0.0570594)
(0.0916676 0.0736911 0.0695627)