/*--------------------------------*- C++ -*----------------------------------*\
| =========                 |                                                 |
| \\      /  F ield         | OpenFOAM: The Open Source CFD Toolbox           |
|  \\    /   O peration     | Version:  2.1.1                                 |
|   \\  /    A nd           | Web:      www.OpenFOAM.org                      |
|    \\/     M anipulation  |                                                 |
\*---------------------------------------------------------------------------*/
FoamFile
{
    version     2.0;
    format      ascii;
    class       volVectorField;
    location    "0.00145";
    object      fluctuation1;
}
// * * * * * * * * * * * * * * * * * * * * * * * * * * * * * * * * * * * * * //

dimensions      [0 1 -1 0 0 0 0];

internalField   nonuniform List<vector> 
36520
(
(-5.02246e-05 2.6633e-05 4.97579e-05)
(-6.43075e-05 1.81488e-05 8.07062e-05)
(3.2836e-06 3.69326e-05 0.000111213)
(5.08962e-06 5.34393e-05 0.000137493)
(7.00915e-06 7.32593e-05 0.000165208)
(7.76773e-06 9.3519e-05 0.00018862)
(8.81717e-06 0.000114476 0.000215897)
(1.04407e-05 0.00013793 0.000249047)
(1.31828e-05 0.000165306 0.00029239)
(1.76105e-05 0.00019904 0.000350972)
(2.38961e-05 0.00024222 0.00042863)
(3.28919e-05 0.000297379 0.000528505)
(4.58889e-05 0.000370587 0.000654559)
(6.45175e-05 0.000468493 0.0008072)
(9.05974e-05 0.00060142 0.0009878)
(0.000125837 0.000779053 0.00119264)
(0.000170722 0.00101361 0.00142125)
(0.000222634 0.001311 0.00166817)
(0.000274271 0.0016672 0.0019235)
(0.000313573 0.00205665 0.00216088)
(0.000326322 0.00243363 0.00233849)
(0.000301207 0.0027445 0.00240117)
(0.000235308 0.00294478 0.00231109)
(0.00013117 0.00301252 0.00205904)
(-1.12455e-05 0.0029257 0.00164516)
(-0.000122882 0.00265242 0.00125294)
(-0.000132781 0.00233506 0.000944633)
(-5.0513e-05 0.00207987 0.000650115)
(8.0025e-05 0.00196671 0.000325299)
(0.000203928 0.00204604 3.78046e-05)
(0.000288661 0.00229059 -0.000194451)
(0.000314545 0.00262572 -0.000382803)
(0.00027208 0.00295541 -0.000529105)
(0.000175843 0.00319913 -0.000644532)
(4.54488e-05 0.00328686 -0.000722856)
(-9.97253e-05 0.00317406 -0.000757523)
(-0.000236444 0.00284847 -0.000755922)
(-0.000344115 0.00233153 -0.000737763)
(-0.000406491 0.0016744 -0.00074811)
(-0.000409912 0.000926002 -0.00100989)
(-0.000344181 -0.000436314 -0.00739238)
(-0.000227157 -0.00263402 -0.0228157)
(-0.000103077 -0.00545765 -0.0330729)
(-0.000229974 -0.00847995 -0.0297187)
(-0.00148504 -0.0188872 -0.00676876)
(-0.00966067 -0.123752 -4.9361e-05)
(-0.0368598 -0.327375 0.00629425)
(-0.0756127 -0.48294 0.0148047)
(-0.102893 -0.586105 -0.0320073)
(-0.0773988 -0.583184 -0.355294)
(-0.0233746 -0.361986 -0.652242)
(0.000807972 -0.263721 -0.830665)
(-0.234342 -0.236648 -1.03671)
(-1.61228 -0.117863 -0.604745)
(-1.81887 -0.50611 0.167872)
(-0.335744 -1.40921 0.384529)
(-0.861342 -1.18641 0.173019)
(-1.46334 0.109482 0.289224)
(-0.51543 0.333563 0.428261)
(-0.36666 0.411854 0.0252464)
(-3.18713e-05 7.95559e-05 9.14492e-05)
(-3.69654e-05 0.000131625 0.000141746)
(6.54202e-06 0.000157996 0.000152668)
(1.3891e-05 0.000181237 0.0001521)
(1.52533e-05 0.000206569 0.000150443)
(1.60875e-05 0.000229863 0.000144192)
(2.03783e-05 0.000258478 0.000140322)
(2.67085e-05 0.000293545 0.000138142)
(3.6483e-05 0.000340025 0.000141647)
(4.94888e-05 0.000399623 0.000151988)
(6.50811e-05 0.000477486 0.000169712)
(8.36603e-05 0.000575194 0.000192084)
(0.000105377 0.000701356 0.000216327)
(0.000130293 0.000859305 0.000233557)
(0.000158143 0.00105669 0.000233759)
(0.00018824 0.00128829 0.00019948)
(0.000219367 0.00155493 0.000122946)
(0.000245682 0.00183807 1.07616e-05)
(0.000257167 0.00210579 -0.0001139)
(0.000240784 0.00229626 -0.000238366)
(0.000189027 0.00235247 -0.000350081)
(0.000109978 0.00227654 -0.00044681)
(2.2283e-05 0.00214861 -0.000517547)
(-7.00693e-05 0.00211519 -0.000599148)
(-0.00014674 0.00210657 -0.000772496)
(-0.000157431 0.00178471 -0.00083988)
(-0.000135821 0.00145708 -0.000753303)
(-0.000119877 0.00133938 -0.000536085)
(-9.15234e-05 0.00130605 -0.000449052)
(-4.80808e-05 0.00128275 -0.000418188)
(-1.19128e-05 0.00124176 -0.000401137)
(7.5752e-06 0.00118096 -0.000414836)
(7.82561e-06 0.0011012 -0.00043772)
(-5.71074e-06 0.00100292 -0.00045629)
(-2.48542e-05 0.000887474 -0.000462535)
(-4.80943e-05 0.000752672 -0.000449378)
(-7.56296e-05 0.000591884 -0.000433913)
(-0.000111068 0.000370027 -0.000594061)
(-0.000201646 1.6627e-05 -0.00130252)
(-0.00190271 -0.000197189 -0.00273493)
(-0.00641659 0.0012809 -0.00467193)
(-0.00816598 0.00244793 -0.00684164)
(-0.0015815 -0.00132116 -0.0128554)
(0.00673789 -0.0235202 -0.0873148)
(0.00227735 -0.048512 -0.189866)
(0.000246969 -0.0656195 -0.240447)
(-0.00222379 -0.0998266 -0.270826)
(-0.0347058 -0.210057 -0.261499)
(-0.197257 -0.405794 -0.197323)
(-0.278021 -0.422462 -0.367729)
(-0.291029 -0.414209 -0.532969)
(-0.278744 -0.505527 -0.681578)
(-0.2585 -0.610632 -0.877235)
(-0.272591 -0.675096 -1.10961)
(-0.062878 -1.02119 -1.07907)
(0.165032 -1.33072 1.15031)
(-0.313566 -0.940942 1.26965)
(-1.12551 0.0279047 1.15085)
(-0.683757 -0.0697317 0.385512)
(-0.477225 0.0521988 0.362123)
(-1.83324e-05 0.000143659 5.35101e-05)
(-2.08424e-05 0.000154797 4.94307e-05)
(-4.75806e-06 0.000175197 3.99046e-05)
(-1.30327e-06 0.000182089 2.2598e-05)
(-2.19003e-06 0.000191379 4.79459e-06)
(-2.57655e-06 0.000200503 -1.56483e-05)
(-8.13939e-07 0.000217633 -4.33511e-05)
(2.49366e-06 0.000236802 -7.74052e-05)
(7.79396e-06 0.000269151 -9.51321e-05)
(1.387e-05 0.000307541 -0.000109492)
(1.93107e-05 0.000354109 -0.000128435)
(2.31207e-05 0.000410557 -0.000153142)
(2.41526e-05 0.000486717 -0.000187948)
(2.0687e-05 0.000588323 -0.000236037)
(1.01037e-05 0.000725127 -0.000303325)
(-7.92599e-06 0.000897213 -0.00039322)
(-2.7611e-05 0.0011167 -0.000513622)
(-4.04461e-05 0.00138378 -0.000673302)
(-4.69633e-05 0.00157555 -0.00124655)
(-5.50274e-05 0.00113009 -0.00408889)
(-7.13719e-05 -0.00156645 -0.0142658)
(-8.65371e-05 -0.00948046 -0.0424382)
(-0.000100787 -0.0248844 -0.0981862)
(-0.000196163 -0.042076 -0.162579)
(-0.000287318 -0.0508999 -0.195995)
(-0.000171868 -0.0494151 -0.186866)
(3.33466e-05 -0.0375233 -0.13992)
(5.82331e-05 -0.0218344 -0.0829886)
(2.08441e-05 -0.0127599 -0.0499317)
(1.29849e-05 -0.00959766 -0.0378932)
(9.00584e-06 -0.00805303 -0.0320405)
(4.25589e-06 -0.00714245 -0.0287047)
(1.79733e-06 -0.00655658 -0.0265976)
(2.02148e-07 -0.00616914 -0.0252168)
(-4.48465e-07 -0.00588905 -0.0242313)
(-4.01861e-06 -0.00560756 -0.023291)
(-5.00167e-05 -0.00510782 -0.0217062)
(-0.000247899 -0.00431687 -0.0194296)
(-0.000657472 -0.00338078 -0.0175368)
(-0.00109764 -0.00254318 -0.0175641)
(-0.00133473 -0.00215043 -0.0190295)
(-0.00277772 -0.00304464 -0.0204228)
(-0.0469526 -0.0114143 -0.0182951)
(-0.153116 -0.0267112 -0.0314381)
(-0.173329 -0.0342391 -0.104112)
(-0.0380306 -0.0544624 -0.199313)
(0.0463953 -0.14363 -0.232794)
(0.0258464 -0.222222 -0.279136)
(-0.195648 -0.39767 -0.240142)
(-0.515867 -0.512539 -0.120911)
(-0.653411 -0.660287 -0.146598)
(-0.812215 -0.695077 -0.396487)
(-0.770187 -0.864477 -0.539486)
(-0.631502 -0.956006 -0.572239)
(-0.304957 -0.947741 -0.565852)
(-0.0780478 -0.885353 -0.770515)
(0.0974305 -0.789731 -0.835523)
(-1.59336 -0.392503 -0.299443)
(-0.973535 -0.0463318 0.0983961)
(-0.286031 0.0274219 0.427863)
(-2.06443e-05 0.000133495 -2.11118e-05)
(-2.04363e-05 0.000145189 -3.87579e-05)
(-9.22599e-06 0.000167548 -6.24589e-05)
(-7.92408e-06 0.000183937 -6.15828e-05)
(-9.15903e-06 0.000199689 -6.1251e-05)
(-1.23412e-05 0.000201619 -9.82772e-05)
(-1.6426e-05 0.000201386 -0.000187956)
(-1.16656e-05 0.000213291 -0.000308983)
(-2.44251e-06 0.000234003 -0.000508683)
(-3.01948e-08 0.000269107 -0.000868138)
(-4.13425e-08 0.000337814 -0.00147208)
(-5.76044e-08 0.000514752 -0.00230541)
(-8.09542e-08 0.000918917 -0.00334207)
(-1.13646e-07 0.00162298 -0.00473396)
(-1.59605e-07 0.00263713 -0.00695694)
(-2.41052e-07 0.00372289 -0.0120827)
(-4.26061e-07 0.00271333 -0.0283401)
(-0.000478349 -0.0050182 -0.0722549)
(-0.00352733 -0.0342452 -0.187271)
(-0.0106164 -0.103929 -0.418162)
(-0.0178258 -0.197877 -0.705276)
(-0.0208959 -0.276278 -0.934906)
(-0.0166966 -0.329608 -1.08602)
(-0.00966009 -0.359387 -1.16755)
(-0.00636906 -0.358833 -1.15725)
(-0.00668478 -0.303639 -0.985549)
(-0.00290124 -0.216811 -0.71582)
(0.000850706 -0.139885 -0.463104)
(0.000110612 -0.0893618 -0.309862)
(-0.000485149 -0.0648404 -0.232793)
(-2.79618e-05 -0.0533692 -0.192092)
(0.000219024 -0.0468417 -0.167822)
(0.000273795 -0.0422276 -0.150355)
(0.000288449 -0.0376313 -0.133822)
(0.000387546 -0.0326054 -0.116618)
(0.000625546 -0.0276315 -0.0997053)
(0.000904201 -0.0241854 -0.0878774)
(0.00103195 -0.0225648 -0.0827211)
(0.000863795 -0.0218546 -0.0822399)
(0.000391202 -0.0210567 -0.0831151)
(-7.165e-05 -0.0205797 -0.0861822)
(-0.000109739 -0.020412 -0.0930746)
(-0.0055065 -0.0242982 -0.104541)
(-0.0381172 -0.0366553 -0.117411)
(-0.120498 -0.0967548 -0.0765731)
(-0.0659143 -0.194894 0.0106825)
(-0.0185973 -0.258686 0.0148516)
(-0.0105038 -0.333033 0.0251519)
(-0.023333 -0.431755 0.0394438)
(-0.10298 -0.554227 0.0563145)
(-0.339344 -0.667577 0.0742533)
(-0.480141 -0.857809 0.119264)
(-0.914335 -0.683302 0.453212)
(-0.974392 0.25834 0.694665)
(-0.95603 0.285392 0.52815)
(-0.383735 -0.735353 0.249989)
(0.0322851 -0.701126 -0.242332)
(-0.20003 -0.710204 -0.246223)
(-0.881302 -0.0395846 0.0212321)
(-0.238773 -0.234897 -0.338482)
(-2.59976e-05 0.000202086 -7.68928e-05)
(-2.62191e-05 0.000241262 -8.20223e-05)
(-1.11835e-05 0.000277019 -0.000370342)
(-8.22692e-07 0.000246639 -0.00110752)
(-2.03031e-05 6.03169e-05 -0.00282118)
(-7.55206e-05 -0.000460927 -0.006306)
(-0.0001394 -0.00116733 -0.0113726)
(-0.000227559 -0.00203659 -0.0189486)
(-0.000419806 -0.00335135 -0.0313703)
(-0.000723731 -0.0057936 -0.0531957)
(-0.000962773 -0.0105129 -0.0898391)
(-0.000930503 -0.0219413 -0.152688)
(-0.00080886 -0.0445178 -0.246964)
(-0.000912647 -0.0821698 -0.376917)
(-0.00183811 -0.125707 -0.525885)
(-0.0049249 -0.178013 -0.704399)
(-0.00993179 -0.246192 -0.926225)
(-0.0173738 -0.330774 -1.18645)
(-0.0298883 -0.42445 -1.46994)
(-0.0487459 -0.523318 -1.7671)
(-0.0678667 -0.622179 -2.06243)
(-0.0760825 -0.715139 -2.32846)
(-0.0620783 -0.787843 -2.51602)
(-0.0346807 -0.839678 -2.55599)
(-0.00469074 -0.86025 -2.41218)
(0.0152558 -0.776756 -2.08288)
(0.0152652 -0.593949 -1.63107)
(0.00378687 -0.441385 -1.17367)
(-0.00356152 -0.33322 -0.881256)
(-0.0153947 -0.245009 -0.743478)
(-0.015358 -0.200777 -0.671806)
(-0.00669035 -0.186276 -0.625749)
(0.00232118 -0.178054 -0.590248)
(0.00955696 -0.168584 -0.555246)
(0.0126525 -0.157962 -0.515436)
(0.0117861 -0.145057 -0.466753)
(0.0097918 -0.132215 -0.423387)
(0.00874527 -0.121178 -0.390975)
(0.0075377 -0.115009 -0.376627)
(0.00545796 -0.114359 -0.380064)
(0.00194298 -0.111106 -0.373682)
(-0.00135926 -0.100568 -0.346934)
(-0.0033493 -0.0811572 -0.288153)
(-0.00268445 -0.0554517 -0.204962)
(-0.002218 -0.0501813 -0.183609)
(-0.00520388 -0.0718495 -0.188392)
(-0.00978997 -0.153491 -0.160785)
(-0.00636586 -0.248767 -0.066246)
(-0.0145996 -0.322344 0.0047581)
(-0.0852483 -0.401548 0.0663509)
(-0.263755 -0.457468 0.145486)
(-0.251885 -0.464166 0.438123)
(-0.139188 -0.076498 0.753888)
(-0.0375488 0.273022 0.68823)
(-0.126207 0.291219 0.642549)
(-0.508004 0.199436 0.501177)
(-0.220462 -0.109437 0.588222)
(-0.212544 -0.540272 0.063224)
(-0.720093 -0.041913 -0.0459853)
(-0.400397 -0.159684 -0.280823)
(-3.57736e-05 -0.000159083 -0.0018105)
(-0.000211288 -0.00135106 -0.00740181)
(-0.000679406 -0.0043619 -0.0221523)
(-0.00139301 -0.0096328 -0.0496458)
(-0.00249931 -0.0151054 -0.0830145)
(-0.00347749 -0.0205427 -0.125235)
(-0.00409958 -0.0280475 -0.1806)
(-0.00520345 -0.0411781 -0.258549)
(-0.00771419 -0.0611753 -0.363118)
(-0.0112678 -0.0928392 -0.50178)
(-0.015801 -0.144099 -0.674857)
(-0.0212111 -0.215926 -0.860535)
(-0.0284694 -0.307761 -1.03421)
(-0.0368723 -0.376248 -1.19795)
(-0.0464704 -0.454427 -1.35985)
(-0.0769893 -0.577464 -1.52301)
(-0.138997 -0.679334 -1.73643)
(-0.222148 -0.769141 -2.01266)
(-0.282081 -0.892139 -2.33113)
(-0.373376 -1.10568 -2.63748)
(-0.576945 -1.53059 -2.82133)
(-0.791003 -2.33902 -2.6189)
(-0.556954 -3.29329 -1.87405)
(-0.166287 -3.73814 -1.26022)
(0.0362086 -3.74066 -0.970167)
(0.144832 -3.53262 -0.781551)
(0.191254 -3.12502 -0.615411)
(0.24346 -2.32402 -1.09849)
(0.00879101 -1.19474 -1.66911)
(-0.0222306 -0.975318 -1.51791)
(-0.11137 -0.805978 -1.46357)
(-0.163696 -0.607062 -1.47403)
(-0.129699 -0.540974 -1.44583)
(-0.0606979 -0.530197 -1.40966)
(-0.00312764 -0.524057 -1.379)
(0.0371382 -0.501455 -1.34132)
(0.0591945 -0.488834 -1.30145)
(0.0563017 -0.456521 -1.26865)
(0.0445697 -0.438639 -1.24398)
(0.0307774 -0.447443 -1.24009)
(0.015094 -0.449657 -1.21862)
(-0.00228593 -0.430544 -1.17847)
(-0.00932041 -0.34576 -1.10201)
(0.00278615 -0.261624 -0.935083)
(0.0110271 -0.217752 -0.803898)
(0.00936159 -0.207164 -0.716756)
(-6.22751e-05 -0.195652 -0.650149)
(-0.00292297 -0.165469 -0.559382)
(-0.000960563 -0.148042 -0.460982)
(-0.049043 -0.134901 -0.408653)
(-0.286914 -0.163462 -0.364109)
(-0.434963 -0.16779 -0.345576)
(-0.11319 -0.169519 -0.535437)
(-0.0171829 -0.0691799 -0.5643)
(0.238055 0.474124 -0.218903)
(0.0150683 0.546999 0.288435)
(-0.142652 0.281226 0.495606)
(-0.602295 0.0077844 0.0202189)
(-0.463023 -0.189723 -0.209359)
(-0.562437 -0.113952 0.0129579)
(-0.0093978 5.83953e-05 -0.00387182)
(-0.0220992 0.00185296 -0.0291011)
(-0.0430961 0.0160919 -0.0858844)
(-0.0576538 0.051601 -0.155622)
(-0.0688356 0.113513 -0.202425)
(-0.0925563 0.243442 -0.185476)
(-0.14009 0.414487 -0.0225554)
(-0.221017 0.554608 -0.0327506)
(-0.373876 0.71525 -0.048928)
(-0.719605 0.860419 -0.0740883)
(-1.21846 0.944776 -0.121366)
(-1.68128 1.03057 -0.184002)
(-1.87979 1.24364 -0.27594)
(-0.0744804 -2.1446 -0.527018)
(-0.0208989 -2.31981 -0.567349)
(-0.034389 -2.32441 -0.994917)
(-0.116245 -1.40171 -2.22145)
(-0.246592 -0.982308 -2.70318)
(-0.303957 -1.00561 -3.01335)
(-0.283593 -1.17641 -3.2751)
(-0.269517 -1.67873 -3.33192)
(-0.333784 -3.03587 -2.38825)
(-0.267674 -3.96907 -0.298387)
(-0.112208 -4.11917 0.480686)
(-0.0189858 -4.14068 0.595562)
(0.0490916 -4.0599 0.530818)
(0.103049 -3.89378 0.461725)
(0.210191 -3.64355 0.300983)
(0.279767 -2.75654 -1.71224)
(-0.0121544 -1.11164 -2.65536)
(-0.0704508 -1.17063 -2.42105)
(-0.188877 -0.940447 -2.36314)
(-0.281766 -0.451836 -2.38514)
(-0.231624 -0.238048 -2.33192)
(-0.17401 -0.206236 -2.28752)
(-0.318782 -0.539551 -2.19314)
(-0.288595 -2.14714 -0.688272)
(-0.184882 -1.86614 -1.31595)
(-0.0480858 -0.907445 -2.07751)
(-0.00875095 -0.575667 -2.19021)
(0.0544481 -0.418371 -2.22077)
(0.0475539 -0.384548 -2.19906)
(-0.110663 -0.543985 -2.14092)
(-0.0824337 -0.451057 -2.03152)
(0.0498025 -0.313188 -1.85027)
(0.0923542 -0.269342 -1.66516)
(0.0357228 -0.26686 -1.51506)
(-0.0204407 -0.262835 -1.3701)
(-0.0188464 -0.248752 -1.20569)
(-0.0135008 -0.213212 -1.03476)
(-0.274072 -0.180056 -0.876115)
(-0.999359 -0.0985675 -0.175531)
(-0.887886 -0.182982 -0.0174226)
(0.529094 0.472608 0.144215)
(0.581792 0.513969 0.0669411)
(0.528107 0.619282 -0.104403)
(-0.818329 0.110834 -0.0413473)
(-0.518244 -0.0163007 -0.031646)
(-0.249842 -0.306386 -0.244943)
(-0.541238 -0.067272 -0.0358053)
(-0.0329046 0.00293811 0.00331674)
(-0.0998961 0.0351648 0.0178753)
(-0.153397 0.183237 0.0460397)
(-0.0798614 0.422059 0.0769994)
(0.0267945 0.588416 0.119451)
(0.186108 0.701882 0.221997)
(0.0026505 -1.08095 0.266305)
(0.00062748 -1.29774 0.31146)
(0.000750061 -1.52738 0.373424)
(0.00091589 -1.82477 0.354033)
(0.00106278 -2.08108 0.356006)
(0.00115985 -2.26358 0.493733)
(-0.00078693 -2.40845 0.610987)
(-0.00615647 -2.56612 0.654367)
(-0.00677162 -2.73123 0.686971)
(-0.00181648 -2.89057 0.696915)
(-0.00582144 -3.05642 0.637081)
(-0.0878631 -3.20597 -0.593288)
(-0.133282 -0.568606 -3.24194)
(-0.0628613 -0.401203 -3.38546)
(-0.0287708 -0.412151 -3.47426)
(-0.0147523 -0.588364 -3.53475)
(-0.00520506 -1.50899 -3.35168)
(-0.0123664 -3.57129 -0.964287)
(-0.0125725 -3.73947 0.477014)
(0.00746728 -3.74718 0.672783)
(0.0535796 -3.73367 0.620764)
(0.1514 -3.72206 -0.0720806)
(0.139956 -1.48918 -3.29589)
(-0.0566715 -0.296059 -3.45887)
(-0.0963518 -0.249922 -3.31219)
(-0.114042 -0.0444665 -3.15341)
(-0.250973 0.456568 -2.95315)
(-0.324356 0.330634 -2.82922)
(0.0115958 -0.0846672 -2.75717)
(0.236909 -0.425202 -2.65466)
(-0.254004 -0.469702 -2.60072)
(-2.40354 -0.45101 -1.98223)
(-2.13205 -0.67528 -2.06317)
(-0.0962374 -0.620276 -2.54355)
(0.842894 -0.231751 -2.55957)
(0.760163 -0.101674 -2.57996)
(-0.136587 -0.312907 -2.59562)
(-0.318926 -0.313757 -2.54485)
(-0.127494 -0.259485 -2.43476)
(-0.00958402 -0.206095 -2.23584)
(-0.0390929 -0.099106 -1.99892)
(-0.0512603 0.0351348 -1.76019)
(-0.0179845 0.121263 -1.53256)
(0.0368336 0.203296 -1.33147)
(0.18425 0.450096 -1.11178)
(0.283213 1.17158 -0.159475)
(-0.00517655 0.503678 0.843173)
(0.0212203 0.372199 0.843234)
(0.266132 -0.117127 0.875446)
(-0.23622 -0.758098 -0.428015)
(-1.1088 -0.122632 -0.0737567)
(-0.702867 -0.0670545 -0.0317063)
(-0.352127 -0.264909 -0.206402)
(-0.387734 0.147601 -0.204462)
(0.000331243 -0.309772 -0.117507)
(0.000555387 -0.455255 -0.196596)
(0.000858007 -0.752446 -0.316999)
(0.001145 -1.01733 -0.42485)
(0.00134896 -1.19974 -0.504472)
(0.00163324 -1.45939 -0.607198)
(0.00179233 -1.61139 -0.668441)
(0.00192863 -1.73135 -0.716415)
(0.00108093 -1.829 -0.759231)
(-0.00175996 -1.92438 -0.802551)
(-4.18673e-05 -2.02431 -0.842499)
(0.00336867 -2.10961 -0.878083)
(0.00382461 -2.15715 -0.910642)
(0.00244334 -2.18394 -0.931375)
(-0.00391276 -2.2359 -0.959106)
(-0.0605901 -2.30643 -1.00902)
(-0.16013 -2.35465 -1.05718)
(-0.254564 -2.39017 -1.06689)
(-0.227913 -2.4356 -1.06755)
(-0.110947 -2.50511 -1.07261)
(-0.0350775 -2.57421 -1.09895)
(-0.00179897 -2.61337 -1.17083)
(0.0372199 -2.63328 -1.24489)
(0.0875559 -2.63077 -1.31871)
(0.0691877 -2.6825 -1.27916)
(0.0345324 -2.74374 -1.27621)
(0.0258308 -2.7986 -1.29822)
(0.0234111 -2.82574 -1.30547)
(0.020592 -2.83728 -1.29425)
(0.0197716 -2.85521 -1.27896)
(0.0183357 -2.8837 -1.26333)
(0.011629 -2.91306 -1.23953)
(0.0039283 -2.9023 -1.19478)
(-0.00307926 -2.81631 -1.13223)
(-0.0226486 -2.68653 -1.09502)
(-0.0228285 -2.56753 -1.09926)
(0.00200578 -2.48173 -1.11991)
(0.000684269 -2.43463 -1.12133)
(-0.0179213 -2.45183 -1.00878)
(-0.0277005 -2.41803 -1.02201)
(-0.0230036 -2.3948 -1.02694)
(-0.0176807 -2.37459 -1.02874)
(-0.0145386 -2.36786 -0.994547)
(-0.0103493 -2.36036 -0.956029)
(-0.00633745 -2.33722 -0.916694)
(-0.00467922 -2.28296 -0.871017)
(-0.00384403 -2.18863 -0.81132)
(-0.000577063 -2.06113 -0.739483)
(0.00453598 -1.90997 -0.660487)
(0.0101945 -1.74237 -0.578435)
(0.0143839 -1.56056 -0.494784)
(0.00949986 -1.37326 -0.420931)
(0.00118824 -1.2017 -0.368787)
(-0.00139393 -1.08192 -0.343566)
(-0.00389145 -0.98845 -0.336491)
(-0.0130188 -0.88552 -0.33935)
(-0.52322 -0.646994 -0.268735)
(-0.742535 -0.289086 -0.141432)
(-0.514407 -0.253248 -0.0823939)
(-0.49848 -0.0763687 -0.103436)
(0.000260792 -0.283492 -0.0613348)
(0.000443587 -0.393997 -0.0995091)
(0.000734709 -0.733549 -0.175175)
(0.00090731 -0.934614 -0.217733)
(0.00102474 -1.06638 -0.251994)
(0.000323594 -1.17884 -0.277142)
(-0.000911954 -1.26604 -0.295863)
(-0.00135697 -1.33978 -0.310428)
(-0.00227215 -1.40707 -0.323093)
(-0.00515609 -1.46735 -0.334102)
(-0.00657787 -1.53297 -0.347963)
(-0.000244381 -1.61769 -0.36917)
(0.00628017 -1.70825 -0.391014)
(0.00736239 -1.76178 -0.407314)
(0.00287761 -1.77686 -0.422459)
(-0.00631379 -1.7876 -0.434103)
(-0.051263 -1.81948 -0.411648)
(-0.164498 -1.87345 -0.359903)
(-0.349967 -1.91998 -0.377226)
(-0.316145 -1.95835 -0.551601)
(-0.115851 -2.02857 -0.613743)
(-0.0275904 -2.0874 -0.648937)
(0.0264922 -2.13671 -0.687932)
(0.0806779 -2.17037 -0.736009)
(0.098996 -2.21241 -0.699137)
(0.0360322 -2.25528 -0.633456)
(0.0130045 -2.28719 -0.63127)
(0.00853513 -2.32144 -0.633996)
(0.00650112 -2.37328 -0.636758)
(0.00741287 -2.44408 -0.644079)
(0.0127604 -2.52429 -0.65615)
(0.0205557 -2.60001 -0.667225)
(0.0227793 -2.65918 -0.670357)
(0.0144978 -2.69623 -0.667313)
(0.00407143 -2.69048 -0.659235)
(-0.00283795 -2.61847 -0.641396)
(-0.0159401 -2.50493 -0.625328)
(-0.025594 -2.3925 -0.607255)
(-0.0281804 -2.30523 -0.579979)
(-0.0315189 -2.24666 -0.555645)
(-0.0264963 -2.20696 -0.542736)
(-0.0147608 -2.17888 -0.539182)
(-0.00496811 -2.1597 -0.539237)
(-0.000166392 -2.14359 -0.537893)
(0.00126751 -2.12277 -0.531614)
(0.00150226 -2.0925 -0.518668)
(0.00161509 -2.04179 -0.496948)
(0.00240891 -1.96921 -0.468018)
(0.00395468 -1.87355 -0.433741)
(0.00603129 -1.75242 -0.393011)
(0.00705573 -1.60388 -0.346215)
(0.0041485 -1.42591 -0.295904)
(-0.00112284 -1.23692 -0.246048)
(-0.00400434 -1.07257 -0.208271)
(-0.00367148 -0.935171 -0.184214)
(-0.00644267 -0.792181 -0.168815)
(-0.313648 -0.57303 -0.130006)
(-0.526416 -0.293449 -0.0831609)
(-0.448053 -0.25364 -0.033371)
(-0.498615 -0.0995972 0.0421598)
(7.50117e-05 -0.22474 -0.0438594)
(0.000121252 -0.295013 -0.0679981)
(0.000282206 -0.814936 -0.161339)
(0.000374184 -1.07632 -0.205934)
(0.000416312 -1.21192 -0.229494)
(0.000454547 -1.33298 -0.250046)
(0.0004779 -1.41908 -0.263249)
(0.00049133 -1.48026 -0.270426)
(7.614e-05 -1.53103 -0.275975)
(-0.00275194 -1.58726 -0.284193)
(-0.00523386 -1.66462 -0.302101)
(-0.000501309 -1.77283 -0.328884)
(0.00255805 -1.86648 -0.352706)
(0.00242681 -1.88583 -0.367115)
(0.000739332 -1.84449 -0.373275)
(0.000167456 -1.8163 -0.369391)
(-0.620386 -0.224891 1.83189)
(-2.00951 -0.105165 1.13215)
(-2.2211 -0.877074 0.410566)
(-1.36721 -1.69647 0.0417552)
(-0.295529 -2.0055 -0.276941)
(-0.0469712 -2.06621 -0.384914)
(0.028048 -2.07341 -0.626193)
(0.0994297 -1.96947 -1.0201)
(0.189453 -1.68169 -1.54672)
(0.0958601 -2.01191 -1.14742)
(0.0261022 -2.2572 -0.599215)
(0.0124583 -2.33625 -0.527355)
(0.00612372 -2.40804 -0.539348)
(0.00260619 -2.48529 -0.54624)
(0.00353803 -2.565 -0.559248)
(0.0073604 -2.64289 -0.581346)
(0.009576 -2.71552 -0.608842)
(0.00633362 -2.77936 -0.628903)
(0.00126902 -2.82302 -0.635436)
(-0.0040319 -2.81371 -0.647277)
(-0.013207 -2.73446 -0.680328)
(0.0191587 -2.64666 -0.616565)
(0.046144 -2.61778 -0.185634)
(0.0042998 -2.55064 -0.145109)
(-0.0124127 -2.49555 -0.312402)
(-0.0077251 -2.45462 -0.441183)
(-0.00330583 -2.42196 -0.551529)
(-0.00126213 -2.40846 -0.565654)
(-0.000844994 -2.39101 -0.563868)
(-0.00107389 -2.36402 -0.550827)
(-0.00125099 -2.32356 -0.526247)
(-0.000969698 -2.26067 -0.505685)
(-4.23858e-05 -2.16511 -0.478518)
(0.00194519 -2.02968 -0.438264)
(0.00514851 -1.85593 -0.389789)
(0.00567552 -1.64653 -0.335877)
(0.000575696 -1.38912 -0.270509)
(-0.00340326 -1.16716 -0.215703)
(-0.000161843 -1.00006 -0.18078)
(-0.00133483 -0.867487 -0.170843)
(-0.463935 -0.638234 -0.131908)
(-0.561123 -0.382169 -0.072958)
(-0.492563 -0.29128 -0.0772955)
(-0.362188 0.246338 0.119199)
(-0.083732 0.150536 -0.109248)
(-0.403072 0.0861706 -0.245278)
(-0.331653 -0.0387422 -0.539409)
(-0.0395933 -0.635273 -0.445067)
(0.0313794 -0.782737 -0.492671)
(0.0677325 -0.880526 -0.68955)
(0.00518285 -0.964691 -0.80905)
(0.000154534 -1.19369 -0.790722)
(-0.00423235 -1.40691 -0.775109)
(-0.012617 -1.61836 -0.744921)
(-0.00905475 -1.78714 -0.745267)
(-0.00152965 -1.90061 -0.780962)
(0.00171091 -1.92278 -0.837207)
(0.00133745 -1.8526 -0.877044)
(-0.00139767 -1.68733 -1.00812)
(-0.0311783 0.0310207 -1.88935)
(-0.0526161 0.0644398 -1.92602)
(-0.215766 0.000204136 -1.99694)
(-0.183027 -0.874216 1.87258)
(-0.121332 -0.692344 2.01736)
(-0.410787 -0.677881 2.02993)
(-1.78538 -0.622439 1.58509)
(-2.62513 -0.968868 0.422926)
(-0.136772 -1.69875 -1.41493)
(0.17283 -1.6723 -1.54734)
(0.289326 -1.74308 -1.60605)
(0.394459 -1.87435 -1.62793)
(0.415338 -2.11721 -1.42981)
(0.00862595 -2.48737 -0.83518)
(-0.0321011 -2.57817 -0.916155)
(-0.0396707 -2.6725 -0.974612)
(-0.00585337 -2.73761 -1.05679)
(0.0434924 -2.76783 -1.17703)
(0.0606506 -2.78678 -1.25833)
(-0.413027 -2.86448 -1.05006)
(-3.15559 -1.93184 -0.945884)
(-0.0784099 -1.35113 -2.57198)
(2.60582 -1.48535 -1.55208)
(1.0265 -2.53862 -0.753561)
(0.0656658 -2.61496 -0.659293)
(-0.0914462 -2.52649 -0.884887)
(-2.54245 -1.66502 -1.07341)
(-3.72946 -0.0901522 -0.661939)
(-0.950356 -1.53133 -2.06643)
(0.606978 -1.36571 -2.22268)
(1.91605 -1.86299 -1.32089)
(1.10143 -2.48378 0.121484)
(-0.244515 -2.47281 0.418612)
(0.00515494 -2.3848 0.167755)
(0.461044 -2.18206 0.0711266)
(0.235132 -1.9423 0.181096)
(-0.176229 -1.5565 -0.380687)
(-0.238427 -0.623805 -0.798407)
(-0.0451496 -0.63345 -0.539724)
(0.119916 -0.847392 -0.181401)
(-0.0145528 -0.862501 -0.271078)
(-1.35684 -0.183249 -0.0730409)
(-0.821294 -0.266209 -0.0661856)
(-0.522725 -0.333971 -0.0553208)
(-0.180556 0.302532 0.211827)
(-0.173232 0.182675 0.0387919)
(-0.473407 0.188704 0.0258445)
(-0.62846 0.211078 0.236083)
(-0.102733 -0.711502 -0.0638059)
(-0.0791213 -0.838154 -0.0177898)
(-0.196358 -0.768451 -0.581798)
(-0.273452 -0.769819 -0.777307)
(-0.222424 -1.23672 -0.519053)
(-0.0798391 -1.57532 -0.0597201)
(0.0120623 -1.72617 0.353415)
(0.0100896 -1.84346 0.602334)
(0.00157761 -1.97854 0.681013)
(-0.00676701 -2.12988 0.347486)
(-0.0310215 -1.89618 -0.904367)
(-0.0348829 -0.756808 -1.78342)
(-0.0232464 -0.53923 -1.76012)
(-0.000759054 -0.515375 -1.74172)
(0.0613203 -0.495747 -1.7859)
(0.312572 -0.684706 -1.77409)
(-0.0592966 -1.62519 1.00472)
(-0.866326 -1.22882 1.38369)
(-1.4697 -0.68742 1.48463)
(-1.49233 -0.639189 1.48042)
(-0.914449 -1.40287 1.18014)
(-0.199531 -2.00673 0.0478018)
(0.523767 -1.83164 -1.04643)
(0.985743 -1.50882 -1.63764)
(1.59336 -1.30107 -1.92772)
(1.58639 -2.45606 -0.655471)
(0.00862278 -2.67296 0.981997)
(-0.0112871 -2.74036 1.04774)
(-0.0140119 -2.79851 1.08547)
(0.00717159 -2.85816 1.07853)
(0.0377011 -2.91967 1.0087)
(-0.268363 -2.95206 0.902824)
(-2.52896 -1.7054 1.89492)
(-1.64968 -0.526821 2.66077)
(2.74367 -1.44871 1.53607)
(1.57513 -2.54294 0.0439068)
(0.300096 -2.66482 0.471867)
(-0.0795847 -2.65206 0.512329)
(-0.14584 -2.56854 0.826839)
(-0.899711 -1.56254 2.06119)
(-1.50329 -1.45393 1.98563)
(-0.182886 -1.65214 2.0876)
(1.65793 -2.06196 1.25004)
(0.942654 -2.55656 0.240667)
(-0.506714 -2.52776 0.296346)
(-0.651844 -2.30777 -0.0538796)
(0.216861 -1.79698 -0.772877)
(0.221977 -1.45094 -0.605688)
(-0.344722 -1.19692 -0.226452)
(-0.311582 -0.555308 -0.550174)
(0.133659 0.134588 -0.637235)
(0.266429 -0.832211 -0.332839)
(-0.0366366 -0.970881 0.184771)
(-1.38569 -0.20839 0.0540873)
(-0.820221 -0.276705 0.0699053)
(-0.464871 -0.393829 0.0478014)
(-0.251007 0.360358 0.0562226)
(-3.55466e-05 -0.242623 0.0475661)
(-6.25124e-05 -0.353217 0.0761662)
(-0.000700493 -0.894375 0.168873)
(-0.000927136 -1.15923 0.204591)
(-0.000753175 -1.15153 0.197272)
(-0.00136853 -1.21949 0.205647)
(-0.00215032 -1.31182 0.217438)
(-0.00355582 -1.42537 0.229013)
(-0.00667072 -1.5392 0.238936)
(-0.0126937 -1.64409 0.248196)
(-0.0206455 -1.73108 0.265437)
(-0.0309566 -1.79128 0.275002)
(-0.0419432 -1.80836 0.228329)
(-0.060007 -1.79752 -0.00913541)
(-0.0584234 -1.73465 -0.442012)
(-0.0147853 -1.7139 -0.596979)
(0.108626 -1.68576 -0.750619)
(0.447057 -1.6796 -0.755489)
(1.13201 -1.62597 -0.398233)
(1.5183 -1.46043 -0.152845)
(-0.635199 -1.39595 -1.13203)
(-1.24426 0.875877 1.35626)
(-1.55381 0.6628 1.25785)
(-1.76361 0.125232 1.24518)
(-0.907901 -1.34134 0.996798)
(0.000133992 -1.79986 0.470788)
(0.687451 -1.96347 -0.112846)
(1.02787 -2.09277 -0.510061)
(1.01983 -2.32118 -0.735707)
(0.078857 -2.69632 0.377258)
(-0.000275687 -2.77577 0.525485)
(0.000827006 -2.83989 0.548958)
(0.00306564 -2.88392 0.562227)
(0.00604187 -2.91507 0.567421)
(0.00632652 -2.9395 0.563122)
(0.00190791 -2.94883 0.553859)
(-0.00853459 -2.89949 0.553018)
(-0.0296815 -2.75595 0.696912)
(-0.0205036 -2.60882 0.796965)
(-0.0434449 -2.5919 0.52571)
(-0.0247945 -2.53922 0.495506)
(-0.00582012 -2.50758 0.472714)
(-0.00434074 -2.48769 0.462122)
(-0.00545921 -2.46219 0.47208)
(-0.00285235 -2.42764 0.473441)
(-0.000418008 -2.39011 0.449072)
(-0.000294715 -2.34267 0.422908)
(-0.00253534 -2.27037 0.401809)
(-0.00587051 -2.14428 0.372878)
(-0.00235297 -1.93727 0.327278)
(0.00398039 -1.66014 0.268164)
(-0.00106735 -1.334 0.206902)
(-0.0171218 -1.03671 0.153118)
(-0.00496402 -0.867702 0.111608)
(0.00614692 -0.796835 0.112281)
(-0.000762837 -0.7561 0.130241)
(-0.371771 -0.620486 0.114303)
(-0.559371 -0.411245 0.0762425)
(-0.464793 -0.359948 0.082693)
(-0.0831463 0.371492 -0.0882173)
(-6.26562e-05 -0.267083 0.0570586)
(-0.000653035 -0.293736 0.0731651)
(-0.0105789 -0.532729 0.127612)
(-0.0460458 -0.866555 0.180478)
(-0.166535 -0.984942 -0.0703717)
(-0.521453 -0.349965 -0.942863)
(-0.665032 -0.156439 -1.01442)
(-0.653503 -0.207802 -1.06845)
(-0.181079 -1.23961 -0.0858417)
(-0.0742577 -1.25694 0.132029)
(-0.0676167 -1.236 0.145252)
(-0.128296 -1.20751 0.077358)
(-0.279678 -1.22152 0.0729086)
(-0.206886 -1.33012 0.231524)
(-0.0645758 -1.52476 0.313255)
(0.0379427 -1.74939 0.375345)
(0.114682 -1.95341 0.421739)
(0.214991 -2.11516 0.460252)
(0.310802 -2.21336 0.477552)
(0.231996 -2.27223 0.480273)
(-0.0252957 -2.32529 0.436123)
(-0.283617 -2.3712 0.25294)
(-1.10014 -2.21503 0.293545)
(-1.19149 0.077497 2.14592)
(-0.621612 0.401729 2.13874)
(-0.696855 -0.681411 1.91758)
(-0.143978 -1.85997 0.933483)
(0.415494 -2.13377 0.468245)
(1.13837 -2.29113 0.344464)
(1.92496 -2.35013 0.397379)
(0.212397 -2.82155 0.581003)
(0.00371124 -2.91635 0.602494)
(-0.000431909 -2.97432 0.599147)
(-0.0062564 -3.01619 0.593319)
(-0.0181892 -3.01641 0.577471)
(-0.0164344 -2.93515 0.565955)
(0.124888 -2.80942 0.577713)
(1.22085 -2.44198 0.965082)
(0.49567 -1.47632 -2.11564)
(-0.0925428 -0.772213 -2.37574)
(-0.126308 -1.32794 -2.07567)
(-0.165364 -2.44755 -0.587799)
(-0.164372 -2.41541 0.533327)
(-0.125411 -2.35557 0.510859)
(-0.046939 -2.30404 0.374447)
(0.0229372 -2.22062 0.321122)
(0.0517839 -2.10687 0.297762)
(0.0403435 -1.96824 0.302284)
(0.0114638 -1.78418 0.371101)
(0.00611032 -1.59024 0.358174)
(0.00108485 -1.40277 0.261765)
(-0.0226202 -1.19674 0.165549)
(-0.0517376 -0.988595 0.106961)