/*--------------------------------*- C++ -*----------------------------------*\
| =========                 |                                                 |
| \\      /  F ield         | OpenFOAM: The Open Source CFD Toolbox           |
|  \\    /   O peration     | Version:  2.1.1                                 |
|   \\  /    A nd           | Web:      www.OpenFOAM.org                      |
|    \\/     M anipulation  |                                                 |
\*---------------------------------------------------------------------------*/
FoamFile
{
    version     2.0;
    format      ascii;
    class       volVectorField;
    location    "0.00145";
    object      grad1Alpha;
}
// * * * * * * * * * * * * * * * * * * * * * * * * * * * * * * * * * * * * * //

dimensions      [0 -1 0 0 0 0 0];

internalField   nonuniform List<vector> 
36520
(
(3.34137e-09 -2.99894e-09 -4.37462e-09)
(3.28389e-09 -1.41649e-09 -6.52219e-09)
(-1.21198e-10 -2.04908e-09 -6.48272e-09)
(-1.6979e-10 -2.61396e-09 -7.04145e-09)
(-2.15734e-10 -3.31142e-09 -7.76595e-09)
(-2.26946e-10 -4.0003e-09 -8.36672e-09)
(-2.4621e-10 -4.69016e-09 -9.15326e-09)
(-2.8081e-10 -5.45525e-09 -1.01694e-08)
(-3.43027e-10 -6.34802e-09 -1.15687e-08)
(-4.45696e-10 -7.45884e-09 -1.35139e-08)
(-5.91097e-10 -8.90295e-09 -1.61417e-08)
(-7.98134e-10 -1.07574e-08 -1.95409e-08)
(-1.09513e-09 -1.32372e-08 -2.38614e-08)
(-1.51516e-09 -1.65482e-08 -2.90762e-08)
(-2.09519e-09 -2.10459e-08 -3.52461e-08)
(-2.86507e-09 -2.70388e-08 -4.21793e-08)
(-3.83226e-09 -3.49639e-08 -4.98847e-08)
(-4.9419e-09 -4.50728e-08 -5.81944e-08)
(-6.05454e-09 -5.738e-08 -6.69087e-08)
(-6.93551e-09 -7.1273e-08 -7.52935e-08)
(-7.29663e-09 -8.55288e-08 -8.21036e-08)
(-6.87822e-09 -9.86109e-08 -8.55719e-08)
(-5.54897e-09 -1.09189e-07 -8.43337e-08)
(-3.22856e-09 -1.16448e-07 -7.77687e-08)
(2.91271e-10 -1.1898e-07 -6.50116e-08)
(3.34451e-09 -1.13627e-07 -5.20325e-08)
(3.77465e-09 -1.05105e-07 -4.12838e-08)
(1.48833e-09 -9.78434e-08 -2.98423e-08)
(-2.43125e-09 -9.61442e-08 -1.56163e-08)
(-6.3778e-09 -1.03532e-07 -1.88952e-09)
(-9.3062e-09 -1.19884e-07 1.01012e-08)
(-1.0486e-08 -1.42378e-07 2.06862e-08)
(-9.42553e-09 -1.66694e-07 2.98509e-08)
(-6.35251e-09 -1.88267e-07 3.80787e-08)
(-1.7131e-09 -2.01891e-07 4.47386e-08)
(3.91672e-09 -2.03185e-07 4.90411e-08)
(9.64262e-09 -1.89289e-07 5.09968e-08)
(1.448e-08 -1.59715e-07 5.15131e-08)
(1.74793e-08 -1.16974e-07 5.35195e-08)
(1.7768e-08 -6.49925e-08 7.30308e-08)
(1.5023e-08 3.069e-08 5.40513e-07)
(1.00179e-08 1.85979e-07 1.69639e-06)
(4.41761e-09 3.71287e-07 2.41158e-06)
(9.05106e-09 5.24439e-07 2.012e-06)
(5.1822e-08 1.02443e-06 4.11213e-07)
(3.75082e-07 7.38299e-06 3.37894e-09)
(2.08271e-06 2.80182e-05 -6.34669e-07)
(5.97854e-06 5.67154e-05 -2.10974e-06)
(9.88567e-06 8.15679e-05 5.57037e-06)
(1.36475e-05 0.000144403 0.000112932)
(2.35403e-05 0.000490282 0.00114574)
(-7.15193e-06 0.00294886 0.0120294)
(0.013542 0.0162979 0.090558)
(0.643356 0.0558266 0.342005)
(3.55449 1.23057 -0.44676)
(4.5353 24.7482 -6.85108)
(40.2785 72.4432 -10.1663)
(384.778 -37.6498 -89.6798)
(879.729 -675.707 -710.816)
(533.63 -876.782 -47.3577)
(2.31833e-09 -1.00518e-08 -1.15264e-08)
(2.28083e-09 -1.26361e-08 -1.45953e-08)
(-3.67049e-10 -1.33942e-08 -1.35978e-08)
(-7.80503e-10 -1.51225e-08 -1.32202e-08)
(-8.46336e-10 -1.69842e-08 -1.28295e-08)
(-8.87169e-10 -1.87182e-08 -1.21362e-08)
(-1.1047e-09 -2.07275e-08 -1.16093e-08)
(-1.43159e-09 -2.33094e-08 -1.1285e-08)
(-1.93694e-09 -2.67964e-08 -1.14622e-08)
(-2.62548e-09 -3.15236e-08 -1.22703e-08)
(-3.4641e-09 -3.7851e-08 -1.37343e-08)
(-4.47787e-09 -4.59203e-08 -1.56279e-08)
(-5.63966e-09 -5.61483e-08 -1.76394e-08)
(-6.93982e-09 -6.87172e-08 -1.9034e-08)
(-8.33647e-09 -8.40655e-08 -1.89662e-08)
(-9.83458e-09 -1.02212e-07 -1.61404e-08)
(-1.14532e-08 -1.24012e-07 -9.99124e-09)
(-1.30386e-08 -1.4963e-07 -8.9049e-10)
(-1.41822e-08 -1.78318e-07 9.76504e-09)
(-1.41518e-08 -2.06649e-07 2.15981e-08)
(-1.2167e-08 -2.3001e-07 3.42201e-08)
(-7.91087e-09 -2.45168e-07 4.77386e-08)
(-1.79832e-09 -2.54329e-07 6.03607e-08)
(6.01272e-09 -2.62013e-07 7.28424e-08)
(1.25804e-08 -2.61381e-07 9.40636e-08)
(1.46621e-08 -2.43696e-07 1.12669e-07)
(1.43559e-08 -2.31436e-07 1.17687e-07)
(1.37361e-08 -2.36988e-07 9.3628e-08)
(1.09234e-08 -2.45079e-07 8.35633e-08)
(5.93054e-09 -2.51293e-07 8.15246e-08)
(1.51984e-09 -2.52851e-07 8.15431e-08)
(-9.99793e-10 -2.49232e-07 8.7722e-08)
(-1.06563e-09 -2.39778e-07 9.59485e-08)
(7.98581e-10 -2.24089e-07 1.03211e-07)
(3.53917e-09 -2.01722e-07 1.07093e-07)
(6.88953e-09 -1.71893e-07 1.05242e-07)
(1.077e-08 -1.34103e-07 1.01583e-07)
(1.55964e-08 -8.23646e-08 1.37948e-07)
(2.7635e-08 -3.59006e-09 2.97156e-07)
(2.49988e-07 4.04562e-08 6.03023e-07)
(7.89369e-07 -2.43248e-07 9.7378e-07)
(9.0239e-07 -4.11991e-07 1.29399e-06)
(1.54498e-07 1.93869e-07 2.16986e-06)
(-9.4613e-07 4.89481e-06 2.13498e-05)
(-9.13925e-07 2.84781e-05 0.000133377)
(-1.55808e-07 5.97529e-05 0.000266159)
(1.01543e-06 6.47962e-05 0.000216613)
(8.88076e-06 7.50775e-05 0.000116324)
(6.46753e-05 0.000182571 0.000110671)
(0.000557102 0.00115206 0.00123153)
(0.00570513 0.0110753 0.0168833)
(0.0426287 0.105989 0.16132)
(0.170915 0.557263 0.847436)
(0.386541 1.34303 2.17755)
(0.0982093 2.28428 2.32126)
(-0.185653 2.2471 -2.00406)
(0.808693 3.81078 -5.47498)
(51.357 -2.00729 -89.191)
(900.933 133.448 -769.575)
(850.401 -140.851 -920.978)
(1.81388e-09 -2.60114e-08 -9.76565e-09)
(2.21409e-09 -2.55466e-08 -8.73149e-09)
(4.90579e-10 -2.72216e-08 -6.4825e-09)
(1.43113e-10 -2.96414e-08 -3.81665e-09)
(2.47783e-10 -3.20064e-08 -8.28405e-10)
(2.99568e-10 -3.438e-08 2.76149e-09)
(9.468e-11 -3.7351e-08 7.64717e-09)
(-2.92397e-10 -4.09618e-08 1.37268e-08)
(-9.18532e-10 -4.67725e-08 1.69196e-08)
(-1.66722e-09 -5.43871e-08 1.97625e-08)
(-2.37004e-09 -6.368e-08 2.35421e-08)
(-2.88746e-09 -7.46663e-08 2.83817e-08)
(-3.00763e-09 -8.7735e-08 3.45442e-08)
(-2.51124e-09 -1.02794e-07 4.20931e-08)
(-1.1672e-09 -1.20048e-07 5.12638e-08)
(8.58132e-10 -1.38685e-07 6.19798e-08)
(2.76947e-09 -1.59138e-07 7.44917e-08)
(3.71772e-09 -1.79442e-07 8.86634e-08)
(3.8864e-09 -1.82505e-07 1.46351e-07)
(4.03737e-09 -1.15393e-07 4.22709e-07)
(4.68546e-09 1.42789e-07 1.31562e-06)
(5.33885e-09 8.12504e-07 3.67876e-06)
(6.34e-09 2.18089e-06 8.70284e-06)
(1.29195e-08 3.89307e-06 1.52047e-05)
(1.96842e-08 4.95054e-06 1.93074e-05)
(1.52347e-08 6.20861e-06 2.38887e-05)
(-4.80723e-09 7.59434e-06 2.87939e-05)
(-1.45018e-08 7.62359e-06 2.88664e-05)
(-7.99837e-09 6.95916e-06 2.64218e-05)
(-7.01467e-09 7.47884e-06 2.83736e-05)
(-5.87307e-09 7.65067e-06 2.92782e-05)
(-2.99817e-09 7.36582e-06 2.85911e-05)
(-1.28292e-09 6.86127e-06 2.70296e-05)
(-1.41938e-10 6.35235e-06 2.53847e-05)
(3.01036e-10 5.79871e-06 2.35112e-05)
(2.46622e-09 5.05028e-06 2.08641e-05)
(2.63971e-08 3.9561e-06 1.69022e-05)
(1.08549e-07 2.7698e-06 1.26827e-05)
(2.39344e-07 1.79677e-06 9.61523e-06)
(3.38896e-07 1.13971e-06 8.25512e-06)
(3.48485e-07 8.08805e-07 7.64508e-06)
(5.97693e-07 9.35577e-07 6.82905e-06)
(9.554e-06 3.28858e-06 5.83189e-06)
(6.2326e-05 1.52873e-05 2.01435e-05)
(0.000116339 3.2143e-05 0.000110022)
(4.01431e-05 8.0022e-05 0.000330364)
(-6.8455e-05 0.000293218 0.000536843)
(-4.24875e-05 0.000501443 0.000712543)
(0.000550929 0.00152216 0.00104105)
(0.00807986 0.0108352 0.00288561)
(0.0770259 0.105268 0.0260797)
(0.399494 0.467684 0.291096)
(0.981759 1.52712 1.00342)
(1.35205 2.88411 1.71181)
(1.53668 6.6678 3.64094)
(0.805972 12.1479 9.57001)
(-1.57072 16.2357 16.6188)
(20.1757 7.37382 6.02487)
(484.525 35.1845 -81.7772)
(462.771 -66.9815 -1005.34)
(2.76617e-09 -3.48202e-08 5.44692e-09)
(3.7113e-09 -4.10536e-08 1.16585e-08)
(1.79021e-09 -4.87451e-08 1.89276e-08)
(1.73078e-09 -5.8671e-08 2.03413e-08)
(2.11064e-09 -6.64564e-08 2.10212e-08)
(2.94052e-09 -6.84703e-08 3.42767e-08)
(3.84994e-09 -6.64571e-08 6.34313e-08)
(2.65169e-09 -6.72343e-08 9.91589e-08)
(5.20627e-10 -6.80362e-08 1.49903e-07)
(5.88044e-12 -7.01077e-08 2.28467e-07)
(7.03591e-12 -7.56332e-08 3.32557e-07)
(8.23607e-12 -9.58884e-08 4.33441e-07)
(9.44168e-12 -1.39466e-07 5.12708e-07)
(1.06539e-11 -1.99092e-07 5.87985e-07)
(1.19408e-11 -2.61093e-07 6.974e-07)
(1.44462e-11 -2.99775e-07 9.8255e-07)
(2.08766e-11 -1.81704e-07 1.90764e-06)
(2.01093e-08 2.93071e-07 4.22255e-06)
(1.44068e-07 1.97144e-06 1.07605e-05)
(5.41552e-07 7.56642e-06 3.03928e-05)
(1.53446e-06 2.45815e-05 8.76596e-05)
(3.49765e-06 6.72851e-05 0.00022877)
(5.46487e-06 0.000157539 0.000524988)
(5.03648e-06 0.000274268 0.000906844)
(4.13644e-06 0.00034201 0.00113005)
(4.52169e-06 0.00029895 0.00100352)
(2.38332e-06 0.0002546 0.000873184)
(-1.1032e-06 0.000256669 0.000865831)
(-2.16124e-07 0.000248748 0.000846942)
(1.36502e-06 0.000261532 0.000899291)
(1.08805e-07 0.00029839 0.00101765)
(-1.0613e-06 0.000326617 0.00110598)
(-1.51336e-06 0.000336352 0.00113389)
(-1.65858e-06 0.000312081 0.00105373)
(-2.1313e-06 0.000258568 0.000878212)
(-3.11875e-06 0.00019842 0.000675955)
(-3.86164e-06 0.000148543 0.000504841)
(-3.43651e-06 0.000107974 0.000368104)
(-2.07441e-06 7.54052e-05 0.000263719)
(-6.92538e-07 5.34165e-05 0.000196368)
(1.05775e-07 4.3237e-05 0.000169677)
(1.48841e-07 3.8923e-05 0.000168364)
(7.39047e-06 4.51377e-05 0.000187484)
(5.10399e-05 6.69746e-05 0.000210785)
(0.000148966 0.000161506 0.000127141)
(0.000205647 0.000814503 -4.48311e-05)
(0.00018876 0.0034941 -0.000203274)
(0.000283396 0.0119336 -0.000920844)
(0.00142416 0.0350202 -0.00329865)
(0.0157127 0.112055 -0.0118595)
(0.154805 0.40028 -0.0468309)
(0.542165 1.27143 -0.187606)
(0.90301 0.897004 -0.631159)
(1.76853 -0.628612 -1.74707)
(4.05803 -1.60965 -2.9994)
(6.17374 16.0262 -5.18494)
(-1.02769 31.4261 10.215)
(4.58899 25.1116 8.63706)
(417.053 29.1146 -16.9299)
(408.012 604.607 864.362)
(4.37525e-09 -6.80641e-08 2.46677e-08)
(7.75361e-09 -1.07894e-07 3.80343e-08)
(3.65301e-09 -1.26729e-07 1.73632e-07)
(2.77701e-10 -1.09903e-07 5.0131e-07)
(6.23277e-09 -2.38552e-08 1.12462e-06)
(2.00098e-08 1.55573e-07 2.13222e-06)
(3.05927e-08 3.26109e-07 3.16946e-06)
(4.05241e-08 4.63809e-07 4.29425e-06)
(6.02573e-08 6.19164e-07 5.75812e-06)
(8.47857e-08 8.78656e-07 8.01429e-06)
(9.45859e-08 1.34256e-06 1.14205e-05)
(8.19873e-08 2.52073e-06 1.75364e-05)
(6.94274e-08 4.9993e-06 2.78857e-05)
(8.44577e-08 1.00126e-05 4.63638e-05)
(1.8618e-07 1.69504e-05 7.15749e-05)
(5.78367e-07 2.82672e-05 0.000112289)
(1.55153e-06 5.30214e-05 0.000198107)
(4.23697e-06 0.000113435 0.000399493)
(1.25153e-05 0.000254538 0.000858204)
(3.67562e-05 0.000574574 0.00188175)
(9.47955e-05 0.00128632 0.00413751)
(0.000208938 0.00295304 0.00937056)
(0.000323938 0.00625164 0.0196605)
(0.000289073 0.0106911 0.0325293)
(4.6054e-05 0.0128843 0.0367406)
(-0.000122999 0.00942715 0.0262482)
(-6.56158e-05 0.00374422 0.0108535)
(-1.22166e-05 0.00204649 0.0056884)
(1.58823e-05 0.0021468 0.00570883)
(8.1494e-05 0.00188976 0.00558585)
(9.88976e-05 0.00188867 0.00605741)
(5.57313e-05 0.00226875 0.00726319)
(-2.48091e-05 0.00278595 0.00881627)
(-0.000122082 0.00315713 0.00999275)
(-0.000180465 0.00330646 0.010451)
(-0.00017836 0.00322455 0.0100959)
(-0.000147035 0.00292254 0.0090876)
(-0.000115133 0.00235581 0.00732562)
(-8.19116e-05 0.00185099 0.00579158)
(-4.46712e-05 0.00138822 0.00438574)
(-1.30475e-05 0.00110743 0.00352529)
(9.33481e-06 0.00102514 0.00333169)
(3.07419e-05 0.00110334 0.00366394)
(3.86653e-05 0.0011788 0.00395522)
(3.0708e-05 0.00101154 0.00326456)
(4.9063e-05 0.000963829 0.00221918)
(8.01807e-05 0.00175121 0.00162061)
(9.98433e-05 0.00534455 0.00127257)
(0.000466878 0.0139479 -0.000187087)
(0.0057248 0.0362091 -0.00553153)
(0.0484839 0.112726 -0.0336426)
(0.130601 0.318967 -0.287902)
(0.117127 0.0844223 -0.797657)
(0.0618379 -0.572899 -1.41886)
(0.650624 -1.90411 -4.12215)
(8.43958 -4.20248 -9.99614)
(5.3553 3.41764 -17.3728)
(6.48265 23.9163 -2.67634)
(919.424 81.1999 89.3018)
(910.429 539.662 984.069)
(6.57505e-09 5.63669e-08 5.81087e-07)
(7.12564e-08 6.07783e-07 3.32726e-06)
(2.2393e-07 1.80674e-06 9.23869e-06)
(4.63951e-07 3.98056e-06 2.06115e-05)
(7.97324e-07 6.03482e-06 3.3088e-05)
(1.00038e-06 7.48891e-06 4.52752e-05)
(1.05821e-06 9.28682e-06 5.90646e-05)
(1.26339e-06 1.30044e-05 8.04295e-05)
(1.80964e-06 1.89093e-05 0.000110442)
(2.75113e-06 3.01743e-05 0.000160667)
(4.62672e-06 5.64287e-05 0.00026185)
(8.00423e-06 0.000108954 0.000434883)
(1.40169e-05 0.000201931 0.000689097)
(2.12456e-05 0.000288101 0.000942963)
(3.20562e-05 0.000417538 0.00128961)
(6.15137e-05 0.000620369 0.00167673)
(0.000139619 0.000933351 0.00239862)
(0.000320891 0.00155294 0.00398747)
(0.000720501 0.00324926 0.00816066)
(0.00159373 0.00684605 0.0154824)
(0.00363917 0.0142586 0.0247445)
(0.00754268 0.0336424 0.0354266)
(0.0112688 0.102621 0.0553711)
(0.00835825 0.294005 0.0954194)
(-0.00302276 0.492006 0.125226)
(-0.0126432 0.481566 0.107671)
(-0.0100441 0.248569 0.0513324)
(-0.00249472 0.0348735 0.0175769)
(-5.24021e-05 0.010393 0.0150719)
(0.000151015 0.00976251 0.0152161)
(0.000805537 0.00861401 0.0153031)
(0.00133957 0.00733132 0.0171783)
(0.0013255 0.00814873 0.0209102)
(0.00079189 0.0101915 0.0261291)
(4.8065e-05 0.011863 0.0304706)
(-0.000664734 0.0132074 0.035009)
(-0.00135075 0.016414 0.0438126)
(-0.0016072 0.0192234 0.0538846)
(-0.00143242 0.0208858 0.059846)
(-0.00110264 0.0238483 0.0667137)
(-0.000511668 0.0227392 0.0620523)
(6.7932e-05 0.0191193 0.0523822)
(0.000308734 0.0170706 0.0541711)
(-0.000144156 0.0200192 0.070782)
(-0.000682108 0.019812 0.0715408)
(-0.000528317 0.0171655 0.0569913)
(2.98263e-06 0.0137768 0.0427017)
(0.000175317 0.0145927 0.0443537)
(8.43523e-05 0.0190177 0.0508431)
(0.00536369 0.0213003 0.0528812)
(0.0323383 0.0263136 0.0476169)
(0.157488 0.0852611 0.145139)
(0.286714 0.596903 1.56355)
(0.0426506 0.248554 1.70817)
(-0.296578 -0.854645 0.356119)
(-0.0596878 -3.01573 -1.53415)
(3.993 -9.36048 -16.5044)
(58.7165 -0.919896 -2.33567)
(918.856 491.235 554.369)
(863.98 250.793 -30.1068)
(1.37694e-06 -1.4169e-08 8.56884e-07)
(4.3369e-06 -4.69566e-07 7.17624e-06)
(8.64758e-06 -4.06613e-06 2.15805e-05)
(1.19147e-05 -1.34401e-05 4.02825e-05)
(1.23003e-05 -2.59085e-05 4.59038e-05)
(1.29566e-05 -4.4209e-05 3.33588e-05)
(1.75609e-05 -6.83619e-05 3.68337e-06)
(2.56809e-05 -8.62337e-05 5.03311e-06)
(4.01158e-05 -0.000104322 7.04608e-06)
(7.57403e-05 -0.00012464 1.0597e-05)
(0.000137585 -0.000147901 1.87903e-05)
(0.000215657 -0.000183354 3.26525e-05)
(0.000256551 -0.000234185 5.26268e-05)
(0.000302701 0.0119204 0.00302882)
(0.000373336 0.0562027 0.0144654)
(0.000566562 0.0516297 0.0234212)
(0.00117231 0.0190961 0.031758)
(0.0029218 0.0159978 0.0449752)
(0.00587588 0.0273306 0.0812049)
(0.00871933 0.0517902 0.139672)
(0.0114627 0.10387 0.196678)
(0.0210795 0.283948 0.211065)
(0.0478514 1.07206 0.0760084)
(0.0622017 3.52883 -0.390814)
(0.0197845 6.79497 -0.937429)
(-0.05327 6.96175 -0.88874)
(-0.0761558 4.45497 -0.53211)
(-0.0350278 0.908211 -0.0782194)
(-0.00295698 0.0428519 0.0280149)
(0.0001137 0.0153659 0.0380352)
(0.000891777 0.0219881 0.0462376)
(0.00268585 0.0198125 0.049754)
(0.00441908 0.0104536 0.0543482)
(0.00468318 0.0070673 0.0675191)
(0.00427391 0.00740687 0.0800006)
(0.00655865 0.0161523 0.0645939)
(0.00937534 0.101041 0.0324397)
(0.00793582 0.115839 0.0832522)
(0.00643117 0.175566 0.415375)
(0.00117831 0.112497 0.446624)
(-0.00718161 0.0805027 0.449267)
(-0.00408182 0.0484731 0.292412)
(0.00904356 0.0658263 0.272138)
(0.00862462 0.0697217 0.329198)
(-0.0068806 0.0631705 0.392159)
(-0.014363 0.0604745 0.392534)
(-0.00624999 0.067142 0.396188)
(0.00433451 0.080121 0.424517)
(0.00500886 0.0943437 0.453962)
(0.00428649 0.0952487 0.4491)
(0.0943134 0.0861602 0.396148)
(0.8886 0.122586 0.199684)
(0.881277 0.25963 0.0221071)
(-0.56341 -0.750351 -0.20163)
(-0.986111 -1.33169 -0.162032)
(-0.322156 -0.584145 0.100259)
(4.86168 -0.881153 0.340239)
(313.891 10.3495 20.7424)
(907.593 1249.56 1095.17)
(598.566 103.886 59.0094)
(3.21911e-06 -3.99456e-07 -4.25785e-07)
(1.06025e-05 -4.79005e-06 -2.39875e-06)
(1.68387e-05 -2.55471e-05 -6.57514e-06)
(1.20408e-05 -8.15343e-05 -1.5194e-05)
(-4.32099e-06 -0.000122017 -2.5612e-05)
(-2.30452e-05 -0.000112872 -3.69739e-05)
(-2.0081e-05 0.0107025 -0.00273551)
(-1.52981e-05 0.0418255 -0.0103971)
(-3.76552e-05 0.103125 -0.025959)
(-9.20201e-05 0.251944 -0.0499441)
(-0.00024995 0.684371 -0.118323)
(-0.000724832 1.98792 -0.434635)
(0.00105045 4.48881 -1.13592)
(0.0105579 6.08201 -1.55398)
(0.0118263 6.54564 -1.67322)
(0.00292883 6.35356 -1.58019)
(0.00602018 4.27506 -0.926587)
(0.0255567 1.25972 0.242036)
(0.0517144 0.301219 1.768)
(0.0667364 0.591634 5.08838)
(0.0608823 1.23233 10.494)
(0.0367616 2.10775 12.6387)
(0.0113902 4.8376 10.5546)
(0.0329464 14.2589 3.72581)
(0.0621535 28.3595 -3.47513)
(-0.0372181 28.9629 -5.00394)
(-0.180496 19.2793 -3.11817)
(-0.141073 5.19462 0.0998017)
(-0.0267458 0.421287 0.944964)
(0.00752982 0.0584238 0.701994)
(0.00749252 0.0290339 0.398711)
(0.0046786 0.00272845 0.200723)
(0.00933206 -0.0252713 0.16832)
(0.0135949 -0.0204457 0.177544)
(-0.000615276 0.00656645 0.21397)
(-0.0160595 0.0417708 0.259561)
(0.0174001 0.046279 0.25663)
(0.200711 0.0538928 0.240334)
(0.183719 0.083016 0.260671)
(0.00775627 0.0712196 0.303611)
(-0.0842852 0.0330323 0.383097)
(-0.0917576 0.0175294 0.471985)
(0.0205007 0.0673834 0.598426)
(0.0614224 0.0870371 0.763346)
(0.0323664 0.0947255 0.974771)
(0.00322866 0.0990611 1.19928)
(0.0175037 0.062535 1.43446)
(0.0295988 -0.0282246 1.63041)
(0.0121616 -0.112214 1.65065)
(-0.0255327 -0.188538 1.44487)
(-0.100862 -0.321627 0.929084)
(-0.0957531 -0.509504 0.0791391)
(0.00615058 -0.77101 -1.41002)
(-0.027762 -0.648955 -1.52341)
(-0.0667704 0.0426356 -0.319103)
(0.235788 1.2161 0.690567)
(15.4827 2.73172 1.70296)
(709.502 91.3652 46.4241)
(938.712 907.747 786.531)
(244.698 -134.385 198.319)
(-0.00427491 5.38589 2.2824)
(-0.00382182 4.81512 2.03929)
(-0.00407204 5.13044 2.17151)
(-0.00454462 5.72592 2.42209)
(-0.00587683 7.4045 3.13027)
(-0.0109794 13.8336 5.84474)
(-0.0185568 23.4646 9.93339)
(-0.0187174 23.5753 10.0283)
(-0.00780732 18.5138 7.9535)
(0.0126237 19.4232 8.43362)
(0.000518523 35.6638 15.4756)
(-0.0838426 75.3883 32.4749)
(-0.0968414 78.2593 33.5753)
(-0.0395958 49.7623 21.0671)
(0.0177168 13.8681 5.8241)
(0.0851901 4.36819 1.87285)
(0.258163 5.08605 2.25845)
(0.844819 10.6484 4.76882)
(2.36514 34.1755 15.3298)
(4.48128 138.34 61.8116)
(3.76878 383.339 172.571)
(0.206088 422.083 198.888)
(-3.10059 315.687 154.146)
(-4.02822 177.245 88.9556)
(-2.52397 144.477 66.8418)
(-1.19587 140.131 62.075)
(-0.811405 128.866 56.7576)
(-0.634809 111.627 49.3655)
(-0.480089 96.3559 42.8063)
(-0.400984 84.7801 37.7965)
(-0.32126 74.5207 33.2035)
(-0.166376 61.9314 27.3335)
(-0.0394126 43.4132 18.7845)
(0.0160586 21.8254 9.24361)
(0.0457181 7.98978 3.40066)
(0.0286226 4.69177 2.07207)
(-0.0026073 4.65388 2.14959)
(-0.000947143 4.82661 2.27077)
(0.0278408 5.43573 2.29181)
(0.0590716 7.34202 3.19472)
(0.0744745 11.0183 4.88706)
(0.0932628 17.7748 8.01376)
(0.130363 30.1264 13.2819)
(0.159924 51.8189 22.2802)
(0.156879 82.2014 34.7819)
(0.147095 101.625 42.7878)
(0.128903 103.066 43.3657)
(0.0208086 102.904 43.2472)
(-0.180513 103.051 43.1851)
(-0.451311 101.54 42.3569)
(-0.695654 95.5079 39.4779)
(-0.462985 80.7193 33.0882)
(-0.0566773 66.3881 27.2322)
(0.0811406 72.2744 29.927)
(0.339788 105.026 43.9811)
(0.995596 95.1268 40.4966)
(40.7216 78.4997 34.2372)
(795.99 492.78 250.616)
(947.1 723.139 245.602)
(191.28 44.9633 62.6821)
(-0.0120407 17.3691 4.07117)
(-0.0145735 21.0209 4.93988)
(-0.018925 27.2951 6.43086)
(-0.0215876 31.1325 7.35386)
(-0.0207205 29.8794 7.07596)
(-0.00629985 31.5765 7.49705)
(0.0210593 39.9232 9.49892)
(0.0379828 50.997 12.1571)
(0.0649241 54.6195 13.0444)
(0.149813 58.1975 13.9184)
(0.247416 79.8907 19.1856)
(0.0158901 148.59 35.9838)
(-0.496337 192.628 46.6961)
(-0.502418 169.65 41.0992)
(-0.111941 94.7205 23.0101)
(0.071506 26.9115 6.50282)
(0.183733 8.55324 1.90697)
(0.625913 9.42032 1.80238)
(2.40072 17.7356 3.54286)
(7.14444 60.705 17.7026)
(11.427 278.823 87.9164)
(5.78388 620.502 199.68)
(-5.13485 599.493 195.96)
(-10.0655 399.16 133.296)
(-7.15142 237.599 71.3504)
(-2.39912 222.886 57.8115)
(-0.870722 225.686 56.8364)
(-0.56594 225.477 56.4974)
(-0.419068 223.555 56.1098)
(-0.452317 217.949 55.0695)
(-0.713308 206.432 52.5795)
(-1.01878 188.844 48.3527)
(-0.955721 163.927 41.923)
(-0.471853 129.349 32.9904)
(-0.0887656 86.443 22.0547)
(0.0346593 46.715 11.9283)
(0.0946409 21.3785 5.5289)
(0.114191 15.095 3.93342)
(0.135342 15.4795 3.97161)
(0.177572 17.6049 4.43034)
(0.202873 23.4869 5.87597)
(0.184202 37.9076 9.55168)
(0.11976 73.035 18.6122)
(0.00779074 141.931 36.4586)
(-0.0828543 197.556 50.9069)
(-0.100238 199.155 51.2977)
(-0.105867 190.085 48.9011)
(-0.164212 188.57 48.5173)
(-0.301363 196.909 50.8927)
(-0.551573 214.901 56.0097)
(-0.732209 214.346 56.4451)
(-0.441602 185.274 49.2606)
(0.102395 129.81 34.5217)
(0.444572 130.789 35.0102)
(0.61286 172.359 46.1535)
(0.988264 152.092 39.8789)
(49.1483 127.178 32.1233)
(794.019 655.347 196.591)
(938.155 801.92 111.564)
(192.773 59.0799 -25.8127)
(-0.00386738 15.7968 3.03796)
(-0.0042785 17.4643 3.37815)
(-0.00562858 22.9605 4.4673)
(-0.0070535 28.7547 5.62743)
(-0.00930669 37.9178 7.46206)
(-0.0108093 44.0139 8.70766)
(-0.0104069 42.3552 8.39337)
(-0.00866863 35.2733 6.95384)
(-0.00114294 30.714 5.99145)
(0.0451514 34.8833 6.73689)
(0.163371 71.065 13.864)
(0.0371874 185.412 36.9378)
(-0.236169 248.382 50.2107)
(-0.177936 198.662 40.8772)
(-0.0241331 83.3826 17.3131)
(-0.000732209 10.509 2.12137)
(0.0470953 0.0221491 -0.175678)
(0.612014 0.0418178 -0.436196)
(4.50669 2.35951 -1.07803)
(16.347 27.2366 -0.666631)
(29.024 267.355 37.4662)
(16.3269 992.965 188.592)
(-10.3346 1084.09 329.563)
(-24.3843 706.527 360.133)
(-20.6421 275.554 243.105)
(-7.81928 250.437 133.996)
(-2.08291 274.866 67.3698)
(-0.921539 261.266 54.0542)
(-0.395988 232.725 48.277)
(-0.150153 212.492 44.2811)
(-0.18594 199.443 42.1485)
(-0.353882 187.887 40.6603)
(-0.411302 172.874 38.5345)
(-0.222734 145.728 33.1203)
(-0.0305099 101.7 23.2586)
(0.0485845 50.4489 11.8972)
(0.0475819 14.3515 3.67682)
(-0.0170086 3.3448 0.803152)
(-0.0383865 3.04848 0.222242)
(-0.00492237 4.05371 0.236615)
(0.0297343 8.3059 1.06411)
(0.0454956 20.1917 3.70259)
(0.0432587 44.5911 10.3346)
(0.0320982 86.9165 20.7364)
(0.0327138 132.388 31.7303)
(0.0466738 147.559 35.1002)
(0.0551619 147.003 34.3013)
(0.043879 145.674 34.0944)
(0.00203168 145.535 34.4344)
(-0.101729 145.221 34.6528)
(-0.294212 139.938 33.8537)
(-0.324828 117.938 29.2319)
(-0.0254781 72.3475 18.1985)
(0.18149 69.8611 17.4563)
(0.0166199 116.229 28.3193)
(0.1522 132.655 31.3929)
(59.2854 121.534 27.5812)
(824.984 796.31 166.642)
(914.194 778.26 227.316)
(148.459 -150.72 -76.7889)
(3.14565e-05 -8.86172e-05 4.81278e-05)
(0.000373131 -0.000114542 0.000274466)
(0.000972269 0.000152967 0.00219942)
(0.000803314 0.0173294 0.0131181)
(-0.000897923 0.0294879 0.0207494)
(-0.00115927 0.0197473 0.017603)
(-0.000117286 0.0282437 0.0272864)
(-9.04471e-06 0.0900111 0.0687439)
(0.000647672 0.279892 0.176893)
(0.00592121 1.00828 0.527019)
(0.0145209 3.90587 1.81474)
(0.00609004 10.5347 4.71371)
(-0.00769039 12.0834 5.62467)
(-0.00460939 8.73642 4.36852)
(0.00122316 1.95964 1.22197)
(0.00689399 -0.00899082 0.558441)
(0.0153059 -0.0244884 0.726914)
(0.0394315 -4.87012e-05 0.463221)
(0.0941481 0.589441 -1.21515)
(0.505271 3.79994 -10.6775)
(6.25567 13.7555 -40.1443)
(63.1806 29.9644 -75.2514)
(104.922 53.9191 -23.4296)
(29.2983 521.482 433.745)
(-70.5806 1011.23 932.052)
(-87.5872 809.988 735.569)
(-40.6729 305.124 257.793)
(-5.45071 43.7447 28.629)
(-0.0249222 11.0353 3.60099)
(0.096308 11.6713 4.0592)
(0.116606 11.7839 4.2355)
(0.0157878 11.0715 4.2258)
(-0.0939672 8.99051 3.7804)
(-0.0793628 5.50707 2.45426)
(0.184305 1.93158 0.69852)
(0.288233 0.263489 0.128315)
(0.00477341 0.120034 0.231217)
(-0.273882 0.222835 0.239461)
(-0.209799 0.731374 0.22516)
(-0.0229697 1.28591 0.337524)
(0.0263136 1.02639 0.374463)
(0.518412 0.482522 0.322975)
(0.688154 0.0238284 0.180559)
(0.191289 0.444352 0.615069)
(-0.215735 0.702839 1.16932)
(-0.588413 0.830101 0.602338)
(-0.353677 1.15634 -0.0583595)
(0.0818766 1.19301 -0.212023)
(-0.00170154 1.11648 -0.0847461)
(-0.179544 1.17313 -0.0429252)
(-0.110304 1.21206 -0.133579)
(0.0819977 0.911287 0.280497)
(0.177546 0.544298 0.940328)
(0.0391157 0.612708 0.738792)
(-0.212605 1.73907 0.520346)
(0.0480091 4.10485 1.53181)
(40.7997 8.84511 3.76944)
(884.882 388.197 111.569)
(933.212 797.836 154.981)
(88.8448 -214.402 -163.218)
(0.000134816 -0.000217659 -3.58264e-05)
(0.000975243 -0.00055701 -6.67774e-05)
(0.00194658 -0.000865902 -0.0010275)
(0.00218368 0.0198865 0.00195509)
(0.00231766 0.0315772 0.000754404)
(0.00437551 0.0219538 0.019032)
(0.00930784 0.033151 0.0388228)
(0.0140819 0.098864 0.0482005)
(0.0117742 0.295979 0.012984)
(-0.00562728 1.046 -0.244085)
(-0.0164803 4.00721 -1.44765)
(-0.00635833 10.8276 -3.98099)
(0.0307645 13.1952 -2.2505)
(0.144353 11.8708 5.89881)
(0.294548 8.49364 21.012)
(0.279354 8.5934 29.4219)
(0.00830383 7.44648 25.9698)
(-0.328936 3.48482 12.5763)
(-0.27817 0.793174 1.99058)
(0.0173294 0.614281 -0.358704)
(0.965255 1.77116 -1.85491)
(13.435 8.29548 -16.5794)
(118.347 69.0691 -151.349)
(234.016 505.204 -415.129)
(71.5472 1044.16 -24.7876)
(-184.226 965.518 554.736)
(-185.194 438.228 479.671)
(-63.1583 80.9806 121.538)
(-5.57428 13.362 3.62096)
(-0.0250165 11.7798 -4.34548)
(0.0327934 11.9828 -4.56528)
(0.0378053 11.3319 -4.36321)
(-0.0155923 9.34043 -3.48417)
(-0.049774 5.82089 -1.97846)
(0.123706 2.06186 -0.619854)
(0.308595 0.312995 -0.345527)
(0.160543 0.0754614 -0.385844)
(-0.162431 0.123205 -0.134364)
(-0.282396 0.644568 -0.0115325)
(-0.105957 1.32352 -0.243428)
(0.024202 1.13833 -0.228586)
(0.0258497 0.646232 -0.215955)
(0.313008 0.776769 -1.05936)
(0.65562 0.912042 -1.28085)
(0.0626843 0.818331 -1.05896)
(-0.643196 1.15943 -0.720651)
(-0.351092 1.37912 -0.13466)
(0.144877 1.0379 -0.129614)
(0.189673 0.940415 0.0242456)
(-0.0980122 1.09542 0.543395)
(-0.14562 1.22987 0.625757)
(0.232901 0.987778 0.242746)
(0.244703 0.492164 0.670862)
(-0.216347 -0.227264 1.5449)
(-0.357289 1.19898 0.676625)
(0.120439 4.37589 -1.00049)
(39.9442 9.4741 -2.63157)
(880.964 405.288 -116.687)
(910.764 1058.36 -147.086)
(69.4008 -143.355 -24.332)
(0.00112047 10.2485 -1.93927)
(0.00102483 9.29586 -1.76173)
(0.0066515 12.1721 -2.30838)
(0.00896276 15.7937 -2.97306)
(0.00820865 17.1498 -3.21324)
(0.0160732 19.2534 -3.58251)
(0.0279741 22.498 -4.14332)
(0.0419318 21.8665 -3.909)
(0.0672022 20.0347 -3.44364)
(0.134793 22.5564 -3.71206)
(0.385877 42.0135 -6.8466)
(1.32991 101.031 -16.0296)
(3.73098 213.828 -27.4066)
(7.53062 300.36 1.55532)
(7.88357 309.02 82.3754)
(1.63328 247.499 93.5484)
(-6.89957 138.706 68.8061)
(-9.74346 47.254 23.5993)
(-5.08764 9.49211 2.50311)
(-0.829733 1.04435 0.113834)
(0.049369 0.142243 0.117116)
(1.06724 -0.989008 -1.51215)
(24.0264 -13.7049 -24.9726)
(258.227 -25.0932 -237.934)
(390.374 814.745 -585.053)
(-0.0739521 1450.82 -375.456)
(-355.871 1531.69 88.9596)
(-255.395 801.618 200.589)
(-57.8469 202.949 66.991)
(-3.097 160.347 -23.337)
(0.0123304 185.509 -35.9087)
(-0.0400072 204.11 -39.7993)
(-0.146028 204.109 -39.8992)
(-0.26583 191.524 -37.4289)
(-0.216213 151.104 -29.3352)
(-0.0379178 88.2153 -17.0302)
(0.063881 32.1573 -6.37468)
(0.0463347 6.20961 -1.63892)
(0.0135468 2.43429 -0.775959)
(0.0331492 2.76042 -0.582806)
(0.0394159 5.60946 -1.13655)
(0.024095 14.4251 -2.82032)
(0.0405974 32.4437 -6.26261)
(0.0984728 62.2376 -12.4532)
(0.0798126 95.6146 -19.5669)
(0.0141441 114.181 -22.6855)
(0.010788 120.947 -23.5075)
(0.0990706 124.341 -24.4036)
(0.247363 124.525 -24.8149)
(0.111307 122.7 -24.5269)
(-0.209205 112.54 -22.2864)
(0.0558172 86.1224 -17.0035)
(0.673461 47.7688 -9.21506)
(0.23715 45.9089 -7.80781)
(-0.562967 83.206 -14.9981)
(0.0976985 132.981 -25.5989)
(56.7904 139.637 -26.3209)
(830.89 869.774 -167.144)
(858.594 982.048 -236.707)
(84.0414 -557.083 137.852)
(0.000325359 1.75282 -0.392986)
(0.0020631 1.4721 -0.32956)
(0.0152837 1.1262 -0.251837)
(0.0245121 0.650532 -0.13398)
(0.0289574 0.232633 0.0166804)
(0.0500406 0.0446246 0.121388)
(0.0942202 0.0287652 0.188296)
(0.125824 0.0509274 0.263809)
(0.170004 1.46348 0.101761)
(0.37763 8.04651 -0.840853)
(1.26668 29.4893 -3.39513)
(5.81207 70.4326 -4.37666)
(26.3529 149.56 -8.72117)
(60.566 510.055 -88.5873)
(38.6711 1209.12 -252.744)
(-21.8302 1348.75 -298.148)
(-50.8151 1165.18 -261.336)
(-42.6514 561.665 -127.392)
(-15.1309 142.964 -32.0646)
(-1.87206 24.2903 -5.27951)
(0.0613178 7.49701 -1.42785)
(0.693385 7.69553 -0.828305)
(3.3504 8.89488 -1.18011)
(16.4284 -1.40965 -38.7545)
(98.4594 -85.4089 -451.931)
(202.968 275.16 -780.51)
(67.6616 1262.32 -653.023)
(-169.482 1303.73 -301.048)
(-165.557 510.383 -81.7464)
(-50.2475 93.7333 -16.9158)
(-3.6658 73.2873 -15.8436)
(-0.063953 75.0384 -15.9895)
(0.00723682 74.4015 -15.3592)
(0.0953992 68.9836 -13.9536)
(0.210132 52.4012 -10.3942)
(0.0992175 26.4579 -5.31329)
(-0.215224 7.11404 -1.52603)
(-0.291274 0.840837 -0.34779)
(-0.0891626 0.378205 0.570771)
(0.0466331 0.550427 1.79242)
(0.0675446 1.00179 1.6639)
(0.112273 2.34307 0.601045)
(0.239517 4.97107 -1.17993)
(0.286831 7.61044 -1.78723)
(0.119254 8.24275 -1.46398)
(-0.0605034 8.17514 -1.31159)
(-0.145033 8.09355 -1.29989)
(-0.125648 8.23044 -1.47558)
(-0.0432115 8.80681 -2.19716)
(-0.0329323 10.8945 -3.02862)
(-0.0101094 16.1633 -3.82226)
(0.308956 19.7846 -3.53342)
(0.871372 19.7335 -2.78053)
(0.503164 25.0309 -4.61284)
(-0.523227 54.9935 -10.4148)
(0.0619611 46.5577 -8.87823)
(37.3479 56.2124 -10.224)
(785.685 596.911 -151.272)
(922.622 900.601 -150.579)
(173.515 -370.749 186.162)
(0.00034741 1.31283 -0.503472)
(0.000320178 1.20996 -0.464196)
(0.010354 1.04084 -0.402464)
(0.0422163 0.82356 -0.339603)
(0.0690575 1.16693 -0.485456)
(0.077532 1.82611 -0.763174)
(0.0926343 1.79709 -0.799686)
(0.150744 1.84416 -0.912876)
(0.404575 2.70875 -1.33775)
(1.5314 6.41697 -2.89719)