/*--------------------------------*- C++ -*----------------------------------*\
| =========                 |                                                 |
| \\      /  F ield         | OpenFOAM: The Open Source CFD Toolbox           |
|  \\    /   O peration     | Version:  2.1.1                                 |
|   \\  /    A nd           | Web:      www.OpenFOAM.org                      |
|    \\/     M anipulation  |                                                 |
\*---------------------------------------------------------------------------*/
FoamFile
{
    version     2.0;
    format      ascii;
    class       volVectorField;
    location    "0.00145";
    object      gradAlphaUSE;
}
// * * * * * * * * * * * * * * * * * * * * * * * * * * * * * * * * * * * * * //

dimensions      [0 0 0 0 0 0 0];

internalField   nonuniform List<vector> 
36520
(
(-0.000122958 0.000110357 0.000160979)
(-0.000120837 5.21223e-05 0.000239997)
(4.45983e-06 7.54015e-05 0.00023855)
(6.24774e-06 9.61854e-05 0.000259103)
(7.93807e-06 0.000121846 0.000285753)
(8.35035e-06 0.000147189 0.000307849)
(9.05882e-06 0.000172565 0.000336777)
(1.03314e-05 0.000200706 0.000374147)
(1.26196e-05 0.000233538 0.000425602)
(1.63954e-05 0.000274382 0.000497122)
(2.17418e-05 0.000327469 0.000593725)
(2.93528e-05 0.000395624 0.000718651)
(4.02679e-05 0.000486732 0.000877385)
(5.56998e-05 0.000608339 0.00106889)
(7.70012e-05 0.000773467 0.00129534)
(0.00010526 0.000993382 0.00154963)
(0.000140738 0.00128403 0.00183199)
(0.000181404 0.0016545 0.00213616)
(0.000222127 0.00210514 0.00245473)
(0.000254303 0.00261335 0.00276077)
(0.000267398 0.00313435 0.00300883)
(0.000251954 0.00361219 0.00313456)
(0.000203208 0.0039986 0.00308837)
(0.000118224 0.00426411 0.00284775)
(-1.06676e-05 0.00435756 0.002381)
(-0.000122537 0.00416312 0.00190639)
(-0.000138358 0.00385256 0.00151324)
(-5.45754e-05 0.00358781 0.00109428)
(8.91673e-05 0.00352614 0.000572737)
(0.000233855 0.0037962 6.92829e-05)
(0.000341019 0.00439306 -0.000370151)
(0.000383919 0.00521282 -0.000757374)
(0.000344773 0.00609743 -0.0010919)
(0.000232175 0.00688087 -0.00139172)
(6.25777e-05 0.00737488 -0.00163425)
(-0.000143062 0.00742151 -0.00179127)
(-0.00035237 0.0069172 -0.00186357)
(-0.000529682 0.00584243 -0.00188436)
(-0.000640301 0.004285 -0.00196052)
(-0.000651604 0.00238346 -0.00267825)
(-0.000542144 -0.00110753 -0.0195058)
(-0.000346937 -0.00644075 -0.0587487)
(-0.0001492 -0.0125398 -0.0814481)
(-0.000309459 -0.0179308 -0.0687912)
(-0.00183286 -0.0362323 -0.0145439)
(-0.0108527 -0.21362 -9.77668e-05)
(-0.0376815 -0.50692 0.0114828)
(-0.0709725 -0.673281 0.0250452)
(-0.0902619 -0.744762 -0.0508607)
(-0.0646815 -0.68439 -0.535236)
(-0.018483 -0.384951 -0.89959)
(0.000576175 -0.237566 -0.969118)
(-0.145564 -0.175187 -0.973415)
(-0.880376 -0.0763939 -0.468004)
(-0.93837 -0.324865 0.117943)
(-0.173923 -0.949063 0.26273)
(-0.482325 -0.867491 0.121739)
(-0.969506 0.0948642 0.225962)
(-0.667734 0.512877 0.539525)
(-0.519349 0.853318 0.0460903)
(-8.52822e-05 0.000369767 0.000424009)
(-8.38904e-05 0.000464765 0.000536825)
(1.35005e-05 0.000492654 0.000500143)
(2.87067e-05 0.000556204 0.000486236)
(3.11267e-05 0.000624646 0.000471846)
(3.26272e-05 0.000688396 0.000446329)
(4.06251e-05 0.00076225 0.00042693)
(5.26424e-05 0.000857132 0.000414973)
(7.12162e-05 0.000985237 0.000421437)
(9.65157e-05 0.00115884 0.000451071)
(0.000127314 0.00139111 0.000504766)
(0.000164522 0.00168716 0.000574186)
(0.000207128 0.00206216 0.000647842)
(0.000254762 0.00252262 0.000698742)
(0.000305866 0.00308437 0.000695872)
(0.000360602 0.00374778 0.000591814)
(0.00041963 0.0045436 0.000366064)
(0.000477273 0.00547716 3.25961e-05)
(0.000518583 0.00652037 -0.000357067)
(0.000516922 0.00754827 -0.000788912)
(0.000444025 0.00839403 -0.00124884)
(0.000288522 0.00894165 -0.0017411)
(6.556e-05 0.00927188 -0.00220052)
(-0.000219116 0.00954833 -0.00265453)
(-0.000458357 0.00952318 -0.00342712)
(-0.000534378 0.00888182 -0.00410638)
(-0.000523388 0.0084377 -0.00429064)
(-0.000500881 0.00864165 -0.0034141)
(-0.000398257 0.00893539 -0.00304665)
(-0.000216183 0.00916026 -0.00297177)
(-5.53989e-05 0.00921657 -0.00297229)
(3.6445e-05 0.00908512 -0.00319768)
(3.88533e-05 0.00874239 -0.00349832)
(-2.91289e-05 0.00817382 -0.00376471)
(-0.00012918 0.00736287 -0.00390893)
(-0.000251714 0.00628025 -0.0038451)
(-0.000393968 0.0049055 -0.00371591)
(-0.000570665 0.00301369 -0.00504746)
(-0.00100611 0.000130704 -0.0108186)
(-0.00898501 -0.00145407 -0.0216737)
(-0.0277501 0.00855131 -0.034233)
(-0.0313338 0.0143056 -0.0449314)
(-0.0052635 -0.00660481 -0.0739236)
(0.0192723 -0.0997051 -0.434886)
(0.00558787 -0.174119 -0.815486)
(0.000519443 -0.199208 -0.887337)
(-0.00400929 -0.25584 -0.855273)
(-0.0535302 -0.452542 -0.701164)
(-0.258448 -0.729568 -0.44225)
(-0.308952 -0.638899 -0.682971)
(-0.271551 -0.527156 -0.803606)
(-0.215622 -0.536104 -0.815981)
(-0.166168 -0.541784 -0.823896)
(-0.149389 -0.519052 -0.841574)
(-0.030142 -0.701082 -0.712432)
(0.0615424 -0.744892 0.664327)
(-0.12035 -0.567122 0.814788)
(-0.498903 0.0194997 0.866438)
(-0.755585 -0.111919 0.645419)
(-0.674153 0.111659 0.730103)
(-6.66951e-05 0.000956423 0.000359076)
(-8.1413e-05 0.000939356 0.00032106)
(-1.80382e-05 0.00100091 0.000238356)
(-5.26177e-06 0.00108981 0.000140325)
(-9.1094e-06 0.00117667 3.04552e-05)
(-1.10122e-05 0.00126382 -0.000101513)
(-3.48e-06 0.00137285 -0.000281075)
(1.07452e-05 0.00150529 -0.00050444)
(3.37466e-05 0.00171841 -0.000621621)
(6.12347e-05 0.00199757 -0.000725851)
(8.70165e-05 0.00233802 -0.000864354)
(0.000105967 0.00274018 -0.00104158)
(0.000110319 0.00321809 -0.00126707)
(9.20546e-05 0.00376814 -0.00154301)
(4.27556e-05 0.00439747 -0.00187785)
(-3.14097e-05 0.0050762 -0.0022686)
(-0.000101281 0.00581976 -0.0027242)
(-0.000135837 0.0065564 -0.00323957)
(-0.000141825 0.0066601 -0.00534073)
(-0.000146245 0.00417986 -0.0153117)
(-0.000164448 -0.00501152 -0.0461749)
(-0.000172576 -0.0262639 -0.118915)
(-0.000175426 -0.0603444 -0.240805)
(-0.000301408 -0.0908238 -0.35472)
(-0.000417917 -0.105105 -0.409917)
(-0.000293817 -0.119739 -0.460718)
(8.44155e-05 -0.133357 -0.505623)
(0.000254306 -0.133689 -0.506207)
(0.000146782 -0.127711 -0.484878)
(0.000124128 -0.132342 -0.502086)
(0.000102265 -0.133217 -0.509807)
(5.28838e-05 -0.129924 -0.504311)
(2.33023e-05 -0.124624 -0.490951)
(2.6612e-06 -0.1191 -0.475937)
(-5.8585e-06 -0.11285 -0.457555)
(-5.07084e-05 -0.10384 -0.42899)
(-0.000592823 -0.0888456 -0.379588)
(-0.00270354 -0.0689849 -0.315877)
(-0.00647691 -0.0486226 -0.260199)
(-0.00954393 -0.0320964 -0.232479)
(-0.00999544 -0.0231986 -0.219281)
(-0.0175341 -0.0274464 -0.200339)
(-0.246014 -0.0846806 -0.150171)
(-0.660028 -0.161891 -0.213318)
(-0.610744 -0.168741 -0.577585)
(-0.108657 -0.216599 -0.894209)
(0.106514 -0.456238 -0.835309)
(0.0472344 -0.557466 -0.792152)
(-0.282264 -0.779866 -0.533376)
(-0.583472 -0.782444 -0.208379)
(-0.578933 -0.791205 -0.196017)
(-0.587049 -0.687252 -0.42776)
(-0.473287 -0.736193 -0.483728)
(-0.373891 -0.797561 -0.473378)
(-0.198256 -0.860251 -0.469739)
(-0.0520463 -0.784458 -0.617991)
(0.0674526 -0.697222 -0.713673)
(-0.904338 -0.330518 -0.270054)
(-0.983536 -0.0714209 0.165999)
(-0.417375 0.060411 0.906724)
(-0.000101682 0.00127996 -0.000200224)
(-0.000136387 0.00150868 -0.00042844)
(-6.57658e-05 0.00179071 -0.000695331)
(-6.35596e-05 0.00215458 -0.000746995)
(-7.74874e-05 0.0024398 -0.000771747)
(-0.000107927 0.0025131 -0.00125807)
(-0.000141227 0.00243784 -0.00232684)
(-9.7172e-05 0.00246383 -0.00363372)
(-1.90473e-05 0.00248913 -0.00548426)
(-2.14554e-07 0.00255795 -0.00833588)
(-2.5576e-07 0.00274932 -0.0120887)
(-2.98272e-07 0.00347262 -0.0156972)
(-3.40854e-07 0.00503487 -0.0185092)
(-3.83377e-07 0.00716428 -0.0211585)
(-4.27779e-07 0.00935369 -0.0249844)
(-5.12348e-07 0.0106318 -0.0348471)
(-7.17778e-07 0.00624734 -0.0655885)
(-0.000640392 -0.00933304 -0.13447)
(-0.00378038 -0.0517311 -0.28236)
(-0.00925825 -0.129354 -0.519589)
(-0.0129794 -0.207926 -0.741479)
(-0.0131662 -0.253281 -0.861158)
(-0.00949898 -0.273832 -0.912528)
(-0.00516778 -0.281418 -0.930484)
(-0.00342463 -0.283156 -0.935591)
(-0.00420904 -0.278279 -0.934132)
(-0.00254433 -0.2718 -0.932175)
(0.00118593 -0.275916 -0.930758)
(0.000237529 -0.273384 -0.930824)
(-0.00141641 -0.271378 -0.933147)
(-0.000100036 -0.27434 -0.93563)
(0.00089913 -0.276708 -0.936978)
(0.00125082 -0.278 -0.937181)
(0.0014728 -0.277125 -0.935698)
(0.00226095 -0.274297 -0.931635)
(0.00426261 -0.271195 -0.923876)
(0.00697774 -0.268407 -0.912214)
(0.00836548 -0.262839 -0.896073)
(0.00688113 -0.25013 -0.874794)
(0.00300225 -0.231568 -0.851281)
(-0.000522945 -0.213761 -0.838872)
(-0.000744302 -0.194641 -0.841932)
(-0.0335699 -0.20503 -0.851614)
(-0.200825 -0.263523 -0.829369)
(-0.530093 -0.574716 -0.452427)
(-0.236804 -0.937906 0.0516233)
(-0.0534389 -0.989196 0.0575479)
(-0.023617 -0.9945 0.0767393)
(-0.0404233 -0.994011 0.0936287)
(-0.138075 -0.984681 0.104215)
(-0.358555 -0.927118 0.108469)
(-0.388676 -0.911484 0.134494)
(-0.635594 -0.631367 0.444249)
(-0.689693 0.245147 0.681326)
(-0.766139 0.303895 0.566275)
(-0.344136 -0.893329 0.289018)
(0.0310849 -0.95056 -0.308978)
(-0.170284 -0.931818 -0.320496)
(-0.996755 -0.0695838 0.0404623)
(-0.360756 -0.534581 -0.76425)
(-0.000160611 0.00249857 -0.000905528)
(-0.000284188 0.00395458 -0.00139405)
(-0.000133401 0.00462788 -0.00634069)
(-1.00318e-05 0.0039702 -0.0181096)
(-0.000220289 0.000843131 -0.0397482)
(-0.000682773 -0.00530844 -0.0727553)
(-0.00100783 -0.0107432 -0.104413)
(-0.00128696 -0.0147296 -0.136377)
(-0.00182817 -0.0187851 -0.174698)
(-0.00240653 -0.0249395 -0.227475)
(-0.00244608 -0.0347199 -0.295346)
(-0.00182659 -0.0561591 -0.390691)
(-0.00125096 -0.0900789 -0.502453)
(-0.00113212 -0.134215 -0.621486)
(-0.00184842 -0.168286 -0.710607)
(-0.0040456 -0.197725 -0.785443)
(-0.0066803 -0.228291 -0.852975)
(-0.0095756 -0.256364 -0.902858)
(-0.013568 -0.275948 -0.930391)
(-0.0184239 -0.288003 -0.94322)
(-0.0217368 -0.294955 -0.94874)
(-0.0212028 -0.299672 -0.950916)
(-0.0156793 -0.302593 -0.951611)
(-0.0084353 -0.31197 -0.94922)
(-0.00118204 -0.330693 -0.942999)
(0.00440586 -0.337682 -0.940216)
(0.00570151 -0.325344 -0.943082)
(0.00201178 -0.337009 -0.936746)
(-0.00259247 -0.350421 -0.931852)
(-0.0137552 -0.318969 -0.942825)
(-0.0155183 -0.296358 -0.950486)
(-0.00729787 -0.297087 -0.951096)
(0.00267536 -0.300431 -0.950728)
(0.0116186 -0.300464 -0.951011)
(0.0164205 -0.300854 -0.950936)
(0.0167836 -0.303429 -0.950022)
(0.0153573 -0.305249 -0.949168)
(0.0149075 -0.305034 -0.94853)
(0.0134108 -0.303049 -0.948212)
(0.00965324 -0.299989 -0.947737)
(0.00350519 -0.297509 -0.947065)
(-0.0026572 -0.291813 -0.948383)
(-0.00797712 -0.286302 -0.950746)
(-0.00930686 -0.28374 -0.952034)
(-0.00891381 -0.293626 -0.947625)
(-0.0200493 -0.393863 -0.906856)
(-0.0332075 -0.725276 -0.671189)
(-0.0180809 -0.967858 -0.230453)
(-0.0333861 -0.997409 0.0133785)
(-0.154303 -0.97596 0.149094)
(-0.380966 -0.885753 0.264349)
(-0.290792 -0.710205 0.641036)
(-0.144486 -0.104142 0.983977)
(-0.040379 0.374093 0.926493)
(-0.141838 0.415102 0.898643)
(-0.614196 0.305839 0.727476)
(-0.289508 -0.184758 0.939173)
(-0.260103 -0.95959 0.107382)
(-0.991493 -0.0875648 -0.0963018)
(-0.629982 -0.373425 -0.680938)
(-0.000236917 -0.00203105 -0.0209381)
(-0.00233231 -0.0198935 -0.108906)
(-0.00612079 -0.0493847 -0.252526)
(-0.00963227 -0.0826421 -0.427925)
(-0.0131113 -0.0992373 -0.544103)
(-0.0136907 -0.102489 -0.619614)
(-0.0121678 -0.106784 -0.679151)
(-0.0116278 -0.119688 -0.740245)
(-0.0129972 -0.135811 -0.793221)
(-0.0144289 -0.158256 -0.842654)
(-0.0156801 -0.191238 -0.887417)
(-0.016831 -0.229106 -0.914457)
(-0.018805 -0.270911 -0.924491)
(-0.0209649 -0.284295 -0.930503)
(-0.0231777 -0.301894 -0.932427)
(-0.0338723 -0.341604 -0.923289)
(-0.0536015 -0.358324 -0.920858)
(-0.0743082 -0.359611 -0.923372)
(-0.0815009 -0.367547 -0.923109)
(-0.0935805 -0.401987 -0.909099)
(-0.126286 -0.494803 -0.858683)
(-0.152496 -0.680174 -0.716247)
(-0.0961698 -0.875779 -0.472545)
(-0.0270282 -0.950729 -0.308559)
(0.00595349 -0.969034 -0.24664)
(0.025612 -0.975531 -0.218115)
(0.0395376 -0.978465 -0.202064)
(0.0637068 -0.890553 -0.448854)
(0.00285802 -0.566839 -0.822025)
(-0.0083404 -0.539175 -0.84037)
(-0.0457521 -0.48925 -0.86917)
(-0.0714344 -0.390953 -0.916055)
(-0.0588897 -0.362034 -0.929005)
(-0.0281965 -0.362883 -0.930369)
(-0.00146872 -0.362499 -0.931092)
(0.0177497 -0.352664 -0.934806)
(0.0288418 -0.350478 -0.935507)
(0.0280681 -0.335717 -0.941041)
(0.022583 -0.329278 -0.943509)
(0.0155556 -0.336442 -0.941169)
(0.00773886 -0.343925 -0.938528)
(-0.00121764 -0.342704 -0.938924)
(-0.00543305 -0.300407 -0.953294)
(0.00195902 -0.272053 -0.961897)
(0.00918494 -0.266779 -0.963334)
(0.00887185 -0.288254 -0.957036)
(-6.64338e-05 -0.306859 -0.951119)
(-0.00375249 -0.312343 -0.94935)
(-0.00155314 -0.350164 -0.936153)
(-0.0936256 -0.371806 -0.923064)
(-0.51074 -0.415588 -0.752046)
(-0.683121 -0.369828 -0.629553)
(-0.168852 -0.351529 -0.920807)
(-0.0247004 -0.143946 -0.989261)
(0.305046 0.879048 -0.366287)
(0.0176378 0.891153 0.453343)
(-0.205934 0.482756 0.851196)
(-0.999087 0.0156524 0.0397425)
(-0.778542 -0.416221 -0.469715)
(-0.959821 -0.278613 0.0334465)
(-0.047826 0.000492139 -0.0297626)
(-0.121937 0.0132024 -0.201768)
(-0.170328 0.0800889 -0.425061)
(-0.167168 0.18857 -0.565177)
(-0.151303 0.318695 -0.564654)
(-0.154159 0.526004 -0.396907)
(-0.179475 0.698667 -0.0376445)
(-0.21896 0.735244 -0.0429132)
(-0.288271 0.749657 -0.0506328)
(-0.436791 0.718795 -0.0611126)
(-0.598087 0.642931 -0.0816822)
(-0.69096 0.587461 -0.104618)
(-0.677817 0.618726 -0.139042)
(-0.0245498 -0.966775 -0.245644)
(-0.00642987 -0.967965 -0.249134)
(-0.0099881 -0.910196 -0.412899)
(-0.0315963 -0.51468 -0.855945)
(-0.0610588 -0.334318 -0.939877)
(-0.0683964 -0.318134 -0.945241)
(-0.0584221 -0.34701 -0.935846)
(-0.0514614 -0.466319 -0.88298)
(-0.0594702 -0.801083 -0.595463)
(-0.044478 -0.996484 -0.0706501)
(-0.0175168 -0.993763 0.110058)
(-0.00288429 -0.990609 0.136664)
(0.00758997 -0.991917 0.126629)
(0.0169714 -0.992793 0.118581)
(0.0383961 -0.995547 0.0857411)
(0.0576305 -0.835167 -0.546)
(-0.00276986 -0.374329 -0.926578)
(-0.0174058 -0.429167 -0.90247)
(-0.0500642 -0.369305 -0.927413)
(-0.0795546 -0.188192 -0.978405)
(-0.0687928 -0.103814 -0.991813)
(-0.0531029 -0.0920296 -0.994)
(-0.0979894 -0.241323 -0.965065)
(-0.0879807 -0.948196 -0.304423)
(-0.0555341 -0.810631 -0.582591)
(-0.0142589 -0.389259 -0.920953)
(-0.00255819 -0.244238 -0.969651)
(0.0157317 -0.176345 -0.984142)
(0.0137687 -0.163508 -0.986353)
(-0.0322801 -0.23496 -0.971369)
(-0.0256198 -0.207112 -0.977899)
(0.0173184 -0.158999 -0.987058)
(0.0361376 -0.152156 -0.987626)
(0.0155506 -0.167056 -0.985756)
(-0.0100322 -0.185439 -0.982541)
(-0.0108016 -0.203451 -0.978966)
(-0.009336 -0.207452 -0.97814)
(-0.226572 -0.206985 -0.951678)
(-0.966921 -0.133391 -0.217284)
(-0.958932 -0.282508 -0.0240551)
(0.587024 0.7818 0.210081)
(0.592266 0.799823 0.097318)
(0.477545 0.8659 -0.148617)
(-0.981639 0.177917 -0.0686988)
(-0.997284 -0.0328822 -0.0659019)
(-0.479375 -0.659994 -0.578452)
(-0.980655 -0.170202 -0.0966776)
(-0.105751 0.0131226 0.0139875)
(-0.271526 0.122672 0.0614312)
(-0.288015 0.436968 0.112464)
(-0.108499 0.734701 0.136913)
(0.0284425 0.803169 0.168588)
(0.155546 0.761838 0.249559)
(0.00181338 -0.966475 0.247026)
(0.000354734 -0.969854 0.241089)
(0.000354004 -0.9695 0.244046)
(0.000358231 -0.980808 0.19443)
(0.000359873 -0.985342 0.170359)
(0.000356199 -0.97691 0.21359)
(-0.000226863 -0.969436 0.245321)
(-0.00168188 -0.968869 0.247551)
(-0.00175044 -0.968841 0.247659)
(-0.000447344 -0.970432 0.241355)
(-0.00137625 -0.977301 0.211823)
(-0.0199188 -0.981822 -0.188641)
(-0.0288223 -0.16788 -0.985371)
(-0.0130265 -0.115483 -0.993219)
(-0.00576191 -0.116628 -0.993156)
(-0.00286902 -0.164497 -0.986371)
(-0.00098103 -0.41666 -0.909059)
(-0.00223551 -0.967512 -0.252808)
(-0.00217535 -0.992572 0.121628)
(0.00126626 -0.985399 0.170248)
(0.00924167 -0.987128 0.159655)
(0.0271424 -0.999442 -0.0192018)
(0.0258415 -0.407043 -0.913014)
(-0.0106883 -0.0829308 -0.996459)
(-0.0187377 -0.0726094 -0.997116)
(-0.0232971 -0.0135863 -0.999501)
(-0.0547369 0.148228 -0.987276)
(-0.0758386 0.114056 -0.990422)
(0.0028738 -0.0306702 -0.999398)
(0.0609657 -0.158572 -0.985359)
(-0.0665709 -0.177059 -0.98184)
(-0.631658 -0.169606 -0.756354)
(-0.557464 -0.251898 -0.790959)
(-0.0248618 -0.228286 -0.973187)
(0.214099 -0.0839077 -0.973131)
(0.190698 -0.0364309 -0.980915)
(-0.0340213 -0.111824 -0.9931)
(-0.0796897 -0.112922 -0.990367)
(-0.0330294 -0.0966661 -0.994741)
(-0.00268296 -0.0823181 -0.99658)
(-0.0121896 -0.0435493 -0.998958)
(-0.0181482 0.0173056 -0.999669)
(-0.00735048 0.0678224 -0.997654)
(0.0175197 0.129368 -0.991423)
(0.10205 0.325413 -0.94002)
(0.182576 0.97149 -0.150897)
(-0.00382716 0.479756 0.877374)
(0.0167631 0.391849 0.919859)
(0.203062 -0.129663 0.970458)
(-0.166252 -0.85746 -0.486914)
(-0.979061 -0.172742 -0.107688)
(-0.989728 -0.127451 -0.0647599)
(-0.615789 -0.595475 -0.515959)
(-0.714568 0.392431 -0.57913)
(0.000730808 -0.920732 -0.390183)
(0.000730864 -0.920816 -0.389982)
(0.000730921 -0.920902 -0.389782)
(0.000730979 -0.920987 -0.389581)
(0.000731039 -0.921071 -0.389385)
(0.000731096 -0.921155 -0.38919)
(0.000728272 -0.920881 -0.389841)
(0.000730588 -0.920206 -0.391431)
(0.000387462 -0.918802 -0.394716)
(-0.000596158 -0.917263 -0.39828)
(-1.33376e-05 -0.917355 -0.398069)
(0.00102141 -0.918412 -0.395623)
(0.0011372 -0.918993 -0.394272)
(0.000732739 -0.920875 -0.389857)
(-0.00117786 -0.921992 -0.387203)
(-0.0179214 -0.918934 -0.39399)
(-0.046341 -0.91296 -0.405397)
(-0.0722188 -0.910271 -0.40766)
(-0.0630187 -0.910598 -0.408459)
(-0.0295624 -0.912609 -0.407763)
(-0.00896456 -0.911824 -0.410483)
(-0.000441684 -0.904603 -0.426255)
(0.00882543 -0.898563 -0.438756)
(0.020308 -0.893569 -0.448465)
(0.0158531 -0.907462 -0.419835)
(0.00780241 -0.91428 -0.405008)
(0.00576225 -0.915152 -0.403068)
(0.0052009 -0.914547 -0.404445)
(0.0045533 -0.913867 -0.405987)
(0.0043198 -0.913337 -0.407182)
(0.00393779 -0.913425 -0.406986)
(0.00245772 -0.914856 -0.403772)
(0.000833195 -0.91777 -0.39711)
(-0.000677516 -0.920817 -0.38999)
(-0.00526493 -0.920108 -0.391623)
(-0.00558049 -0.914743 -0.403986)
(0.000508606 -0.907833 -0.41932)
(0.000177563 -0.904856 -0.425707)
(-0.00471942 -0.921434 -0.388495)
(-0.0073773 -0.916926 -0.39898)
(-0.00617852 -0.914099 -0.405438)
(-0.00478319 -0.91162 -0.411003)
(-0.00395943 -0.915013 -0.403403)
(-0.00283523 -0.918677 -0.394997)
(-0.0017576 -0.920948 -0.389681)
(-0.00133402 -0.921639 -0.388045)
(-0.00115279 -0.921732 -0.387824)
(-0.000186419 -0.921894 -0.387442)
(0.00161556 -0.922289 -0.386497)
(0.00410202 -0.922912 -0.384987)
(0.0067312 -0.924141 -0.381991)
(0.00530708 -0.925266 -0.379282)
(0.000789858 -0.925187 -0.379509)
(-0.00103727 -0.923924 -0.382574)
(-0.00298417 -0.922384 -0.386263)
(-0.00962925 -0.920052 -0.391677)
(-0.429418 -0.827798 -0.361039)
(-0.821333 -0.508469 -0.258595)
(-0.778446 -0.594367 -0.201867)
(-0.927421 -0.218004 -0.303914)
(0.000674932 -0.973611 -0.228206)
(0.000674903 -0.97348 -0.228767)
(0.000674871 -0.973348 -0.229326)
(0.000674839 -0.973217 -0.229885)
(0.000674806 -0.973085 -0.230443)
(0.000194114 -0.972952 -0.231003)
(-0.000513169 -0.972842 -0.231468)
(-0.000724502 -0.972741 -0.23189)
(-0.00115614 -0.972645 -0.232291)
(-0.00250361 -0.972569 -0.232598)
(-0.00301129 -0.97235 -0.233508)
(-0.000103935 -0.971907 -0.235365)
(0.00250412 -0.971849 -0.235592)
(0.00287823 -0.971883 -0.235447)
(0.0011484 -0.971737 -0.236061)
(-0.00258274 -0.972021 -0.234877)
(-0.0209616 -0.975818 -0.217562)
(-0.0651204 -0.980097 -0.18752)
(-0.131585 -0.972098 -0.194186)
(-0.112271 -0.953943 -0.278185)
(-0.0390561 -0.952985 -0.300488)
(-0.00887281 -0.951887 -0.30632)
(0.00814113 -0.950477 -0.310688)
(0.0239116 -0.948239 -0.316657)
(0.028815 -0.95735 -0.28749)
(0.0104186 -0.967916 -0.251056)
(0.00374127 -0.969715 -0.244211)
(0.0024347 -0.97001 -0.243054)
(0.00181817 -0.969915 -0.243437)
(0.0020121 -0.969528 -0.244972)
(0.00334849 -0.969054 -0.246824)
(0.00522615 -0.968735 -0.24804)
(0.00564828 -0.968804 -0.247764)
(0.00353471 -0.968974 -0.247135)
(0.000994994 -0.96896 -0.247216)
(-0.000718864 -0.968912 -0.247404)
(-0.00428587 -0.968137 -0.250379)
(-0.00732021 -0.967658 -0.252151)
(-0.00846871 -0.96859 -0.248514)
(-0.00978102 -0.969716 -0.244032)
(-0.00837915 -0.970066 -0.242692)
(-0.0047119 -0.969679 -0.244333)
(-0.00158897 -0.969027 -0.246947)
(-5.31652e-05 -0.968555 -0.248799)
(0.00040613 -0.968366 -0.249532)
(0.000487405 -0.968391 -0.249435)
(0.000539383 -0.968465 -0.249147)
(0.000843359 -0.968458 -0.249175)
(0.00148178 -0.968184 -0.250235)
(0.00248366 -0.967671 -0.252204)
(0.00330337 -0.967027 -0.254653)
(0.00230347 -0.966421 -0.256952)
(-0.000762316 -0.966409 -0.257008)
(-0.00328354 -0.965984 -0.25858)
(-0.00343469 -0.965962 -0.258661)
(-0.00628522 -0.967282 -0.253624)
(-0.350866 -0.907911 -0.229326)
(-0.757552 -0.625248 -0.187562)
(-0.757055 -0.647119 -0.090028)
(-0.948365 -0.290649 0.126988)
(0.000240415 -0.982003 -0.188854)
(0.000240527 -0.9818 -0.189911)
(0.000240629 -0.981592 -0.190983)
(0.000240732 -0.981382 -0.192061)
(0.000240825 -0.98118 -0.193092)
(0.000240918 -0.980986 -0.194077)
(0.000241019 -0.980924 -0.194386)
(0.000241115 -0.981116 -0.193419)
(3.65241e-05 -0.981499 -0.191464)
(-0.00127087 -0.981856 -0.189622)
(-0.00225636 -0.981494 -0.191479)
(-0.0001967 -0.980727 -0.19538)
(0.000931978 -0.980173 -0.198143)
(0.000877295 -0.97948 -0.20154)
(0.000283381 -0.979117 -0.203298)
(6.82967e-05 -0.980226 -0.197871)
(-0.256998 -0.120867 0.958669)
(-0.813048 -0.0555541 0.579477)
(-0.866672 -0.453752 0.207313)
(-0.514499 -0.857233 0.0209813)
(-0.106893 -0.984649 -0.137985)
(-0.0161517 -0.982309 -0.186568)
(0.00912047 -0.956727 -0.290846)
(0.0307343 -0.890514 -0.453916)
(0.0560859 -0.7487 -0.660532)
(0.0275192 -0.881391 -0.471585)
(0.00735984 -0.971226 -0.238047)
(0.00345403 -0.979255 -0.202601)
(0.00166605 -0.979153 -0.203117)
(0.000691765 -0.978969 -0.204007)
(0.000912146 -0.97839 -0.206764)
(0.00184086 -0.977374 -0.211511)
(0.0023222 -0.976043 -0.217565)
(0.00149041 -0.975131 -0.221622)
(0.00029245 -0.974831 -0.222943)
(-0.000937329 -0.973301 -0.229529)
(-0.00321172 -0.968706 -0.248181)
(0.00494444 -0.972341 -0.233478)
(0.0125576 -0.997266 -0.0727031)
(0.00121222 -0.998293 -0.0582705)
(-0.00355085 -0.991883 -0.127076)
(-0.00221623 -0.983596 -0.180364)
(-0.00094507 -0.974178 -0.225778)
(-0.000359217 -0.9727 -0.232065)
(-0.0002403 -0.972458 -0.233075)
(-0.000307721 -0.972855 -0.231416)
(-0.000365427 -0.97384 -0.227234)
(-0.000293289 -0.973687 -0.227888)
(-1.3585e-05 -0.973132 -0.230248)
(0.000681378 -0.97269 -0.232105)
(0.0020435 -0.97196 -0.235136)
(0.00267331 -0.970626 -0.240577)
(0.000341524 -0.969789 -0.243944)
(-0.00252037 -0.970169 -0.242417)
(-0.000138929 -0.971576 -0.236726)
(-0.00111649 -0.973121 -0.230289)
(-0.429582 -0.880634 -0.199853)
(-0.71202 -0.687272 -0.143824)
(-0.748156 -0.636911 -0.186031)
(-0.659635 0.66968 0.341189)
(-0.236864 0.667278 -0.362397)
(-0.739862 0.227119 -0.544224)
(-0.398999 -0.0627748 -0.902599)
(-0.0368889 -0.795782 -0.602393)
(0.0248767 -0.816955 -0.574857)
(0.0437351 -0.744994 -0.664095)
(0.00298447 -0.718689 -0.694331)
(7.98391e-05 -0.794542 -0.606814)
(-0.00195593 -0.845255 -0.534206)
(-0.00520432 -0.886205 -0.463212)
(-0.00337152 -0.906883 -0.421355)
(-0.000527678 -0.912789 -0.408425)
(0.000576993 -0.90659 -0.422006)
(0.000471898 -0.894412 -0.447237)
(-0.000529635 -0.848533 -0.529119)
(-0.0123419 0.0160957 -0.999746)
(-0.0210386 0.0336603 -0.999174)
(-0.0848129 0.000104751 -0.996338)
(-0.06954 -0.435375 0.897537)
(-0.0445376 -0.33495 0.94118)
(-0.14584 -0.320683 0.935891)
(-0.615045 -0.291695 0.732552)
(-0.872387 -0.448319 0.194809)
(-0.0431541 -0.768101 -0.638872)
(0.0512547 -0.73434 -0.676844)
(0.079796 -0.737936 -0.670137)
(0.101299 -0.759937 -0.642055)
(0.103697 -0.832225 -0.544654)
(0.00214698 -0.950661 -0.310216)
(-0.00779352 -0.944476 -0.328482)
(-0.0093117 -0.941015 -0.338231)
(-0.00133224 -0.934257 -0.356591)
(0.00963424 -0.921776 -0.387596)
(0.0131619 -0.913317 -0.407025)
(-0.0893696 -0.936622 -0.338712)
(-0.70115 -0.640958 -0.312137)
(-0.0183178 -0.460626 -0.887288)
(0.641933 -0.522288 -0.561257)
(0.264393 -0.921691 -0.283751)
(0.0172744 -0.967072 -0.253836)
(-0.0240766 -0.939136 -0.342628)
(-0.665982 -0.619876 -0.414912)
(-0.96668 -0.0334728 -0.253639)
(-0.244441 -0.567822 -0.785975)
(0.156186 -0.508836 -0.846554)
(0.497625 -0.702021 -0.509401)
(0.292139 -0.955137 0.0482051)
(-0.067416 -0.98231 0.174576)
(0.00151961 -0.997106 0.0756852)
(0.151182 -0.987822 0.0361446)
(0.0900874 -0.989918 0.109097)
(-0.0856797 -0.952208 -0.293092)
(-0.161268 -0.494396 -0.854117)
(-0.0407188 -0.63782 -0.769071)
(0.116325 -0.951516 -0.284703)
(-0.0109569 -0.93683 -0.349597)
(-0.973337 -0.211013 -0.0899257)
(-0.90971 -0.399089 -0.1147)
(-0.754101 -0.644708 -0.125236)
(-0.313133 0.75566 0.575262)
(-0.471893 0.761865 0.125402)
(-0.846378 0.483409 0.0579537)
(-0.813622 0.361926 0.429471)
(-0.108487 -0.987977 -0.0971305)
(-0.0731163 -0.99618 -0.0237995)
(-0.148778 -0.746483 -0.647134)
(-0.179274 -0.638505 -0.747748)
(-0.126963 -0.891365 -0.434579)
(-0.0397075 -0.99816 -0.0437874)
(0.00523884 -0.9738 0.227237)
(0.00386793 -0.940496 0.339765)
(0.000551159 -0.938569 0.345084)
(-0.0022983 -0.985761 0.168126)
(-0.0108892 -0.895474 -0.444976)
(-0.0129953 -0.374736 -0.927039)
(-0.00911357 -0.280349 -0.959854)
(-0.000307363 -0.275629 -0.961263)
(0.0251974 -0.266947 -0.96338)
(0.128735 -0.367075 -0.921226)
(-0.0243534 -0.863261 0.504094)
(-0.352237 -0.646324 0.676886)
(-0.586802 -0.362323 0.724143)
(-0.579666 -0.338302 0.741309)
(-0.336957 -0.727439 0.59774)
(-0.068342 -0.997381 0.0236772)
(0.163224 -0.855447 -0.491496)
(0.27412 -0.648657 -0.710001)
(0.39693 -0.508937 -0.763826)
(0.37351 -0.895332 -0.242625)
(0.00199243 -0.938195 0.346095)
(-0.00255737 -0.934473 0.35602)
(-0.00311336 -0.933207 0.359321)
(0.00156406 -0.936934 0.349496)
(0.00809574 -0.946769 0.321797)
(-0.057362 -0.956071 0.287423)
(-0.551929 -0.559798 0.617983)
(-0.378019 -0.177683 0.908517)
(0.665174 -0.50454 0.550236)
(0.401223 -0.915792 0.0163852)
(0.0784919 -0.980449 0.180329)
(-0.0208398 -0.980192 0.19683)
(-0.0379095 -0.947724 0.316706)
(-0.231785 -0.575202 0.78446)
(-0.384838 -0.535354 0.75184)
(-0.0467863 -0.610786 0.790387)
(0.42621 -0.76829 0.477535)
(0.245606 -0.964762 0.0942014)
(-0.137197 -0.982883 0.122743)
(-0.197641 -0.97992 -0.0252641)
(0.0798961 -0.892951 -0.442957)
(0.104943 -0.88633 -0.450962)
(-0.223188 -0.946584 -0.232623)
(-0.282144 -0.567467 -0.773507)
(0.137235 0.14416 -0.979974)
(0.251195 -0.842951 -0.475706)
(-0.0268212 -0.974488 0.222804)
(-0.971012 -0.230308 0.0639714)
(-0.901966 -0.41495 0.119469)
(-0.648687 -0.75381 0.104761)
(-0.430744 0.889749 0.151019)
(-0.000107424 -0.982561 0.185925)
(-0.000108318 -0.982508 0.186202)
(-0.000536883 -0.982486 0.186323)
(-0.000557695 -0.982738 0.184994)
(-0.000470456 -0.982895 0.184158)
(-0.000820733 -0.983124 0.182931)
(-0.00122284 -0.98346 0.181117)
(-0.0018877 -0.984391 0.175976)
(-0.00330578 -0.985541 0.169398)
(-0.0058964 -0.986709 0.162381)
(-0.00906463 -0.986939 0.160833)
(-0.0129996 -0.987563 0.156687)
(-0.0173043 -0.991737 0.127112)
(-0.0250637 -0.999672 -0.00517647)
(-0.0246432 -0.965965 -0.257497)
(-0.00617279 -0.935393 -0.353555)
(0.0445168 -0.894948 -0.443944)
(0.181408 -0.879793 -0.43938)
(0.460142 -0.858495 -0.226388)
(0.619797 -0.780116 -0.0850322)
(-0.258775 -0.745586 -0.613882)
(-0.508565 0.471284 0.720574)
(-0.644735 0.367763 0.670124)
(-0.733541 0.0712818 0.675896)
(-0.36269 -0.756965 0.543563)
(4.93469e-05 -0.968108 0.250535)
(0.22595 -0.9725 -0.0564822)
(0.295288 -0.926832 -0.231921)
(0.261266 -0.916621 -0.302566)
(0.0191095 -0.989393 0.143997)
(-6.52565e-05 -0.981776 0.190041)
(0.000192385 -0.981515 0.191385)
(0.000702154 -0.981424 0.191849)
(0.0013622 -0.981433 0.191798)
(0.00140466 -0.98167 0.190581)
(0.000422039 -0.98187 0.189553)
(-0.00194859 -0.98091 0.19445)
(-0.00721448 -0.966861 0.255186)
(-0.005302 -0.952743 0.303698)
(-0.0117488 -0.978354 0.20656)
(-0.00688655 -0.980057 0.198572)
(-0.00163931 -0.981415 0.191882)
(-0.00122864 -0.981873 0.189531)
(-0.00155145 -0.980562 0.196202)
(-0.000817783 -0.979696 0.200488)
(-0.000121499 -0.980828 0.194872)
(-8.75575e-05 -0.98163 0.190792)
(-0.000781851 -0.981279 0.19259)
(-0.00194814 -0.980715 0.195433)
(-0.000889545 -0.9806 0.196015)
(0.00182352 -0.980948 0.194258)
(-0.00063584 -0.981061 0.193695)
(-0.0138418 -0.981802 0.189399)
(-0.00509248 -0.985831 0.167662)
(0.00665849 -0.984118 0.17739)
(-0.000721434 -0.981971 0.18903)
(-0.37112 -0.912515 0.172005)
(-0.684185 -0.716204 0.137633)
(-0.647625 -0.740745 0.178544)
(-0.144897 0.960477 -0.237673)
(-0.000181121 -0.975761 0.218768)
(-0.00136758 -0.975827 0.218459)
(-0.0132425 -0.975789 0.218203)
(-0.0368788 -0.978737 0.201576)
(-0.123198 -0.989725 -0.0709657)
(-0.360779 -0.321732 -0.875177)
(-0.443314 -0.135342 -0.885946)
(-0.424066 -0.17164 -0.889115)
(-0.115112 -0.990941 -0.0689039)
(-0.0466259 -0.993499 0.10382)
(-0.042633 -0.992533 0.114271)
(-0.0820828 -0.994707 0.0618108)
(-0.173244 -0.983208 0.0573331)
(-0.1162 -0.978576 0.169961)
(-0.031291 -0.978364 0.204509)
(0.0158021 -0.976306 0.215818)
(0.0425158 -0.974876 0.218653)
(0.0738543 -0.972567 0.220589)
(0.102726 -0.970597 0.21769)
(0.0750992 -0.974424 0.211792)
(-0.00803426 -0.982307 0.187086)
(-0.0892273 -0.990288 0.106589)
(-0.349803 -0.928682 0.123211)
(-0.390072 0.0334704 0.920175)
(-0.209332 0.181585 0.960837)
(-0.238193 -0.322913 0.915965)
(-0.0475539 -0.887185 0.458958)
(0.125661 -0.966637 0.223208)
(0.305031 -0.940357 0.150614)
(0.466599 -0.870409 0.157081)
(0.0488318 -0.976254 0.211051)
(0.000833556 -0.978042 0.208406)
(-9.52584e-05 -0.979349 0.202174)
(-0.00135547 -0.980148 0.198259)
(-0.00393339 -0.980881 0.194566)
(-0.00367658 -0.980418 0.196888)
(0.0295675 -0.977326 0.209646)
(0.30486 -0.880056 0.364012)