/*--------------------------------*- C++ -*----------------------------------*\
| =========                 |                                                 |
| \\      /  F ield         | OpenFOAM: The Open Source CFD Toolbox           |
|  \\    /   O peration     | Version:  2.1.1                                 |
|   \\  /    A nd           | Web:      www.OpenFOAM.org                      |
|    \\/     M anipulation  |                                                 |
\*---------------------------------------------------------------------------*/
FoamFile
{
    version     2.0;
    format      ascii;
    class       volScalarField;
    location    "0.00145";
    object      k;
}
// * * * * * * * * * * * * * * * * * * * * * * * * * * * * * * * * * * * * * //

dimensions      [0 2 -2 0 0 0 0];

internalField   nonuniform List<scalar> 
36520
(
0.160316
0.258773
0.499671
0.626946
0.737704
0.822211
0.899201
0.968307
1.03212
1.08919
1.13815
1.18076
1.21747
1.25253
1.28522
1.31827
1.34824
1.37196
1.38291
1.37621
1.34809
1.29663
1.22162
1.12645
1.01975
0.921754
0.839027
0.77284
0.719567
0.674334
0.632173
0.590217
0.546255
0.502127
0.460878
0.423837
0.392183
0.367302
0.350663
0.344434
0.350931
0.373386
0.415803
0.481281
0.572401
0.691451
0.837199
0.999484
1.15741
1.29932
1.50464
1.96673
2.77537
3.70198
4.10506
4.03669
3.53972
2.62421
0.824454
0.515712
0.116235
0.172045
0.215422
0.21909
0.225579
0.229492
0.237319
0.24276
0.247255
0.247685
0.246085
0.24336
0.243002
0.24466
0.24877
0.252137
0.2516
0.243299
0.225987
0.200405
0.169179
0.137987
0.11227
0.101139
0.101116
0.0845013
0.0639934
0.052979
0.0479506
0.0444385
0.0413035
0.0384648
0.0360448
0.0340904
0.0327737
0.0322643
0.0325229
0.0334039
0.0354236
0.0395791
0.0472643
0.0601926
0.0802666
0.109095
0.148966
0.203993
0.280083
0.387445
0.545489
0.768462
1.10293
1.62904
2.41202
3.3798
4.3837
6.69032
5.98466
4.45077
0.781942
0.482826
0.0601609
0.0582
0.0641222
0.0575994
0.0545183
0.0518373
0.0518115
0.0510756
0.0506468
0.0488809
0.0471336
0.045836
0.0464049
0.0491393
0.0545628
0.0624803
0.0733432
0.0881993
0.110045
0.142994
0.190758
0.254553
0.333193
0.424127
0.467896
0.338495
0.155899
0.0529935
0.0203766
0.0109492
0.00767971
0.00636915
0.00582603
0.00563018
0.00569384
0.00607219
0.00684678
0.0080536
0.00984065
0.0126067
0.0169775
0.0238969
0.034718
0.05138
0.077103
0.117705
0.183254
0.291248
0.471584
0.773733
1.26481
1.89813
2.63542
2.8754
2.51544
2.53853
2.36998
2.87203
0.875975
0.449182
0.0316077
0.0199485
0.0182516
0.0148138
0.0134846
0.012807
0.0134385
0.0145685
0.0169425
0.0208598
0.0280278
0.0404204
0.0611606
0.0946256
0.148114
0.232098
0.363837
0.567891
0.874357
1.30407
1.8483
2.44364
2.97742
3.3498
3.29735
2.41303
1.2631
0.509581
0.217258
0.118322
0.0790631
0.0600378
0.048363
0.0386255
0.0295898
0.0217821
0.0170957
0.0155548
0.016115
0.01739
0.0192979
0.0224784
0.02801
0.037707
0.0543298
0.0817396
0.128051
0.208688
0.349661
0.582527
0.94141
1.59904
2.14073
2.07303
1.65447
1.33456
1.11894
1.2755
0.690364
0.413651
0.0199765
0.00784785
0.00701129
0.00716232
0.00932502
0.013643
0.0214009
0.0348436
0.0584017
0.0995478
0.169565
0.282446
0.451954
0.696248
1.04727
1.54838
2.27623
3.34181
4.85729
6.90594
9.46168
12.2835
14.7226
15.6993
14.529
11.0942
6.74624
3.4142
1.84295
1.23222
0.968998
0.83322
0.744722
0.666146
0.581591
0.481531
0.396558
0.335929
0.308853
0.31291
0.301209
0.257133
0.174248
0.0838696
0.0643322
0.0719015
0.0945435
0.136328
0.211081
0.336279
0.524481
0.822289
1.0273
0.974588
0.89759
0.791975
0.661507
0.665695
0.492298
0.378443
0.0182059
0.00871925
0.0139088
0.0239803
0.0413922
0.0727725
0.126609
0.220308
0.382367
0.654283
1.08079
1.681
2.41699
3.2511
4.2063
5.37241
6.93724
9.13149
12.1239
15.9509
20.6179
26.0502
31.7044
34.9958
33.6817
28.965
21.4377
13.702
9.0133
6.81952
5.73731
5.12577
4.75278
4.53222
4.40914
4.22926
4.0465
3.84513
3.70399
3.70971
3.59971
3.33903
2.80202
1.94626
1.40198
1.09543
0.876253
0.617295
0.401859
0.301013
0.352346
0.456291
0.510023
0.520146
0.628538
0.755711
0.579106
0.434792
0.380071
0.330375
0.0348074
0.0366733
0.072607
0.134823
0.231182
0.39652
0.66011
1.08516
1.76311
2.80841
4.25874
6.04582
7.83495
9.36403
10.747
12.091
13.8442
16.6078
19.9521
23.6519
27.314
30.9747
34.9601
38.6453
39.896
38.0797
33.7063
27.8424
22.1472
18.1435
15.5098
13.6055
12.1258
11.0612
10.5279
10.3734
10.4996
10.7425
10.948
11.1795
11.3497
11.2152
10.9853
9.70577
7.83172
6.2537
5.09554
4.05242
3.02801
2.13332
1.53373
1.13343
0.900706
0.824524
0.925516
1.11398
0.72263
0.373191
0.333221
0.298999
0.101586
0.151099
0.313548
0.594041
0.963111
1.53584
2.27474
3.29418
4.65628
6.65684
8.77456
10.6575
12.2036
13.7007
15.3034
16.8492
18.3594
20.0056
21.8399
23.4874
24.8293
26.0374
27.4302
29.3874
31.4889
32.4264
31.5182
29.5373
27.8744
26.4533
24.6616
22.3138
19.7289
17.4278
15.7567
14.7744
14.306
14.2093
14.3089
14.5988
15.0231
15.2983
15.3897
15.1699
14.0481
12.031
9.73414
7.60015
5.77147
4.34661
3.28586
2.48875
1.92762
1.67252
1.6737
1.7866
1.12783
0.510419
0.342464
0.28027
0.204665
0.538011
1.3535
2.4315
3.39005
4.96734
6.02941
6.92923
7.72266
8.58856
9.60126
10.5399
11.0777
11.2255
11.5258
12.1444
12.6963
13.0844
13.5324
14.2696
15.2242
16.24
17.2122
17.9512
18.5342
19.2618
19.9104
20.1138
20.1271
20.2936
20.6419
20.9757
20.6407
19.2197
17.4244
16.0084
15.0793
14.5142
14.1214
13.8073
13.5706
13.3568
13.1288
12.8918
12.488
11.7388
10.5668
9.11184
7.54606
5.99902
4.54784
3.31934
2.44726
1.99184
1.80388
1.75246
1.32475
0.719845
0.392407
0.263723
0.153161
0.392503
1.16833
1.81347
2.35139
2.84318
3.24275
3.59856
3.94486
4.29046
4.73885
5.37955
6.06699
6.41097
6.41254
6.38706
6.51872
6.85921
7.37415
8.03773
8.7508
9.48303
10.2729
11.0126
11.5289
11.8782
12.1637
12.4104
12.8072
13.4203
14.1873
14.9549
15.5596
15.9282
15.7823
14.805
13.3823
12.0687
11.0919
10.4682
10.0882
9.86621
9.75557
9.68368
9.54224
9.24631
8.69464
7.91052
6.93602
5.8025
4.58069
3.37332
2.36213
1.68441
1.29355
1.08225
0.759418
0.449865
0.320648
0.252036
0.101831
0.23631
1.38917
2.38426
2.96329
3.53303
3.92926
4.19175
4.42832
4.77427
5.37312
6.29824
7.16421
7.33853
6.86338
6.46512
6.47034
6.75469
7.1131
7.4693
7.91011
8.56907
9.39475
10.2039
10.9693
11.6322
12.1579
12.7383
13.3045
13.904
14.617
15.4266
16.2882
17.1177
17.6697
17.4062
16.1961
14.6983
13.4563
12.6556
12.2969
12.1806
12.192
12.2086
12.1316
11.8746
11.3878
10.6231
9.50203
8.03468
6.37089
4.66704
3.06144
2.0312
1.49988
1.3872
1.06361
0.593798
0.407622
0.279423
0.133368
0.321937
0.714475
1.16758
1.6218
2.43677
3.08765
3.85075
4.77903
5.89921
7.1123
8.19752
8.61321
8.08432
7.2741
6.83377
6.81765
7.14344
7.65601
8.14422
8.55336
8.83095
9.21922
9.92063
10.8913
12.2349
13.8377
14.703
15.118
16.098
17.2595
18.3366
19.3088
20.051
20.1615
19.2612
17.6647
16.1067
14.8563
14.2539
14.1666
14.2409
14.4745
14.6504
14.6001
14.2959
13.6641
12.6208
11.0703
9.02596
6.70876
4.2948
2.32582
1.35416
1.13089
1.60647
1.67857
0.796487
0.471984
0.314179
0.143972
0.332054
0.619472
0.923447
1.21882
1.80494
2.43044
3.21031
4.19687
5.43122
6.89458
8.26572
8.80467
8.36517
7.49244
6.78423
6.43899
6.40387
6.54168
6.72259
6.92129
7.03793
7.09296
7.49105
8.32408
9.70721
11.831
14.5094
16.4314
17.4486
18.3701
19.1869
19.9268
20.5112
20.644
19.8391
18.2064
16.5257
15.1516
14.4259
14.3398
14.4806
14.6753
14.8049
14.7865
14.5934
14.14
13.0419
10.4861
7.23075
4.47893
2.46605
1.34154
1.12151
1.2946
1.77309
1.78504
0.807005
0.497359
0.321103
0.11796
0.314817
1.67624
2.68912
2.54154
2.7914
3.15637
3.66925
4.25028
4.87354
5.49385
6.02062
6.21329
6.03989
5.89598
5.97274
6.18054
6.33713
6.36688
6.36828
6.46561
6.49125
6.28974
6.13043
6.38456
7.18021
8.66236
11.026
13.7808
15.6597
16.7436
17.539
18.1427
18.6235
18.9912
18.997
18.0046
16.2547
14.6695
13.5848
12.9513
12.6012
12.4231
12.2381
11.9411
11.5425
10.9692
10.1106
8.7507
6.84376
4.7672
2.9039
1.64932
1.08401
0.954246
1.09283
0.953738
0.6525
0.482855
0.308322
0.131309
0.215396
0.639132
1.57223
1.90048
2.21646
2.44876
2.64232
2.79573
2.87718
2.84098
2.74147
2.8834
3.43656
4.51702
6.00041
7.50567
8.77859
9.58336
10.0615
10.4753
10.7341
10.6281
10.0649
9.33357
8.69742
8.84944
10.1031
12.5473
15.3549
17.4252
18.5359
19.282
19.8649
19.825
18.6032
16.8488
15.3828
14.2757
13.4796
12.8604
12.364
11.9211
11.2807
10.4618
9.51051
8.32549
7.07203
5.76527
4.45723
3.27419
2.26539
1.4951
1.06738
0.912189
0.96489
0.817872
0.549989
0.412268
0.292608
0.160592
0.330849
0.854625
1.67815
2.59407
3.38363
4.17078
5.02016
5.95749
6.90192
7.85194
8.95136
10.7286
13.5474
17.0987
20.0222
20.7503
20.2043
19.9194
20.3003
20.8082
21.0622
20.8902
20.3589
19.156
17.5678
17.0862
18.1888
20.4319
21.9257
22.3148
22.1712
21.605
20.5842
19.1581
17.6526
16.407
15.2644
14.1174
13.2076
12.4958
11.7261
10.8092
9.77367
8.66263
7.40787
6.20298
5.17232
4.26228
3.42645
2.65185
1.96103
1.43473
1.14325
1.00181
1.00687
0.810085
0.525323
0.385601
0.289584
0.112986
0.172021
0.357459
0.697673
1.18126
1.86795
2.79
4.1582
6.45069
9.29791
12.7912
16.5361
18.8471
18.9294
17.5484
16.3837
16.6546
18.3625
21.269
24.7506
27.9493
30.3184
31.565
31.8378
32.0384
32.7337
33.0919
32.5291
30.2627
27.7246
25.991
24.3112
22.3443
20.3661
18.5765
17.0261
15.5242
14.0491
13.0734
12.6008
12.3084
11.8736
11.2541
10.3904
9.16819
7.60534
6.08842
4.87803
3.8939
3.05373
2.39831
1.93799
1.59171
1.40095
1.31596
1.36727
0.976995
0.490257
0.377771
0.314069
0.0342175
0.0310384
0.061339
0.113805
0.195086
0.326601
0.53405
0.867943
1.40191
2.18233
3.24522
4.41977
5.33268
5.79733
5.88964
6.50259
7.87841
9.93655
12.7178
15.8115
18.7622
21.6757
24.2777
26.4555
28.1442
28.8626
28.1609
26.4764
24.2683
22.0962
19.8115
17.4432
15.1616
13.1927
11.5228
10.0366
8.87358
8.29534
8.18738
8.31736
8.28445
7.98865
7.57648
7.04359
6.29695
5.19161
4.30483
3.77651
3.30473
2.84651
2.65558
2.55999
2.45082
2.34197
2.02457
1.79331
1.11823
0.569141
0.442507
0.351149
0.0215432
0.00639682
0.00933615
0.0150594
0.0239394
0.0374197
0.0576135
0.0884527
0.136865
0.210758
0.317876
0.453928
0.606228
0.76186
0.865741
1.11986
1.51262
2.08353
2.85736
3.82953
5.01127
6.42391
8.0107
9.68441
11.317
12.7203
13.3465
12.6896
10.9753
8.74216
6.65413
4.99424
3.73124
2.79853
2.09471
1.54947
1.2052
1.06269
1.01975
1.03431
1.12869
1.4461
1.64203
1.67915
1.50227
1.19346
1.11396
1.1397
1.21545
1.44347
1.81961
2.49111
3.11016
2.9498
2.5753
2.14189
1.27523
0.812039
0.594761
0.403033
0.0253504
0.00680503
0.00453744
0.00394304
0.00443161
0.00541697
0.00700857
0.00915424
0.0122734
0.0168626
0.0236611
0.0330913
0.045304
0.0610768
0.0741019
0.102023
0.1462
0.216509
0.325931
0.48928
0.725466
1.05393
1.48522
2.01453
2.61405
3.22684
3.64523
3.36961
2.57664
1.70733
1.05774
0.636313
0.378221
0.225299
0.134442
0.0817577
0.0602566
0.0613637
0.0666156
0.0752594
0.090291
0.115287
0.14715
0.190794
0.251768
0.343335
0.492851
0.72884
1.09197
1.61538
2.3879
3.62189
4.75769
4.48195
3.50661
2.51983
1.46656
1.10919
0.764682
0.462225
0.0404375
0.0199532
0.0138087
0.00984128
0.00832535
0.0071622
0.00682965
0.00631232
0.00595352
0.00554577
0.00542511
0.0056866
0.00651897
0.00791993
0.00964263
0.0122126
0.015871
0.0216655
0.0314854
0.0479408
0.074548
0.115561
0.175599
0.257923
0.362585
0.489062
0.560825
0.482014
0.319085
0.179069
0.094738
0.0501957
0.0285582
0.0188592
0.0152433
0.0150326
0.0172046
0.0214518
0.0281876
0.038607
0.0549277
0.0806788
0.121245
0.185131
0.286457
0.446749
0.700918
1.09832
1.69991
2.50914
3.74448
5.30047
5.94138
5.78495
4.46692
3.01761
1.80083
1.47185
0.924915
0.509194
0.0674217
0.059757
0.0526208
0.0420872
0.0377433
0.0339601
0.0327333
0.0304766
0.0285765
0.0257714
0.0234091
0.0217598
0.0216825
0.0227943
0.024578
0.0257439
0.025453
0.0237018
0.0211529
0.0187914
0.0173365
0.0176218
0.0203368
0.0261844
0.0354121
0.0482443
0.0522189
0.0412503
0.0254529
0.0148352
0.00986724
0.0081148
0.00799443
0.00876672
0.0102292
0.0124981
0.0159441
0.0212156
0.0292399
0.0416253
0.0610652
0.0920224
0.141599
0.221657
0.352546
0.566774
0.917675
1.47334
2.271
3.31057
4.55591
5.61379
6.18412
6.49659
5.66591
4.17024
2.89581
2.9382
1.32532
0.616381
0.135966
0.174612
0.196268
0.187417
0.186642
0.18397
0.185629
0.183722
0.181616
0.176227
0.170841
0.166694
0.166646
0.169862
0.174494
0.176789
0.173893
0.164931
0.150719
0.133155
0.113346
0.0930714
0.0735022
0.0574949
0.0467927
0.0427974
0.0402115
0.0378319
0.0360117
0.0349532
0.0343722
0.0340587
0.0339467
0.0341875
0.0350384
0.0369537
0.0406341
0.0465807
0.0550439
0.0671137
0.0844252
0.110031
0.148874
0.21115
0.319188
0.51386
0.863793
1.46672
2.19085
2.92357
3.5265
3.94178
4.08406
4.34214
5.23904
5.7235
4.69001
4.90223
1.35896
0.717062
0.220676
0.326388
0.541085
0.645775
0.734755
0.801178
0.860245
0.912128
0.957653
0.996827
1.02868
1.05511
1.07799
1.09995
1.12165
1.14224
1.15861
1.16734
1.16524
1.15075
1.12319
1.08285
1.03087
0.969149
0.900882
0.830083
0.764841
0.707049
0.655406
0.60845
0.564899
0.524441
0.487333
0.454075
0.424994
0.40109
0.383283
0.372876
0.370783
0.377371
0.392745
0.416185
0.444771
0.473703
0.502412
0.538657
0.596935
0.65889
0.71536
0.781377
0.91537
1.22679
1.83013
2.68512
3.50943
3.71182
3.38693
2.8715
1.43031
0.788858
0.191135
0.308456
0.530243
0.645588
0.743664
0.809491
0.870593
0.917939
0.959894
0.995358
1.02427
1.05016
1.07092
1.09125
1.10754
1.12195
1.12922
1.12959
1.11989
1.10074
1.07227
1.03602
0.993102
0.944879
0.892451
0.837301
0.78044
0.723331
0.666669
0.611404
0.557549
0.506403
0.460671
0.420633
0.386117
0.357471
0.335382
0.321251
0.316455
0.32252
0.340398
0.369615
0.407471
0.448133
0.485074
0.515683
0.538617
0.554322
0.585424
0.694684
0.998426
1.63422
2.68014
3.88259
4.63803
4.5129
3.689
3.01878
1.62218
0.909018
0.112492
0.147514
0.173029
0.164896
0.159024
0.15175
0.148475
0.142164
0.138384
0.132373
0.127897
0.123291
0.121047
0.118789
0.117758
0.114362
0.109606
0.102648
0.0947962
0.0868681
0.0794094
0.0729421
0.0668589
0.0612548
0.0562338
0.0518689
0.0484378
0.0459688
0.0443979
0.0432823
0.0422461
0.0414233
0.0408548
0.0404765
0.040205
0.0404088
0.041899
0.0457788
0.0527623
0.0641888
0.081378
0.105453
0.137718
0.179509
0.233598
0.304327
0.397165
0.480852
0.558233
0.655393
0.818919
1.12636
1.66539
2.44076
3.26145
3.96719
3.32156
4.02947
1.62008
0.889476
0.0513444
0.0427732
0.0389504
0.0299686
0.0244875
0.0201668
0.0177031
0.0150245
0.013404
0.0114585
0.0102232
0.0091864
0.00876187
0.00860034
0.00869894
0.00849627
0.00814063
0.00762055
0.00720067
0.00705424
0.00725111
0.00775126
0.00841934
0.00919598
0.0100581
0.0110826
0.0121968
0.013048
0.013885
0.0146395
0.0146589
0.0141888
0.0134391
0.0128625
0.0130293
0.0143319
0.0168805
0.0207776
0.026826
0.0362679
0.0510489
0.0739474
0.108945
0.161255
0.238451
0.350539
0.506244
0.697533
0.901875
1.10306
1.2394
1.36362
1.57478
1.98405
3.15482
3.45839
2.84171
2.74629
1.73799
0.847554
0.0294731
0.0127117
0.00848434
0.00525335
0.00379528
0.00280757
0.00236083
0.00197834
0.00188173
0.00185875
0.00211915
0.00264615
0.00362779
0.00522306
0.00784781
0.0121849
0.0195407
0.0319356
0.0522631
0.084318
0.133656
0.189666
0.245261
0.298272
0.345107
0.375
0.378028
0.351361
0.305923
0.255343
0.21382
0.173242
0.129637
0.0879602
0.0580663
0.0463744
0.0459067
0.0518485
0.063752
0.0818042
0.108733
0.148655
0.20786
0.295021
0.421614
0.606842
0.877826
1.25965
1.77462
2.42309
3.16946
4.02146
5.04507
6.34813
6.66957
5.14658
3.17225
2.34543
1.61897
0.729169
0.0201702
0.00412342
0.0021686
0.00138081
0.00132224
0.00159924
0.00231838
0.003627
0.00595281
0.00993239
0.016767
0.0283578
0.0480788
0.0812271
0.137685
0.234663
0.400147
0.672094
1.0904
1.67838
2.40357
3.14844
3.85741
4.48217
4.95861
5.23083
5.24486
5.00529
4.54659
3.95259
3.31275
2.6905
2.07539
1.46011
0.946936
0.611486
0.410346
0.298595
0.249197
0.223212
0.217333
0.227291
0.255071
0.319175
0.432576
0.611424
0.879247
1.27033
1.83035
2.64713
4.06367
5.89875
7.50725
8.50119
7.87517
5.66552
2.82086
1.61953
1.09324
0.527695
0.0146542
0.00220251
0.0022007
0.00334855
0.00555513
0.00928892
0.0155907
0.0264361
0.0452978
0.0775281
0.131279
0.218915
0.359043
0.576175
0.906643
1.40309
2.14122
3.20216
4.63555
6.44695
8.56924
10.763
12.8559
14.7514
16.3064
17.4155
17.974
18.0223
17.5638
16.6843
15.4567
13.9253
12.2515
10.4475
8.63315
6.95686
5.56948
4.37653
3.42693
2.61293
1.9923
1.52587
1.16169
0.890566
0.666437
0.578608
0.711663
0.997588
1.44297
2.11808
3.19158
4.65093
6.34672
7.74671
6.81329
4.44697
2.1207
1.1113
0.780433
0.431893
0.0155611
0.00823938
0.0163927
0.0311357
0.0547749
0.0944345
0.159974
0.266672
0.436349
0.686491
1.02223
1.44488
1.97029
2.64181
3.50352
4.60194
6.03893
7.94171
10.328
13.1873
16.3763
19.6006
22.6128
25.3505
27.6556
29.3499
30.4035
30.9282
31.0059
30.6822
29.9145
28.6156
27.0196
25.2774
23.5947
22.044
20.7004
19.28
18.3203
17.3623
16.2866
14.9831
12.7874
10.1023
7.24651
4.43532
2.17162
1.33964
1.37941
1.69818
2.27094
3.05386
4.01999
4.86119
4.27552
3.20257
1.68453
0.879491
0.660627
0.40699
0.0446054
0.0652575
0.152443
0.310392
0.554487
0.936413
1.50108
2.29791
3.39208
4.79938
6.40141
8.0145
9.19728
9.88589
10.4952
11.3014
12.3825
14.0228
16.2758
19.1757
22.5797
26.3011
29.7939
32.8373
35.2985
37.0898
38.2068
38.7895
39.002
38.8989
38.4583
37.6107
36.3627
34.7778
33.0645
31.5399
30.4322
29.6647
29.2095
29.4014
30.0982
31.3992
32.8601
33.2597
31.0305
26.0806
18.7196
11.0637
6.61786
4.60616
3.71068
3.26123
3.23413
3.29774
3.00175
2.50933
1.38592
0.622708
0.475155
0.342234
0.181596
0.364503
0.832142
1.57522
2.59459
4.06657
6.06394
8.73817
11.7518
15.1431
18.8272
22.3668
24.9223
25.8085
25.0446
23.4751
21.7868
20.6997
20.4243
20.9261
22.3604
24.8867
27.8099
30.4388
32.5865
34.2226
35.2737
35.7446
35.8172
35.7013
35.502
35.2238
34.7641
33.9
32.5488
30.9724
29.5932
28.5887
27.7782
27.2591
26.947
26.6855
26.3109
25.4751
23.9688
21.8441
19.5711
17.3606
15.1848
12.7536
10.0182
7.41577
5.34901
3.80087
2.78369
2.23421
1.27264
0.536814
0.361914
0.284307
0.36024
1.43337
3.40045
5.55334
8.02465
11.0823
13.7143
16.7127
19.6111
21.7721
23.1396
24.1925
25.3478
26.9599
28.7316
30.3158
30.5546
28.1796
24.4486
21.0101
18.9842
18.484
19.0777
20.1016
21.1621
22.1368
22.9104
23.3749
23.5141
23.3937
23.1544
22.9102
22.7244
22.5653
22.2914
21.6893
20.7427
19.7747
18.9763
18.2809
17.5771
16.8322
16.0867
15.2835
14.2086
12.7642
11.0868
9.34234
7.6071
5.95769
4.46826
3.29353
2.51092
2.03289
1.6122
1.2713
0.856643
0.467733
0.305028
0.241852
0.219612
0.391506
3.29074
4.86775
6.00823
7.40137
8.86231
10.3697
11.999
13.4765
14.2163
14.3138
14.5259
15.212
16.2788
17.0591
17.1743
16.8757
16.6739
17.0908
17.3406
16.66
16.2576
16.4409
16.83
17.1676
17.4471
17.641
17.656
17.453
17.0572
16.5258
15.9232
15.3141
14.7177
13.9982
13.0857
12.1751
11.3804
10.7083
10.1562
9.72616
9.44246
9.21228
8.85728
8.26883
7.38637
6.26229
5.03699
3.84069
2.77752
1.92578
1.36779
1.01849
0.765292
0.633014
0.478125
0.324651
0.273839
0.235566
0.144286
0.138496
1.43156
2.19955
2.50718
2.70946
2.82666
3.04311
3.33216
3.43359
3.26464
3.03661
3.02791
3.2076
3.75483
4.40296
4.85366
5.40731
6.43313
8.27121
11.3179
14.4348
16.5319
17.6224
18.4004
19.0458
19.583
19.9419
19.9274
19.4374
18.5607
17.4788
16.2973
15.0596
13.862
12.7969
11.841
10.9072
10.0438
9.42209
9.07822
8.97491
9.00049
8.95146
8.662
8.11848
7.19135
5.87632
4.41093
3.07177
1.9872
1.24328
0.812274
0.577111
0.446256
0.432768
0.391208
0.301316
0.279518
0.239639
0.137185
0.355286
1.9591
3.44279
3.5535
3.86037
4.15552
4.46724
4.85246
5.36569
5.94359
6.36753
6.52627
6.20481
5.53326
4.78319
4.41206
4.72236
5.83902
7.77556
10.1199
12.3777
14.5115
16.536
18.4048
19.6272
19.9094
19.7214
19.4823
19.2846
19.073
18.6439
17.7804
16.5857
15.2971
14.0659
13.0019
12.0542
11.1958
10.5842
10.2436
10.0902
10.057
9.98039
9.68135
9.00767
7.79846
6.20926
4.58177
3.13046
2.01457
1.27625
0.814724
0.560771
0.434873
0.442884
0.41846
0.311578
0.281419
0.240076
0.144044
0.396023
1.1209
2.03389
2.50123
3.1316
3.72146
4.5149
5.54356
6.72078
7.89007
8.75838
8.97144
8.53191
8.01593
7.68958
7.51339
7.7109
8.28818
9.07775
10.0797
11.6033
13.5533
15.3574
16.5905
17.302
17.7046
18.004
18.2721
18.4649
18.6095
18.7566
18.8835
18.74
17.9817
16.7455
15.4567
14.2519
13.196
12.5158
12.1801
12.0468
11.9727
11.8143
11.3883
10.5181
9.18373
7.47139
5.63634
3.97442
2.63958
1.70708
1.1584
0.926717
0.82346
0.753028
0.599294
0.411849
0.340425
0.258974
0.223178
0.531215
1.12055
1.57765
1.96729
2.59181
3.28417
4.15531
5.21728
6.48467
7.93151
9.14135
9.54545
9.269
9.00081
9.06244
9.24496
9.52207
10.25
11.5871
13.6669
16.4842
19.7273
22.3466
23.4971
23.7269
23.7825
23.9551
24.1618
24.2847
24.33
24.4029
24.5613
24.4586
23.6448
22.1749
20.5741
19.1399
18.0208
17.3915
17.1103
17.0357
16.9767
16.5517
15.3639
13.4226
11.015
8.50572
6.19501
4.31737
2.94848
2.00713
1.38233
0.983448
0.74167
0.851384
0.741069
0.530063
0.439377
0.295855
0.306438
0.40055
0.53646
0.842777
1.3294
1.9911
2.81177
3.80979
5.15053
6.7603
8.21223
9.19949
9.45335
9.30413
9.4265
9.96783
10.8858
12.1173
13.9084
16.4226
19.7948
23.9087
27.6876
29.2376
29.2918
29.3461
29.5353
29.7224
29.7807
29.6323
29.3123
28.8184
28.0432
26.8559
25.0115
22.8673
21.0832
19.6503
18.6362
18.1026
18.0109
18.1897
17.8124
16.2896
13.564
10.6675
8.10211
5.89625
4.08905
2.76346
1.8798
1.29621
0.933018
0.707348
0.689522
0.995706
0.868412
0.547639
0.404517
0.324985
0.172168
0.324443
0.655135
1.22164
1.95566
2.96517
4.09737
5.42882
6.97693
8.80344
10.7674
11.9614
12.3326
12.4036
13.0459
14.3139
16.1627
18.5916
21.4855
24.9665
28.8721
33.0037
35.6296
35.5471
34.6191
34.0288
33.5844
33.1982
32.7725
32.2475
31.633
30.8267
29.6223
28.002
26.1855
24.5202
22.9413
21.5279
20.5177
19.9591
19.5067
18.671
17.3111
15.5835
13.2792
10.5878
7.98659
5.70907
3.88716
2.53528
1.68558
1.26813
1.0538
0.940418
1.04664
1.34801
1.23698
0.676886
0.453193
0.338086
0.0790681
0.123764
0.279398
0.545287
0.931811
1.44679
2.0273
2.73362
3.58306
4.66288
5.95035
7.21166
8.31634
9.43634
11.0346
13.2246
16.1914
19.993
24.1201
27.662
30.4038
31.8128
31.2369
29.7263
28.6545
28.1043
27.8808
27.6497
27.2666
26.6631
25.8002
24.7002
23.5569
22.4858
21.5128
20.5888
19.8072
19.3119
19.0987
18.9248
18.3874
17.0261
15.0051
12.6611
9.98504
7.33755
5.27644
3.73897
2.65904
1.94104
1.55791
1.4135
1.40428
1.43906
1.50448
1.54681
1.17731
0.745359
0.503865
0.371636
0.0263185
0.0129508
0.0269202
0.0547364
0.102809
0.178873
0.291187
0.453336
0.680896
0.992987
1.39316
1.8553
2.38007
3.00805
3.85911
5.04097
6.69137
8.91047
11.6055
14.3293
15.9299
16.2324
15.3585
14.1827
13.4513
13.2876
13.3605
13.4049
13.3248
13.077
12.6596
12.1011
11.4957
10.8871
10.2407
9.58186
9.1094
8.65746
8.21544
7.5116
6.93233
6.06545
5.16729
4.19339
3.21708
2.36769
1.84783
1.66909
1.8841
2.51174
3.57106
4.31138
4.49448
3.72712
2.79256
2.15033
1.49682
1.13739
0.744414
0.442188
0.029887
0.00656647
0.00448799
0.00497506
0.00724878
0.011208
0.0175747
0.0271794
0.0416932
0.0628869
0.0930725
0.13466
0.193256
0.278381
0.408098
0.604712
0.900317
1.32523
1.88832
2.56261
3.09363
3.10422
2.72456
2.29214
2.06008
2.04405
2.11582
2.1603
2.16076
2.12008
2.03204
1.87238
1.70448
1.54282
1.37146
1.22557
1.13057
1.06128
1.03337
1.00157
1.00497
0.91476
0.784309
0.649925
0.595223
0.684201
1.00607
1.63548
2.63943
4.31351
6.38114
7.69043
7.40133
6.2858
4.6434
3.19496
2.01992
1.64337
1.04787
0.540792
0.0385011
0.0177128
0.0111966
0.00717476
0.00551937
0.00453587
0.00433603
0.00423953
0.0044804
0.00476297
0.00539069
0.00635902
0.00796261
0.0105045
0.0145976
0.0212615
0.0323559
0.0505713
0.0791643
0.120534
0.17555
0.181373
0.143638
0.10212
0.0819614
0.0807507
0.0855768
0.0871807
0.0860817
0.0837265
0.0814641
0.0739771
0.0654837
0.0571265
0.0498455
0.0462574
0.0462133
0.0488208
0.0549032
0.0651581
0.0844491
0.118618
0.175323
0.279504
0.477055
0.842795
1.5144
2.69579
4.65553
7.67607
10.128
11.4616
11.5426
10.2262
7.58968
4.95273
2.98238
2.63789
1.43242
0.617622
0.0640879
0.0554887
0.0468468
0.0353881
0.0296562
0.0251283
0.0232746
0.0212855
0.0202147
0.0184741
0.0173859
0.0164269
0.0160531
0.0158505
0.015349
0.0142267
0.0125839
0.010857
0.0096935
0.00966686
0.0112023
0.0123107
0.0122238
0.0123948
0.0134697
0.0143439
0.0142556
0.0134353
0.0122146
0.0109787
0.00997711
0.00934116
0.00910891
0.00927355
0.00986238
0.0109821
0.0129777
0.0163445
0.0221609
0.0325226
0.0516235
0.0875711
0.156516
0.290633
0.55501
1.07723
2.09048
3.94501
7.13458
10.1317
12.7631
14.2553
14.6256
13.2962
10.0367
7.05302
4.91613
5.00196
1.78652
0.706679
0.134231
0.170368
0.191326
0.177549
0.172269
0.165778
0.164553
0.161836
0.160656
0.156686
0.153961
0.150931
0.14972
0.148557
0.146064
0.140119
0.13054
0.118294
0.105481
0.0949742
0.0881827
0.0851454
0.0828625
0.0808496
0.078709
0.0750147
0.0695592
0.0633522
0.0572695
0.0519479
0.047728
0.0444315
0.0418392
0.0399104
0.0385513
0.0377545
0.0378974
0.0395349
0.0435256
0.0514894
0.0666366
0.095927
0.153489
0.272308
0.528413
1.09084
2.30286
4.5119
6.94174
8.97676
10.4681
10.7858
9.63847
8.57277
8.70973
9.53766
7.27822
7.77659
1.69653
0.802218
0.210378
0.33087
0.556458
0.66732
0.759629
0.827766
0.889595
0.9418
0.988845
1.02975
1.06375
1.09421
1.12017
1.14527
1.16745
1.18684
1.19857
1.20104
1.19111
1.16883
1.13485
1.09201
1.04443
0.993001
0.937175
0.87907
0.819744
0.760271
0.701284
0.643984
0.588703
0.536505
0.489082
0.44697
0.410128
0.378857
0.353335
0.334333
0.32362
0.32338
0.336366
0.366388
0.419127
0.5024
0.633997
0.856506
1.27723
1.7053
1.9495
1.98277
1.90093
1.90942
2.30761
3.30671
4.55535
5.2349
4.98592
4.37604
1.68441
0.862755
0.189655
0.298645
0.504891
0.60765
0.694591
0.76063
0.817056
0.867149
0.910046
0.946807
0.976263
1.00056
1.02182
1.04257
1.06393
1.08419
1.10028
1.10878
1.1068
1.09319
1.06777
1.03097
0.98406
0.928896
0.86844
0.806109
0.747424
0.696293
0.651327
0.611161
0.57458
0.541322
0.51151
0.485936
0.465407
0.450991
0.443058
0.442392
0.448563
0.459724
0.473988
0.491657
0.516253
0.566113
0.656272
0.780036
0.93224
1.07559
1.17043
1.21366
1.27232
1.47398
1.97798
2.83271
3.58535
3.62541
3.46767
3.06753
1.42826
0.743912
0.154999
0.255188
0.444818
0.540873
0.618048
0.678245
0.727556
0.77211
0.809194
0.840843
0.865798
0.886424
0.904843
0.923417
0.942372
0.960638
0.974969
0.982497
0.981038
0.970099
0.950023
0.921285
0.884917
0.842387
0.795897
0.748131
0.700933
0.657741
0.618095
0.58035
0.543256
0.509042
0.478907
0.453331
0.432972
0.41804
0.407668
0.402347
0.406429
0.428169
0.477064
0.566166
0.706227
0.88544
1.07281
1.26153
1.47146
1.6565
1.77643
1.82891
1.90828
2.1625
2.72324
3.54031
3.78924
3.49638
3.39774
3.10801
1.35057
0.679366
0.153134
0.236277
0.378193
0.451561
0.513917
0.564424
0.605177
0.643055
0.67413
0.700716
0.721623
0.739076
0.754943
0.770916
0.786843
0.801385
0.811683
0.815436
0.811389
0.799688
0.780925
0.755562
0.723997
0.687119
0.646084
0.60195
0.555256
0.508407
0.465555
0.428305
0.398979
0.379426
0.372007
0.380559
0.396148
0.412691
0.435581
0.477994
0.550954
0.657881
0.79761
0.966235
1.16158
1.3677
1.55253
1.71649
1.89455
2.08173
2.20502
2.22213
2.30399
2.7865
3.66642
4.24056
3.77047
3.1939
3.09955
2.81351
1.16283
0.600275
0.155094
0.21068
0.304259
0.35119
0.398018
0.438113
0.471561
0.503907
0.530536
0.552369
0.56796
0.580069
0.590616
0.600803
0.610129
0.617465
0.620541
0.617977
0.609579
0.596539
0.580965
0.564927
0.554141
0.557724
0.580895
0.631026
0.689878
0.745856
0.805317
0.886667
0.978338
1.04602
1.0762
1.10457
1.15629
1.18532
1.19756
1.22347
1.27882
1.37972
1.53378
1.7122
1.85676
1.96973
2.08039
2.2035
2.3819
2.58356
2.75289
2.83887
2.9455
3.36167
4.17215
4.54351
3.61482
2.76947
2.64536
2.26087
0.986818
0.511412
0.14883
0.159485
0.194425
0.224909
0.255049
0.284667
0.306289
0.329371
0.345393
0.357728
0.364552
0.369207
0.372972
0.377018
0.379144
0.378321
0.372693
0.363401
0.352671
0.34373
0.340342
0.345971
0.364447
0.400732
0.461303
0.543817
0.635918
0.734683
0.843791
0.972356
1.10873
1.23746
1.33906
1.4163
1.47801
1.48808
1.48446
1.49857
1.56558
1.65006
1.75498
1.8769
1.97167
2.00819
2.01867
2.07897
2.19868
2.31457
2.40219
2.43136
2.60712
3.16204
4.0153
4.44725
3.28523
2.33305
2.38223
1.9193
0.773827
0.425356
0.133442
0.110182
0.136248
0.161586
0.189317
0.210595
0.231729
0.248289
0.261765
0.270176
0.274482
0.275907
0.276199
0.27648
0.27601
0.274202
0.271057
0.268149
0.267507
0.270893
0.279852
0.296193
0.323367
0.366081
0.421585
0.483132
0.552445
0.629647
0.716209
0.814547
0.91859
1.03077
1.13955
1.23977
1.31484
1.32679
1.33337
1.35333
1.42796
1.52541
1.63247
1.73396
1.81345
1.85502
1.86624
1.91789
1.99252
2.0219
2.05815
2.1331
2.29851
2.73036
3.27828
3.64473
2.79669
2.03655
2.30575
1.9463
0.71256
0.381538
0.128018
0.146385
0.193156
0.22758
0.263634
0.293116
0.323792
0.348882
0.369844
0.3838
0.391071
0.393947
0.395302
0.395457
0.393218
0.387614
0.377444
0.364642
0.352157
0.342581
0.338604
0.342617
0.357407
0.386358
0.417669
0.450341
0.488372
0.53694
0.601857
0.685176
0.779387
0.892133
1.02296
1.15904
1.28601
1.40952
1.48522
1.55587
1.64417
1.75
1.86906
1.98819
2.06707
2.0995
2.11879
2.15898
2.12411
1.97318
1.82628
1.79065
1.95385
2.32627
2.7612
2.78685
1.87084
1.92128
2.25048
1.97123
0.75282
0.393697
0.099943
0.164229
0.274637
0.340633
0.405577
0.455466
0.504647
0.545434
0.580958
0.60871
0.627746
0.638318
0.642163
0.642604
0.63722
0.624956
0.600183
0.564135
0.521218
0.47817
0.44216
0.41901
0.415105
0.435486
0.483038
0.540065
0.609631
0.695117
0.804831
0.942269
1.11431
1.3151
1.5525
1.80576
2.0007
2.10633
2.21944
2.34519
2.48769
2.62293
2.73444
2.82993
2.93799
3.10115
3.26768
3.38027
3.42917
3.41941
3.36062
3.26276
3.18363
3.43473
4.17457
4.10521
2.72734
3.01026
3.6241
3.43273
1.17309
0.54642
0.0917185
0.174035
0.321806
0.412367
0.500611
0.56882
0.63447
0.690462
0.740061
0.782912
0.820002
0.851803
0.881517
0.911579
0.940982
0.967201
0.984047
0.986023
0.969011
0.931066
0.872345
0.796937
0.73119
0.684239
0.66255
0.675813
0.718252
0.789831
0.891318
1.02403
1.19312
1.38809
1.60653
1.81445
2.00602
2.14536
2.1851
2.23244
2.34176
2.48859
2.64714
2.80215
2.97862
3.18201
3.37798
3.55651
3.74614
3.91486
4.00039
3.93109
3.65285
3.5813
4.2455
4.52672
3.36423
3.86198
4.55444
4.33777
1.41707
0.615551
0.0981503
0.197965
0.369617
0.471125
0.567088
0.642851
0.71156
0.769666
0.820938
0.865009
0.903896
0.938762
0.972878