/*--------------------------------*- C++ -*----------------------------------*\
| =========                 |                                                 |
| \\      /  F ield         | OpenFOAM: The Open Source CFD Toolbox           |
|  \\    /   O peration     | Version:  2.1.1                                 |
|   \\  /    A nd           | Web:      www.OpenFOAM.org                      |
|    \\/     M anipulation  |                                                 |
\*---------------------------------------------------------------------------*/
FoamFile
{
    version     2.0;
    format      ascii;
    class       volScalarField;
    location    "0.00145";
    object      Lzero;
}
// * * * * * * * * * * * * * * * * * * * * * * * * * * * * * * * * * * * * * //

dimensions      [0 1 0 0 0 0 0];

internalField   nonuniform List<scalar> 
36520
(
9.25456e-05
9.23762e-05
9.23735e-05
9.23758e-05
9.23699e-05
9.23626e-05
9.23583e-05
9.236e-05
9.23709e-05
9.23915e-05
9.24187e-05
9.24448e-05
9.24636e-05
9.24697e-05
9.24664e-05
9.24625e-05
9.24705e-05
9.25011e-05
9.25577e-05
9.26397e-05
9.2746e-05
9.28753e-05
9.30229e-05
9.31756e-05
9.32359e-05
9.32024e-05
9.31227e-05
9.30425e-05
9.29964e-05
9.29903e-05
9.30175e-05
9.3064e-05
9.31538e-05
9.31791e-05
9.32068e-05
9.32398e-05
9.32659e-05
9.33032e-05
9.33538e-05
9.34125e-05
9.34647e-05
9.34941e-05
9.34903e-05
9.34594e-05
9.34236e-05
9.34054e-05
9.3414e-05
9.34137e-05
9.35622e-05
9.41324e-05
9.50887e-05
9.60422e-05
9.60466e-05
9.50531e-05
9.35218e-05
9.45987e-05
9.4323e-05
9.42772e-05
9.2292e-05
9.22006e-05
0.000194514
7.31094e-05
7.2438e-05
6.85927e-05
6.61149e-05
6.4073e-05
6.26129e-05
6.1224e-05
5.99835e-05
5.87361e-05
5.75952e-05
5.64974e-05
5.54938e-05
5.44216e-05
5.32809e-05
5.19282e-05
5.02986e-05
4.82279e-05
4.56306e-05
4.24114e-05
3.84841e-05
3.39494e-05
2.90506e-05
2.51409e-05
2.37812e-05
2.50194e-05
3.05096e-05
3.66574e-05
3.90437e-05
3.98679e-05
4.01817e-05
4.02782e-05
4.03383e-05
4.05107e-05
4.08734e-05
4.14039e-05
4.20971e-05
4.30399e-05
4.42558e-05
4.5788e-05
4.7696e-05
4.9977e-05
5.2468e-05
5.47765e-05
5.65687e-05
5.76906e-05
5.79667e-05
5.7276e-05
5.58862e-05
5.43951e-05
5.43814e-05
5.7151e-05
6.23352e-05
6.7983e-05
6.94249e-05
6.91116e-05
6.19433e-05
5.33671e-05
4.25864e-05
0.000193739
0.000194585
4.78158e-05
4.54747e-05
4.10369e-05
3.82254e-05
3.58686e-05
3.44022e-05
3.28875e-05
3.1559e-05
2.99804e-05
2.83777e-05
2.67062e-05
2.52258e-05
2.3987e-05
2.30867e-05
2.2405e-05
2.18971e-05
2.15737e-05
2.16898e-05
2.24838e-05
2.39669e-05
2.58963e-05
2.78872e-05
2.95878e-05
2.98892e-05
2.63032e-05
2.04258e-05
1.51359e-05
1.22046e-05
1.13523e-05
1.16619e-05
1.24537e-05
1.3468e-05
1.47445e-05
1.62359e-05
1.76886e-05
1.88804e-05
1.99173e-05
2.10911e-05
2.25609e-05
2.44114e-05
2.66057e-05
2.89692e-05
3.1245e-05
3.32887e-05
3.52098e-05
3.72142e-05
3.95693e-05
4.2647e-05
4.6993e-05
5.30343e-05
5.93359e-05
6.64618e-05
6.90299e-05
6.63572e-05
6.13508e-05
5.63802e-05
5.32835e-05
4.91198e-05
0.000193146
0.000194608
3.03092e-05
2.64078e-05
2.22103e-05
1.95742e-05
1.73703e-05
1.60455e-05
1.48683e-05
1.42034e-05
1.39224e-05
1.44848e-05
1.59586e-05
1.83798e-05
2.16341e-05
2.57024e-05
3.05503e-05
3.62828e-05
4.29587e-05
5.05169e-05
5.85142e-05
6.62236e-05
7.26316e-05
7.66417e-05
7.73485e-05
7.40466e-05
6.53914e-05
5.29348e-05
4.05235e-05
3.12337e-05
2.54497e-05
2.21023e-05
2.00601e-05
1.85296e-05
1.70044e-05
1.54584e-05
1.42377e-05
1.38338e-05
1.41116e-05
1.4641e-05
1.55014e-05
1.69374e-05
1.90685e-05
2.16522e-05
2.40449e-05
2.60643e-05
2.82294e-05
3.07965e-05
3.40257e-05
3.8142e-05
4.32098e-05
4.96083e-05
6.05136e-05
7.06158e-05
7.36e-05
6.90182e-05
6.0573e-05
5.87612e-05
5.74235e-05
5.42941e-05
0.000192918
0.000194747
1.62796e-05
1.25684e-05
1.03576e-05
1.02514e-05
1.11345e-05
1.28938e-05
1.53999e-05
1.88412e-05
2.33902e-05
2.91603e-05
3.60475e-05
4.37435e-05
5.20313e-05
6.08774e-05
7.01573e-05
8.01369e-05
9.11047e-05
0.000102979
0.00011527
0.000127124
0.000137435
0.000144187
0.000144142
0.000136734
0.000124802
0.000109247
9.3457e-05
8.07374e-05
7.23297e-05
6.7399e-05
6.4375e-05
6.19231e-05
5.89717e-05
5.50571e-05
5.01392e-05
4.54675e-05
4.15859e-05
3.89694e-05
3.75244e-05
3.52743e-05
3.15777e-05
2.60253e-05
2.10309e-05
2.22074e-05
2.47304e-05
2.72408e-05
2.99543e-05
3.31563e-05
3.71463e-05
4.21378e-05
4.98946e-05
5.81201e-05
6.51039e-05
6.66877e-05
6.19885e-05
5.42962e-05
5.86195e-05
5.69015e-05
0.000192856
0.000195105
1.01544e-05
1.13908e-05
1.39206e-05
1.73327e-05
2.17716e-05
2.71398e-05
3.37424e-05
4.18369e-05
5.15479e-05
6.2562e-05
7.39948e-05
8.48014e-05
9.4772e-05
0.000104297
0.000113664
0.00012347
0.000134224
0.000145876
0.000157851
0.000169671
0.000181075
0.000190942
0.000195472
0.000191407
0.000183086
0.000172295
0.000162052
0.000153149
0.000145627
0.000140456
0.000137175
0.000135103
0.000133371
0.000131019
0.000126951
0.000122175
0.000116824
0.000111746
0.000107637
0.00010236
9.55131e-05
8.51789e-05
7.09739e-05
6.09163e-05
5.43786e-05
4.9103e-05
4.26667e-05
3.7508e-05
3.66432e-05
3.9268e-05
4.37674e-05
5.02846e-05
5.827e-05
6.44744e-05
6.48424e-05
5.73649e-05
5.10309e-05
5.6702e-05
0.000192818
0.000194952
1.69376e-05
2.20745e-05
2.83134e-05
3.5258e-05
4.36017e-05
5.27386e-05
6.30428e-05
7.46553e-05
8.76058e-05
0.000100886
0.000113332
0.000123525
0.000131497
0.000138681
0.000145857
0.000154346
0.000163533
0.00017301
0.000182827
0.00019261
0.000202294
0.000211512
0.000218343
0.000220033
0.000217794
0.000213111
0.000207952
0.000204024
0.000200098
0.000195301
0.000190369
0.000186015
0.000182636
0.000180511
0.000178986
0.000177475
0.00017544
0.000172845
0.000169419
0.000164857
0.000158909
0.000151839
0.000140865
0.000128367
0.000116757
0.000106781
9.63382e-05
8.4393e-05
7.22674e-05
6.34677e-05
5.79211e-05
5.66483e-05
5.99496e-05
6.65331e-05
7.14073e-05
6.32141e-05
4.55182e-05
5.84546e-05
0.000193201
0.00019454
2.91966e-05
3.71465e-05
4.69966e-05
5.70678e-05
6.86237e-05
7.96414e-05
9.10176e-05
0.000102428
0.000115413
0.000126873
0.000136131
0.000143582
0.000150239
0.000156375
0.000162303
0.000168838
0.000175994
0.000183672
0.000191376
0.000199097
0.000207009
0.00021523
0.000223089
0.000228934
0.000231402
0.000231399
0.000229729
0.000227031
0.000223687
0.00021999
0.000215723
0.000210897
0.000206044
0.000201908
0.000199016
0.000197151
0.000195746
0.000194276
0.000192603
0.000190439
0.000187153
0.000182536
0.000175861
0.000166385
0.000154333
0.000141209
0.000127927
0.00011475
0.000102119
9.08097e-05
8.09867e-05
7.40719e-05
7.18368e-05
7.48413e-05
7.78952e-05
6.96904e-05
5.73696e-05
6.22465e-05
0.000194055
0.000194603
3.82343e-05
5.1991e-05
6.49032e-05
7.47342e-05
8.71033e-05
9.44601e-05
0.000100816
0.000106825
0.000113013
0.00011926
0.000125627
0.000131655
0.000137301
0.00014321
0.000149166
0.000154676
0.000160296
0.000166914
0.000174784
0.000183225
0.000191712
0.000199783
0.000206606
0.000211401
0.000214364
0.000215769
0.000216116
0.000215789
0.0002151
0.000214017
0.00021243
0.000210023
0.000206663
0.00020325
0.000199903
0.000196653
0.000193947
0.000191948
0.000190583
0.000189461
0.000188049
0.000186121
0.000183173
0.000178319
0.000171074
0.000161395
0.000149734
0.000136719
0.000122698
0.00010838
9.50973e-05
8.50219e-05
7.98283e-05
7.96771e-05
7.95385e-05
7.26994e-05
6.31556e-05
6.83468e-05
0.000195091
0.000194654
3.35548e-05
4.82091e-05
5.63963e-05
6.57427e-05
7.25586e-05
7.8143e-05
8.31302e-05
8.8033e-05
9.32039e-05
9.92248e-05
0.000106106
0.000112998
0.000119048
0.000124732
0.000131027
0.000138057
0.000145785
0.000154258
0.000163299
0.000172144
0.000180345
0.000187875
0.000194363
0.000199787
0.000204295
0.000207965
0.000210958
0.000213301
0.000215082
0.000216492
0.000217616
0.000218274
0.000217739
0.0002152
0.000210925
0.000206329
0.000202743
0.000200444
0.000199304
0.000199169
0.000199539
0.000199909
0.000199745
0.000198112
0.000194181
0.00018738
0.000177479
0.00016466
0.000149083
0.000131322
0.000112713
9.60551e-05
8.47789e-05
8.04145e-05
7.9122e-05
7.45459e-05
7.22808e-05
8.77901e-05
0.000195041
0.000194471
3.06086e-05
5.1395e-05
6.08364e-05
6.71223e-05
7.25301e-05
7.693e-05
8.126e-05
8.62875e-05
9.24565e-05
9.95819e-05
0.000107263
0.000114727
0.00012125
0.000127637
0.000134688
0.000141871
0.000149178
0.000156729
0.000164496
0.00017212
0.000179352
0.000186038
0.000191626
0.00019638
0.000201071
0.000205711
0.000210043
0.000213904
0.000217119
0.000219542
0.000221017
0.00022155
0.000221042
0.000219293
0.000216198
0.000212077
0.0002079
0.000204684
0.000202588
0.000201584
0.000201264
0.000201146
0.000200887
0.000199928
0.000197535
0.000193135
0.000186159
0.000176158
0.000162882
0.000146082
0.000125079
0.000102215
8.60971e-05
7.95652e-05
8.05191e-05
7.87769e-05
7.37718e-05
8.11579e-05
0.000195172
0.00019471
3.6146e-05
4.52694e-05
5.18201e-05
5.74732e-05
6.58519e-05
7.19731e-05
7.85234e-05
8.60628e-05
9.49415e-05
0.000104689
0.000113864
0.000121017
0.000125911
0.000129811
0.000134077
0.000139932
0.00014724
0.000155178
0.000162943
0.000170034
0.000176403
0.000182097
0.000186621
0.000191165
0.000196314
0.00020204
0.00020752
0.000211926
0.000214901
0.000216437
0.000217182
0.00021759
0.00021783
0.000217731
0.00021662
0.000214047
0.000209993
0.000205152
0.000200962
0.000197953
0.000196203
0.000195336
0.000194458
0.00019299
0.000190298
0.000185519
0.000177965
0.000167038
0.000151537
0.000130908
0.000105492
8.02922e-05
6.57546e-05
6.84298e-05
8.34214e-05
8.80087e-05
7.38964e-05
7.18604e-05
0.000195198
0.000194701
3.44456e-05
4.08996e-05
4.6231e-05
5.14663e-05
5.99159e-05
6.78399e-05
7.61753e-05
8.47473e-05
9.3756e-05
0.000102866
0.000111229
0.000116898
0.000119244
0.000119951
0.000121478
0.000125217
0.000131362
0.000139044
0.000147032
0.000154759
0.000162122
0.000169401
0.000176132
0.000182536
0.000189007
0.000196027
0.000203648
0.000210766
0.000215273
0.000217247
0.000218041
0.000218305
0.000218306
0.000218064
0.000217033
0.000214533
0.000210734
0.000205962
0.000201704
0.000198505
0.000196122
0.000194029
0.000192032
0.00018952
0.000185452
0.000178254
0.000166416
0.000148274
0.000126324
0.000103472
8.1176e-05
6.55177e-05
6.71786e-05
7.95471e-05
9.08531e-05
9.15034e-05
7.26646e-05
7.44077e-05
0.000195221
0.000194567
2.94827e-05
5.02678e-05
5.76529e-05
5.88298e-05
6.42911e-05
7.05376e-05
7.76011e-05
8.48789e-05
9.20249e-05
9.85671e-05
0.000103865
0.000106994
0.000108039
0.000108865
0.000110413
0.000113112
0.000117274
0.000122887
0.0001297
0.000137005
0.000143836
0.000150237
0.000157686
0.000166797
0.00017657
0.000186646
0.000197388
0.000208453
0.000217587
0.000222993
0.00022535
0.000225858
0.00022503
0.000222865
0.000219502
0.000215466
0.000211247
0.000207827
0.000205444
0.000203633
0.000202102
0.000200479
0.000198197
0.000194721
0.000189486
0.000181377
0.000169698
0.00015425
0.000135044
0.000113015
9.03829e-05
7.27431e-05
6.62806e-05
7.07598e-05
7.9516e-05
8.37209e-05
8.23895e-05
8.5174e-05
0.000195307
0.000194662
2.75729e-05
3.9614e-05
5.22603e-05
5.80852e-05
6.37262e-05
6.87579e-05
7.33338e-05
7.73811e-05
8.05866e-05
8.26097e-05
8.36494e-05
8.49048e-05
8.82432e-05
9.47612e-05
0.000103822
0.000113826
0.00012352
0.000132134
0.000140293
0.000148581
0.000156211
0.000162081
0.000165928
0.000169141
0.000173564
0.000180851
0.000190525
0.000201605
0.00021253
0.000220824
0.000224423
0.000224488
0.000222505
0.000219339
0.000215177
0.000210776
0.000206547
0.000202462
0.000198759
0.000195435
0.000192137
0.00018832
0.000183489
0.000177368
0.00016905
0.000158014
0.00014505
0.000130529
0.000115091
9.96487e-05
8.5035e-05
7.34917e-05
6.85324e-05
7.1026e-05
7.84394e-05
8.41148e-05
8.03853e-05
8.66933e-05
0.000195242
0.000194857
3.24553e-05
4.48806e-05
5.72738e-05
6.86283e-05
7.6657e-05
8.38441e-05
9.1038e-05
9.81838e-05
0.000104451
0.000109737
0.000114217
0.000119296
0.000126021
0.000133846
0.000141419
0.000147351
0.000154293
0.000163277
0.000172276
0.000180172
0.000187066
0.000192644
0.000196348
0.000197845
0.00019888
0.000201324
0.000205841
0.000212389
0.000218977
0.000223043
0.00022378
0.00022222
0.000219338
0.00021566
0.000211673
0.000207433
0.000202582
0.00019785
0.000193861
0.000189951
0.0001851
0.000178679
0.000170673
0.000161012
0.00015
0.000138785
0.000127895
0.000116913
0.000105815
9.44965e-05
8.38279e-05
7.59376e-05
7.35448e-05
7.51835e-05
8.07355e-05
8.35389e-05
7.98974e-05
8.51103e-05
0.000195006
0.000194628
3.07693e-05
3.97626e-05
5.05963e-05
6.08444e-05
7.08776e-05
8.02513e-05
9.07899e-05
0.000103789
0.000116087
0.000128649
0.000139494
0.000145278
0.000146937
0.000147286
0.000148466
0.000153061
0.00016147
0.000172339
0.000183646
0.000193694
0.000201932
0.000208091
0.000212294
0.000215106
0.000216859
0.000217674
0.000219234
0.000221759
0.000224937
0.000226351
0.000225029
0.000221763
0.000217772
0.00021373
0.000209879
0.000205973
0.000201656
0.000198091
0.000195154
0.0001918
0.00018709
0.00018064
0.000171914
0.000160338
0.0001468
0.000133513
0.000121298
0.000109528
9.83121e-05
8.85689e-05
8.08174e-05
7.57879e-05
7.49818e-05
7.67535e-05
7.9611e-05
7.57955e-05
5.75139e-05
6.74513e-05
0.000193868
0.000194939
1.55928e-05
2.03074e-05
2.60055e-05
3.23593e-05
3.95819e-05
4.7497e-05
5.65412e-05
6.69219e-05
7.82433e-05
9.00666e-05
0.000100348
0.000107012
0.000110669
0.000114251
0.000119079
0.000126392
0.000136444
0.000148096
0.000159599
0.000170093
0.000179962
0.000188324
0.000195525
0.000201692
0.000206062
0.000208113
0.00020925
0.000209423
0.000207391
0.000202434
0.000195817
0.000188248
0.000180677
0.000173177
0.000165636
0.000158994
0.000154495
0.000152409
0.00015176
0.000150708
0.000147526
0.000142098
0.000135308
0.000126346
0.000114617
0.000103722
9.36356e-05
8.25763e-05
7.32019e-05
6.93982e-05
7.01875e-05
7.39208e-05
7.9325e-05
8.17541e-05
8.35755e-05
7.70288e-05
5.34322e-05
5.88476e-05
0.000192688
0.000194671
9.72991e-06
1.00867e-05
1.19476e-05
1.43814e-05
1.71789e-05
2.03158e-05
2.39371e-05
2.82901e-05
3.34787e-05
3.93985e-05
4.53448e-05
5.07034e-05
5.53525e-05
6.01003e-05
6.62083e-05
7.40676e-05
8.37846e-05
9.47367e-05
0.000106134
0.000117653
0.000129197
0.00014018
0.000150079
0.000158268
0.000163784
0.000165741
0.00016375
0.000156802
0.00014529
0.000131863
0.000118419
0.00010564
9.41175e-05
8.38388e-05
7.47729e-05
6.82648e-05
6.48659e-05
6.31627e-05
6.23728e-05
6.30962e-05
6.77636e-05
6.96463e-05
6.85727e-05
6.35948e-05
5.59307e-05
5.24214e-05
5.16654e-05
5.31077e-05
5.75924e-05
6.37559e-05
7.38811e-05
8.46597e-05
9.22197e-05
9.29773e-05
9.04946e-05
7.80162e-05
6.34245e-05
5.84532e-05
0.000191724
0.000194358
1.76818e-05
1.19399e-05
9.26717e-06
8.61103e-06
8.57857e-06
9.0539e-06
9.69216e-06
1.05907e-05
1.17697e-05
1.33001e-05
1.51959e-05
1.74093e-05
1.97691e-05
2.19056e-05
2.50692e-05
2.92843e-05
3.47617e-05
4.15118e-05
4.9329e-05
5.80257e-05
6.73293e-05
7.67632e-05
8.56999e-05
9.33191e-05
9.87126e-05
0.000100618
9.60163e-05
8.55227e-05
7.21439e-05
5.90493e-05
4.74434e-05
3.78584e-05
3.04708e-05
2.51439e-05
2.19961e-05
2.14253e-05
2.20584e-05
2.27748e-05
2.36213e-05
2.47986e-05
2.64703e-05
2.84171e-05
3.07667e-05
3.35358e-05
3.6974e-05
4.15393e-05
4.71485e-05
5.37831e-05
6.15069e-05
7.07563e-05
8.28524e-05
9.47349e-05
9.84604e-05
9.68974e-05
9.2675e-05
7.10746e-05
6.78032e-05
6.01004e-05
0.000191063
0.000194394
3.11262e-05
2.43384e-05
1.99551e-05
1.76175e-05
1.5655e-05
1.45313e-05
1.3289e-05
1.22179e-05
1.107e-05
1.0181e-05
9.67253e-06
9.71526e-06
1.01606e-05
1.07746e-05
1.14304e-05
1.22051e-05
1.33505e-05
1.51631e-05
1.7783e-05
2.12073e-05
2.53285e-05
2.99535e-05
3.47548e-05
3.92653e-05
4.31195e-05
4.40489e-05
4.02127e-05
3.32342e-05
2.58998e-05
1.98582e-05
1.55541e-05
1.32061e-05
1.28176e-05
1.39396e-05
1.5343e-05
1.62365e-05
1.7066e-05
1.81613e-05
1.96467e-05
2.16247e-05
2.41767e-05
2.73641e-05
3.12317e-05
3.58441e-05
4.12613e-05
4.75914e-05
5.47815e-05
6.26508e-05
7.05727e-05
8.03179e-05
9.01573e-05
9.45695e-05
9.70717e-05
9.59975e-05
9.1605e-05
6.83996e-05
6.96514e-05
6.24358e-05
0.000189732
0.000194582
4.88308e-05
4.25632e-05
3.71256e-05
3.41576e-05
3.16854e-05
3.02139e-05
2.85967e-05
2.72553e-05
2.57753e-05
2.45221e-05
2.34916e-05
2.29146e-05
2.26344e-05
2.24931e-05
2.21106e-05
2.13116e-05
2.00737e-05
1.8466e-05
1.66067e-05
1.46282e-05
1.29877e-05
1.21617e-05
1.23138e-05
1.32465e-05
1.46447e-05
1.47953e-05
1.33273e-05
1.13375e-05
1.02978e-05
1.10357e-05
1.34007e-05
1.56876e-05
1.67334e-05
1.70267e-05
1.72366e-05
1.7711e-05
1.86011e-05
1.9895e-05
2.16425e-05
2.39152e-05
2.68031e-05
3.03647e-05
3.46281e-05
3.96613e-05
4.55533e-05
5.23792e-05
5.98367e-05
6.71832e-05
7.39984e-05
8.01893e-05
8.50243e-05
8.90544e-05
9.36702e-05
9.5323e-05
9.10276e-05
8.07393e-05
7.82355e-05
6.70239e-05
0.000190126
0.000194524
7.47636e-05
7.0983e-05
6.65227e-05
6.38767e-05
6.16848e-05
6.0125e-05
5.85484e-05
5.72068e-05
5.59041e-05
5.48e-05
5.38118e-05
5.29071e-05
5.19755e-05
5.09847e-05
4.98333e-05
4.84322e-05
4.67455e-05
4.48215e-05
4.27614e-05
4.0627e-05
3.85878e-05
3.68585e-05
3.58126e-05
3.53654e-05
3.46141e-05
3.46263e-05
3.60685e-05
3.82936e-05
4.02686e-05
4.17076e-05
4.26804e-05
4.32702e-05
4.35599e-05
4.36029e-05
4.34891e-05
4.33617e-05
4.33254e-05
4.33326e-05
4.33061e-05
4.31897e-05
4.30648e-05
4.29768e-05
4.31796e-05
4.44474e-05
4.74456e-05
5.24115e-05
5.89528e-05
6.37207e-05
6.65809e-05
6.80206e-05
6.91816e-05
7.09182e-05
7.52826e-05
8.50573e-05
8.52879e-05
7.95871e-05
7.39538e-05
5.55311e-05
0.000192003
9.67066e-05
9.6662e-05
9.66645e-05
9.66699e-05
9.66694e-05
9.66705e-05
9.66766e-05
9.66906e-05
9.67133e-05
9.6742e-05
9.67688e-05
9.6785e-05
9.67865e-05
9.67779e-05
9.67708e-05
9.67772e-05
9.68046e-05
9.68522e-05
9.69153e-05
9.69894e-05
9.70718e-05
9.71608e-05
9.72541e-05
9.73477e-05
9.74353e-05
9.74783e-05
9.74644e-05
9.74436e-05
9.74368e-05
9.74566e-05
9.74996e-05
9.75525e-05
9.75644e-05
9.75736e-05
9.75809e-05
9.75929e-05
9.76193e-05
9.76345e-05
9.76523e-05
9.76657e-05
9.76666e-05
9.7652e-05
9.76239e-05
9.75995e-05
9.76053e-05
9.76755e-05
9.78754e-05
9.82135e-05
9.86345e-05
9.92709e-05
0.000100137
0.000100851
0.000101055
0.000101032
0.000100257
9.89911e-05
9.84416e-05
9.8189e-05
9.63379e-05
9.61318e-05
9.70949e-05
9.70007e-05
9.70326e-05
9.70409e-05
9.70443e-05
9.7052e-05
9.70631e-05
9.70764e-05
9.70938e-05
9.71113e-05
9.71287e-05
9.71406e-05
9.71483e-05
9.71539e-05
9.71656e-05
9.71889e-05
9.72252e-05
9.72716e-05
9.73232e-05
9.73767e-05
9.74302e-05
9.74831e-05
9.7535e-05
9.75862e-05
9.76371e-05
9.76885e-05
9.77421e-05
9.77985e-05
9.78599e-05
9.79267e-05
9.80037e-05
9.80289e-05
9.80284e-05
9.80248e-05
9.80179e-05
9.80169e-05
9.8025e-05
9.80428e-05
9.80647e-05
9.80834e-05
9.80894e-05
9.8074e-05
9.80409e-05
9.8013e-05
9.80252e-05
9.80957e-05
9.82824e-05
9.86556e-05
9.94129e-05
0.000100732
0.000102037
0.000102443
0.000102029
0.00010098
9.95902e-05
9.85001e-05
9.80732e-05
9.86334e-05
9.70312e-05
9.65245e-05
0.000194598
7.11561e-05
6.81221e-05
6.32605e-05
5.99003e-05
5.73215e-05
5.55127e-05
5.38568e-05
5.26177e-05
5.14393e-05
5.04858e-05
4.95495e-05
4.8662e-05
4.76631e-05
4.66675e-05
4.56029e-05
4.45931e-05
4.36389e-05
4.28193e-05
4.21638e-05
4.16693e-05
4.1304e-05
4.10652e-05
4.0974e-05
4.10577e-05
4.13263e-05
4.17513e-05
4.22772e-05
4.28102e-05
4.33197e-05
4.38588e-05
4.44062e-05
4.49682e-05
4.55544e-05
4.61854e-05
4.68153e-05
4.72278e-05
4.73753e-05
4.76061e-05
4.80679e-05
4.86387e-05
4.89612e-05
4.87827e-05
4.79924e-05
4.68415e-05
4.56999e-05
4.48243e-05
4.4035e-05
4.36224e-05
4.45372e-05
4.8267e-05
5.58462e-05
6.54281e-05
7.27589e-05
7.7249e-05
7.86708e-05
7.47776e-05
6.77452e-05
6.30263e-05
0.000191913
0.000194639
4.36012e-05
3.80292e-05
3.2359e-05
2.86218e-05
2.573e-05
2.38304e-05
2.2043e-05
2.08318e-05
1.95861e-05
1.87262e-05
1.79676e-05
1.74421e-05
1.69759e-05
1.6601e-05
1.61096e-05
1.5569e-05
1.49199e-05
1.42022e-05
1.34635e-05
1.28075e-05
1.24061e-05
1.22068e-05
1.21613e-05
1.22431e-05
1.24304e-05
1.27296e-05
1.31211e-05
1.35486e-05
1.39278e-05
1.42021e-05
1.45408e-05
1.51514e-05
1.61375e-05
1.71334e-05
1.78073e-05
1.83202e-05
1.90166e-05
2.00501e-05
2.15173e-05
2.34484e-05
2.57794e-05
2.84013e-05
3.1194e-05
3.41512e-05
3.73482e-05
4.07527e-05
4.38813e-05
4.63225e-05
4.81688e-05
4.94509e-05
5.16842e-05
5.62779e-05
6.34373e-05
7.89046e-05
8.86684e-05
8.26701e-05
7.9227e-05
7.07487e-05
0.000189601
0.000194513
2.67419e-05
2.03844e-05
1.57953e-05
1.31954e-05
1.12153e-05
9.98363e-06
8.75526e-06
7.8811e-06
6.9902e-06
6.56961e-06
6.50879e-06
6.92567e-06
7.71189e-06
8.9049e-06
1.05551e-05
1.2837e-05
1.588e-05
1.97546e-05
2.44191e-05
2.98063e-05
3.47456e-05
3.89811e-05
4.24906e-05
4.51195e-05
4.64625e-05
4.62082e-05
4.43327e-05
4.13001e-05
3.76718e-05
3.41361e-05
3.03698e-05
2.62576e-05
2.22471e-05
1.94328e-05
1.87675e-05
1.93677e-05
2.05153e-05
2.19806e-05
2.37314e-05
2.58311e-05
2.83465e-05
3.13286e-05
3.47634e-05
3.8646e-05
4.3077e-05
4.81504e-05
5.36685e-05
5.9319e-05
6.48483e-05
7.0018e-05
7.53138e-05
8.21402e-05
9.37513e-05
0.000104646
0.000103807
8.07665e-05
7.94564e-05
7.06466e-05
0.000187689
0.000194597
1.6333e-05
1.03194e-05
6.8326e-06
5.43674e-06
5.04009e-06
5.46441e-06
6.37606e-06
7.82038e-06
9.79638e-06
1.24373e-05
1.58209e-05
2.00959e-05
2.53905e-05
3.20394e-05
4.04109e-05
5.07986e-05
6.31415e-05
7.69349e-05
9.12054e-05
0.000104585
0.000115982
0.000125379
0.000132676
0.000137556
0.0001398
0.000139121
0.000135617
0.000129485
0.000121235
0.000111369
0.000100236
8.77653e-05
7.40362e-05
6.05517e-05
4.91228e-05
4.04926e-05
3.47874e-05
3.18267e-05
3.03264e-05
3.01157e-05
3.09069e-05
3.27223e-05
3.56831e-05
3.94199e-05
4.38964e-05
4.92595e-05
5.54862e-05
6.25505e-05
7.07848e-05
8.11788e-05
9.10324e-05
0.000100532
0.000111716
0.000117096
0.000110635
8.69639e-05
7.24258e-05
6.07424e-05
0.000189523
0.000194852
6.59871e-06
4.51049e-06
4.81033e-06
5.88064e-06
7.43597e-06
9.60876e-06
1.26231e-05
1.67644e-05
2.23529e-05
2.96149e-05
3.85226e-05
4.8841e-05
6.00571e-05
7.21888e-05
8.55899e-05
0.00010046
0.000116429
0.000132631
0.000148245
0.00016267
0.00017544
0.000186231
0.000195064
0.000201738
0.000206143
0.000208088
0.000207807
0.000205422
0.000201252
0.000195304
0.00018718
0.000177056
0.000165023
0.000151613
0.000137098
0.000122773
0.00010875
9.55689e-05
8.27474e-05
7.13681e-05
6.12841e-05
5.22126e-05
4.51447e-05
4.09181e-05
4.18752e-05
4.60226e-05
5.13669e-05
5.79699e-05
6.59591e-05
7.55513e-05
8.60254e-05
9.79659e-05
0.000111079
0.000113584
0.000102842
7.96116e-05
6.24078e-05
5.45585e-05
0.000190823
0.000195262
6.64762e-06
8.48797e-06
1.11421e-05
1.44075e-05
1.86957e-05
2.4318e-05
3.15745e-05
4.066e-05
5.15798e-05
6.40551e-05
7.76569e-05
9.17592e-05
0.000104994
0.000116975
0.000128698
0.000141038
0.000154212
0.00016753
0.000180581
0.000192816
0.000204045
0.000213862
0.000222286
0.000229211
0.000234276
0.000237416
0.000238778
0.000238674
0.000237531
0.000235416
0.000231913
0.000227122
0.000220967
0.000213701
0.000205541
0.000196648
0.000187211
0.000178458
0.000169511
0.000160318
0.000149865
0.000135847
0.000118793
9.95417e-05
7.88829e-05
6.0353e-05
5.43536e-05
5.68212e-05
6.18633e-05
6.87227e-05
7.69437e-05
8.70349e-05
9.90254e-05
0.000102617
9.57232e-05
7.6543e-05
5.52755e-05
5.62427e-05
0.000191053
0.000195546
1.67342e-05
2.30311e-05
3.12074e-05
4.00271e-05
5.01276e-05
6.14743e-05
7.40792e-05
8.78348e-05
0.000102291
0.000116367
0.000129239
0.000140767
0.000149851
0.000156319
0.000162184
0.000168738
0.000176787
0.0001857
0.000195287
0.000205255
0.000215115
0.000224062
0.000231917
0.00023859
0.000243928
0.000247777
0.000250121
0.000251116
0.000251092
0.000250249
0.000248687
0.000246469
0.000243403
0.000239459
0.000234658
0.000229104
0.000223033
0.000216611
0.000210251
0.000204475
0.000199504
0.000194392
0.000187457
0.000176385
0.000160004
0.000136968
0.00011064
9.18047e-05
8.14354e-05
7.7082e-05
7.67931e-05
8.16548e-05
8.93719e-05
9.26472e-05
8.81832e-05
7.21197e-05
4.58179e-05
5.5954e-05
0.000191944
0.000194733
3.53882e-05
4.63016e-05
5.9038e-05
7.15727e-05
8.47755e-05
9.82403e-05
0.000112238
0.000126179
0.00013978
0.000152119
0.000162692
0.000170662
0.000176358
0.000179673
0.000180888
0.000181877
0.000184273
0.000188017
0.000193524
0.00020138
0.000210599
0.000219662
0.000227747
0.000234703
0.000240527
0.000245139
0.000248484
0.000250604
0.000251665
0.000251853
0.000251385
0.000250517
0.000249286
0.000247613
0.000245458
0.000242836
0.000239593
0.000235683
0.000231541
0.000227732
0.000224513
0.000221521
0.000217503
0.000210846
0.000201395
0.000189694
0.000176424
0.000161421
0.000144274
0.000125812
0.000108539
9.57259e-05
8.81203e-05
8.50913e-05
8.17575e-05
6.94632e-05
5.69062e-05
6.48482e-05
0.000193332
0.000194808
4.81402e-05
6.41968e-05
7.7092e-05
8.9584e-05
0.000101314
0.000110847
0.000120279
0.000129187
0.000137649
0.000145442
0.000152451
0.000158533
0.00016366
0.00016716
0.000169249
0.00017042
0.000170698
0.000171699
0.000175335
0.000182218
0.000191393
0.000201023
0.000209591
0.000216865
0.000222959
0.00022789
0.000231634
0.00023421
0.000235743
0.000236369
0.000236255
0.000235587
0.00023441
0.000232722
0.000230542
0.000228063
0.000225464
0.00022278
0.00022004
0.000217556
0.000215246
0.000212742
0.00020916
0.000203283
0.000194523
0.000183372
0.000170232
0.000155313
0.000138987
0.000122211
0.00010682
9.55459e-05
8.86315e-05
8.33276e-05
7.79184e-05
7.02872e-05
6.6438e-05
8.58139e-05
0.000194959
0.000194674
3.27879e-05
6.51635e-05
7.5762e-05
8.43944e-05
9.27534e-05
0.000100741
0.000108238
0.000115585
0.000122549
0.000128307
0.000133078
0.000138008
0.000143793
0.000149224
0.000153239
0.000156423
0.000159958
0.000164262
0.000168935
0.000173534
0.000179149
0.000186783
0.000194625
0.000201371
0.000206857
0.000211259
0.00021453
0.00021655
0.000217378
0.000217234
0.000216367
0.000214982
0.000213155
0.000210841
0.000207867
0.000204385
0.00020115
0.000198434
0.000196356
0.000195087
0.000194359
0.000193668
0.000192137
0.000188519
0.000181794
0.000171917
0.000159226
0.000144482
0.000128342
0.000111622
9.58361e-05
8.40595e-05
7.61833e-05
7.04203e-05
6.79176e-05
6.74671e-05
7.21604e-05
9.39053e-05
0.000195172
0.000194608
2.52807e-05
4.82922e-05
5.64615e-05
6.20291e-05
6.6848e-05
7.10616e-05
7.51774e-05
7.87496e-05
8.11595e-05
8.27317e-05
8.48067e-05
8.83559e-05
9.32277e-05
9.88848e-05
0.000105077
0.000112121
0.000121299
0.000132753
0.00014509
0.00015731
0.000169457
0.000180755
0.000189037
0.000195156
0.000199651
0.000202704
0.00020471
0.000205906
0.000206338
0.000205952
0.000204705
0.000202576
0.000199608
0.000195956
0.000191899
0.000187657
0.00018349
0.000180075
0.000178282
0.000178156
0.000178995
0.000179714
0.000179179
0.000176178
0.000170077
0.00015997
0.000145589
0.000128044
0.000109226
9.06666e-05
7.51182e-05
6.49367e-05
5.93931e-05
5.72399e-05
6.05435e-05
6.59954e-05
6.65713e-05
8.70957e-05
0.000195236
0.000194356
2.91534e-05
5.16491e-05
6.30602e-05
6.76185e-05
7.3277e-05
7.86828e-05
8.38446e-05
8.87532e-05
9.3735e-05
9.8549e-05
0.000102566
0.000105966
0.000108138
0.000108854
0.000109193
0.000112501
0.000120545
0.000131828
0.000144342
0.000156739
0.00016885
0.000179599
0.000188014
0.00019459
0.00019993
0.000204263
0.000207593
0.000209853
0.000210982
0.000211162
0.000210666
0.000209493
0.000207309
0.00020381
0.000199257
0.000194249
0.000189153
0.000184708
0.000181935
0.000181084
0.000181246
0.00018124
0.000180018
0.000176375
0.000169166
0.000157481
0.000141577
0.000123061
0.000103691
8.58846e-05
7.15727e-05
6.15544e-05
5.61248e-05
5.43869e-05
5.8992e-05
6.67203e-05
6.69392e-05
8.68279e-05
0.000195259
0.000194559
3.12211e-05
4.63768e-05
5.77605e-05
6.57281e-05
7.35614e-05
8.09281e-05
8.84847e-05
9.5677e-05
0.000102678
0.000109622
0.000115631
0.000120273
0.000123385
0.00012579
0.00012761
0.000129253
0.000133866
0.000142681
0.000154095
0.000166151
0.00017891
0.000191416
0.000202289
0.00021082
0.00021741
0.000222532
0.00022657
0.000229488
0.000231222
0.000231809
0.000231321
0.000229822
0.00022738
0.00022404
0.000220006
0.00021555
0.000210643
0.000205917
0.000202694
0.0002009
0.000199486
0.000197614
0.0001946
0.000189049
0.000179693
0.00016609
0.000148884
0.000129853
0.000110671
9.26624e-05
7.77525e-05
6.79997e-05
6.42325e-05
6.36524e-05
6.62474e-05
7.21386e-05
7.43886e-05
8.81998e-05
0.000195403
0.000194303
4.10102e-05
5.3831e-05
5.98961e-05
6.79818e-05
7.64163e-05
8.54998e-05
9.49132e-05
0.000104498
0.000113527
0.000121874
0.000129114
0.000134315
0.000138495
0.000142441
0.000145862
0.00014914
0.000153735
0.000162236
0.000173693
0.000186558
0.000199572
0.000211752
0.000222231
0.000230458
0.000236826
0.000241719
0.000245261
0.000247534
0.00024874
0.000248884
0.000247858
0.000245764
0.000242838
0.000239096
0.000234662
0.00022956
0.000223365
0.000217008
0.000212149
0.000208773
0.000205738
0.000201797
0.000195975
0.000187095
0.000174863
0.000159761
0.000142454
0.000123927
0.000105669
8.91033e-05
7.54338e-05
6.59276e-05
6.19166e-05
6.41297e-05
7.50495e-05
7.92436e-05
7.33453e-05
7.97628e-05
0.00019561
0.000194515
4.71282e-05
5.30196e-05
6.1219e-05
7.12594e-05
8.16265e-05
9.24311e-05
0.000103388
0.000115448
0.000127664
0.000138202
0.00014555
0.000150696
0.000154506
0.000158525
0.000163467
0.000169674
0.000176911
0.000185025
0.000194876
0.000206246
0.000218506
0.000230618
0.000240363
0.000247232
0.000251784
0.000254641
0.000256548
0.000257911
0.000258771
0.000259077
0.000258722
0.000257493
0.000255215
0.000251723
0.000246671
0.000239489
0.000230389
0.000221771
0.000215117
0.000210664
0.000206747
0.000200149
0.00019002
0.000175504
0.000158609
0.000140666
0.000122199
0.000103958
8.74514e-05
7.42541e-05
6.48239e-05
5.9995e-05
6.08938e-05
7.04574e-05
8.20975e-05
8.15817e-05
6.33067e-05
5.81235e-05
0.000194986
0.000194985
4.37545e-05
5.62374e-05
6.96958e-05
8.15504e-05
9.40585e-05
0.000105549
0.000117215
0.000128884
0.000140941
0.000152641
0.000160601
0.000165969
0.00016997
0.000174621
0.000180367
0.000186965
0.000193978
0.000201344
0.000209743
0.000219004
0.000229035
0.000238942
0.000246802
0.000252128
0.000255642
0.000258096
0.000259855
0.000261092
0.000261837
0.000262051
0.000261769
0.000260936
0.000259142
0.000255643
0.000249933
0.0002423
0.000234829
0.000228586
0.000223534
0.00021881
0.000213102
0.00020554
0.000195798
0.000182213
0.000164706
0.00014508
0.000124396
0.00010401
8.53028e-05
7.16444e-05