/*--------------------------------*- C++ -*----------------------------------*\
| =========                 |                                                 |
| \\      /  F ield         | OpenFOAM: The Open Source CFD Toolbox           |
|  \\    /   O peration     | Version:  2.1.1                                 |
|   \\  /    A nd           | Web:      www.OpenFOAM.org                      |
|    \\/     M anipulation  |                                                 |
\*---------------------------------------------------------------------------*/
FoamFile
{
    version     2.0;
    format      ascii;
    class       volScalarField;
    location    "0.00145";
    object      nut;
}
// * * * * * * * * * * * * * * * * * * * * * * * * * * * * * * * * * * * * * //

dimensions      [0 2 -1 0 0 0 0];

internalField   nonuniform List<scalar> 
36520
(
1.07384e-05
1.3618e-05
1.89228e-05
2.11967e-05
2.29915e-05
2.42707e-05
2.53805e-05
2.63382e-05
2.71954e-05
2.79434e-05
2.85729e-05
2.91111e-05
2.95661e-05
2.99908e-05
3.03786e-05
3.07654e-05
3.11159e-05
3.13988e-05
3.15431e-05
3.14946e-05
3.12069e-05
3.06481e-05
2.97956e-05
2.86585e-05
2.7285e-05
2.59316e-05
2.47194e-05
2.3704e-05
2.28611e-05
2.21294e-05
2.14327e-05
2.07196e-05
1.99523e-05
1.91346e-05
1.83373e-05
1.75912e-05
1.69263e-05
1.63872e-05
1.60204e-05
1.58874e-05
1.60455e-05
1.65561e-05
1.74705e-05
1.87896e-05
2.04834e-05
2.25086e-05
2.47697e-05
2.70641e-05
2.91701e-05
3.10951e-05
3.38019e-05
3.90327e-05
4.63701e-05
5.30003e-05
5.4912e-05
5.50799e-05
5.14277e-05
4.42589e-05
2.42852e-05
1.91881e-05
1.92183e-05
8.788e-06
9.74331e-06
9.30431e-06
9.10005e-06
8.89516e-06
8.83943e-06
8.74188e-06
8.6437e-06
8.4713e-06
8.27988e-06
8.07696e-06
7.92766e-06
7.80096e-06
7.70132e-06
7.55643e-06
7.31149e-06
6.89387e-06
6.28626e-06
5.50215e-06
4.58722e-06
3.65466e-06
2.82086e-06
2.31705e-06
2.19148e-06
2.10768e-06
2.23666e-06
2.44517e-06
2.47767e-06
2.43556e-06
2.36656e-06
2.28927e-06
2.21939e-06
2.16761e-06
2.14436e-06
2.15525e-06
2.2001e-06
2.27963e-06
2.41386e-06
2.63985e-06
3.005e-06
3.55334e-06
4.30781e-06
5.24314e-06
6.32725e-06
7.55106e-06
8.89032e-06
1.03317e-05
1.19617e-05
1.38187e-05
1.65508e-05
2.1139e-05
2.80556e-05
3.62194e-05
4.21241e-05
5.18047e-05
4.39147e-05
3.26277e-05
1.09132e-05
3.90128e-05
1.38313e-05
3.34294e-06
3.3371e-06
2.85416e-06
2.58654e-06
2.36663e-06
2.26931e-06
2.15394e-06
2.05823e-06
1.92089e-06
1.78541e-06
1.65695e-06
1.57479e-06
1.54094e-06
1.56281e-06
1.62297e-06
1.71855e-06
1.85674e-06
2.08514e-06
2.46391e-06
3.03353e-06
3.78636e-06
4.66496e-06
5.58413e-06
5.92493e-06
4.43485e-06
2.3372e-06
1.00975e-06
5.04877e-07
3.44246e-07
2.96167e-07
2.88028e-07
2.97909e-07
3.20617e-07
3.55037e-07
3.9945e-07
4.52742e-07
5.17989e-07
6.06327e-07
7.34094e-07
9.21775e-07
1.1919e-06
1.56426e-06
2.05245e-06
2.67872e-06
3.50071e-06
4.61669e-06
6.1885e-06
8.48718e-06
1.19791e-05
1.72848e-05
2.36906e-05
3.12674e-05
3.3922e-05
3.04993e-05
2.83274e-05
2.51533e-05
2.61687e-05
1.33229e-05
3.75139e-05
1.00266e-05
1.24058e-06
1.0339e-06
7.83398e-07
6.58715e-07
5.69675e-07
5.39042e-07
5.20073e-07
5.35765e-07
5.82727e-07
7.02752e-07
9.29799e-07
1.31726e-06
1.92859e-06
2.8666e-06
4.26527e-06
6.34235e-06
9.38165e-06
1.36891e-05
1.93645e-05
2.60912e-05
3.29033e-05
3.83248e-05
4.10257e-05
3.89657e-05
2.94372e-05
1.72407e-05
8.38318e-06
4.21898e-06
2.53693e-06
1.80102e-06
1.42443e-06
1.18091e-06
9.68484e-07
7.70605e-07
6.08955e-07
5.24179e-07
5.10042e-07
5.3862e-07
5.92402e-07
6.81861e-07
8.28501e-07
1.05016e-06
1.3531e-06
1.7606e-06
2.3389e-06
3.19366e-06
4.50454e-06
6.53615e-06
9.55732e-06
1.39489e-05
2.21757e-05
2.99418e-05
3.07097e-05
2.5727e-05
2.02789e-05
1.80131e-05
1.87943e-05
1.30733e-05
3.59572e-05
7.97676e-06
4.17939e-07
3.04982e-07
2.54029e-07
2.86882e-07
3.76894e-07
5.46628e-07
8.33056e-07
1.31952e-06
2.13868e-06
3.47981e-06
5.55186e-06
8.52227e-06
1.25818e-05
1.80543e-05
2.52992e-05
3.50377e-05
4.82644e-05
6.57717e-05
8.77852e-05
0.00011332
0.00013959
0.00016033
0.000165511
0.00015104
0.000120466
8.22312e-05
5.00439e-05
3.17634e-05
2.32679e-05
1.92269e-05
1.70291e-05
1.54862e-05
1.39484e-05
1.2168e-05
1.00829e-05
8.29753e-06
6.98498e-06
6.27618e-06
6.08302e-06
5.61031e-06
4.64039e-06
3.1483e-06
1.76505e-06
1.63232e-06
1.92175e-06
2.42735e-06
3.20513e-06
4.41455e-06
6.24252e-06
8.84366e-06
1.31118e-05
1.70714e-05
1.86257e-05
1.83097e-05
1.59868e-05
1.27977e-05
1.38604e-05
1.157e-05
3.43817e-05
7.62903e-06
2.74782e-07
3.8931e-07
6.24712e-07
1.02193e-06
1.70204e-06
2.79856e-06
4.58972e-06
7.49713e-06
1.20834e-05
1.88484e-05
2.78023e-05
3.82063e-05
4.95211e-05
6.19896e-05
7.63489e-05
9.42434e-05
0.000117543
0.000147198
0.000182699
0.000223267
0.000267831
0.00031157
0.000335111
0.000321922
0.000285553
0.000231184
0.000173837
0.000133245
0.000110208
9.74966e-05
9.00015e-05
8.53557e-05
8.22832e-05
7.97271e-05
7.56594e-05
7.12223e-05
6.63871e-05
6.23249e-05
6.00797e-05
5.62808e-05
5.05788e-05
4.13202e-05
2.86942e-05
2.09026e-05
1.64936e-05
1.33204e-05
9.71472e-06
6.89058e-06
5.82615e-06
6.75489e-06
8.56777e-06
1.0407e-05
1.21788e-05
1.48132e-05
1.63355e-05
1.26509e-05
9.75145e-06
1.01304e-05
3.21179e-05
1.05404e-05
9.39989e-07
1.72375e-06
3.01279e-06
4.91281e-06
7.95667e-06
1.24174e-05
1.90317e-05
2.87273e-05
4.25459e-05
6.03346e-05
8.07559e-05
0.0001002
0.000116612
0.000131751
0.000146978
0.000166427
0.000193133
0.000223956
0.000257673
0.000291721
0.000326273
0.000362423
0.000393353
0.000402761
0.000389482
0.000358555
0.000317988
0.000278251
0.000247002
0.000222896
0.000203492
0.000187714
0.000176029
0.000169734
0.000167061
0.000166655
0.000166638
0.000165737
0.00016416
0.000160952
0.000154222
0.000145843
0.000127178
0.000104106
8.46152e-05
6.98526e-05
5.62019e-05
4.25579e-05
3.0589e-05
2.27784e-05
1.78702e-05
1.55802e-05
1.57755e-05
1.85492e-05
2.18412e-05
1.55728e-05
8.05834e-06
9.77868e-06
3.06154e-05
1.79689e-05
3.28896e-06
6.02788e-06
1.04971e-05
1.62302e-05
2.46458e-05
3.48097e-05
4.78734e-05
6.40521e-05
8.62946e-05
0.000108912
0.00012879
0.000145358
0.000161157
0.000177279
0.000193069
0.00020965
0.000228123
0.000248751
0.000268782
0.000287503
0.000306113
0.000326672
0.000350473
0.000372293
0.000381867
0.000376476
0.000361823
0.000347363
0.000333408
0.000316599
0.00029531
0.000271467
0.000249274
0.000232264
0.000221686
0.0002161
0.000213833
0.000212969
0.000213264
0.00021391
0.000212136
0.00020752
0.000198498
0.000180725
0.000155134
0.000127675
0.000102204
7.989e-05
6.16987e-05
4.77037e-05
3.70254e-05
2.9803e-05
2.69232e-05
2.80592e-05
3.01731e-05
2.14482e-05
1.18779e-05
1.05564e-05
2.9772e-05
2.55134e-05
8.12725e-06
1.75288e-05
2.93291e-05
3.98766e-05
5.6259e-05
6.72173e-05
7.69071e-05
8.60301e-05
9.59806e-05
0.000107091
0.000118194
0.000126986
0.000133313
0.000140898
0.000150644
0.000159719
0.000168033
0.000177941
0.000191339
0.00020718
0.000223891
0.000240199
0.000253679
0.000263748
0.000272643
0.000279014
0.000280885
0.000280553
0.000280812
0.000281786
0.000281948
0.000276518
0.000262562
0.00024587
0.000231786
0.000221302
0.000214129
0.000209034
0.000205227
0.000202261
0.000199167
0.000195436
0.000190596
0.000182616
0.00016986
0.00015204
0.000130984
0.000108839
8.70912e-05
6.69804e-05
5.02099e-05
3.85448e-05
3.26497e-05
3.10122e-05
3.05138e-05
2.4249e-05
1.55284e-05
1.24074e-05
2.9034e-05
2.20767e-05
6.09216e-06
1.5101e-05
2.2009e-05
2.92149e-05
3.54557e-05
4.07795e-05
4.57003e-05
5.06706e-05
5.59476e-05
6.25968e-05
7.13195e-05
8.06593e-05
8.73531e-05
9.15349e-05
9.59638e-05
0.000102149
0.000110648
0.000121395
0.000134167
0.000147574
0.000160944
0.000174506
0.000186919
0.000196588
0.000204046
0.000210192
0.000215369
0.000221215
0.000228339
0.000236313
0.000243881
0.000249514
0.000251834
0.000247755
0.000235194
0.000218737
0.000204113
0.00019346
0.000186873
0.000183326
0.000181634
0.000180948
0.000180132
0.00017735
0.000171115
0.000160119
0.000144658
0.000125672
0.000104071
8.14511e-05
5.99924e-05
4.27826e-05
3.18865e-05
2.65046e-05
2.38537e-05
1.88261e-05
1.40494e-05
1.44064e-05
2.83761e-05
1.79841e-05
4.31201e-06
1.75547e-05
2.7223e-05
3.34849e-05
3.95082e-05
4.41923e-05
4.82136e-05
5.26214e-05
5.85445e-05
6.68943e-05
7.80105e-05
8.89908e-05
9.51878e-05
9.69038e-05
9.92462e-05
0.000104581
0.000112358
0.000121137
0.000130283
0.000140287
0.000152149
0.000165249
0.000177391
0.000188487
0.000198736
0.000207866
0.00021725
0.000226107
0.000234619
0.000243243
0.000251568
0.000259122
0.000265029
0.000267137
0.000261396
0.00024734
0.000230985
0.000217591
0.000208857
0.000204855
0.000203562
0.000203538
0.000203414
0.000201803
0.000197264
0.000188875
0.000175834
0.000157364
0.000133799
0.000106854
7.83068e-05
5.18291e-05
3.55598e-05
2.82388e-05
2.74829e-05
2.35442e-05
1.64742e-05
1.5016e-05
2.98982e-05
2.06068e-05
5.94348e-06
1.1089e-05
1.62269e-05
2.12109e-05
2.979e-05
3.66505e-05
4.46547e-05
5.45231e-05
6.68265e-05
8.09097e-05
9.44762e-05
0.000102925
0.000103748
0.00010146
0.000101573
0.000105884
0.000114044
0.00012443
0.000134758
0.000144111
0.000151916
0.000160231
0.000170343
0.000182828
0.000198997
0.000217803
0.0002306
0.000238796
0.000249873
0.000260579
0.000269512
0.000277084
0.00028267
0.00028332
0.000275509
0.00026071
0.000244232
0.000229153
0.000219875
0.000215918
0.000214571
0.000215367
0.000215698
0.000213702
0.000208513
0.000198735
0.00018322
0.000161061
0.000131936
9.82615e-05
6.33559e-05
3.54859e-05
2.21746e-05
2.10888e-05
3.06415e-05
3.30439e-05
1.91121e-05
1.4307e-05
3.17073e-05
2.14094e-05
5.75218e-06
9.32879e-06
1.28746e-05
1.6466e-05
2.33276e-05
3.06494e-05
3.95533e-05
5.03134e-05
6.33203e-05
7.82747e-05
9.2673e-05
0.000100522
9.99471e-05
9.51503e-05
9.16949e-05
9.20806e-05
9.63352e-05
0.00010306
0.000110478
0.00011799
0.00012464
0.000130745
0.000139703
0.00015262
0.000170655
0.000195399
0.000224801
0.00024759
0.000260594
0.000269839
0.000276781
0.000282408
0.00028652
0.000287128
0.000280144
0.000265278
0.000248262
0.000232333
0.000222014
0.00021784
0.000216279
0.000215405
0.000214128
0.000211195
0.000205308
0.000194249
0.000174165
0.000139145
9.84404e-05
6.3461e-05
3.69423e-05
2.19915e-05
2.06171e-05
2.62293e-05
3.50591e-05
3.54288e-05
1.89172e-05
1.52072e-05
3.20585e-05
1.93656e-05
4.79393e-06
1.88605e-05
2.73982e-05
2.71795e-05
3.11284e-05
3.6317e-05
4.30776e-05
5.07112e-05
5.88739e-05
6.69523e-05
7.38557e-05
7.72889e-05
7.69466e-05
7.66058e-05
7.81992e-05
8.14927e-05
8.55547e-05
8.98595e-05
9.48522e-05
0.000100957
0.0001062
0.000109192
0.000113144
0.000122138
0.000137113
0.000159196
0.000189943
0.000224255
0.000249529
0.000264429
0.000273499
0.000278793
0.000281427
0.000281457
0.000277253
0.000264951
0.000246817
0.000230678
0.00021944
0.000212373
0.000207908
0.000204776
0.000200932
0.000194998
0.000186561
0.000174086
0.000156372
0.000132234
0.000102381
7.15092e-05
4.46347e-05
2.70732e-05
1.99985e-05
2.00314e-05
2.40894e-05
2.36943e-05
1.92867e-05
1.71518e-05
3.1428e-05
2.04421e-05
3.70849e-06
9.17782e-06
1.899e-05
2.32056e-05
2.74943e-05
3.11811e-05
3.45455e-05
3.74954e-05
3.96133e-05
4.03516e-05
4.01374e-05
4.17811e-05
4.74065e-05
5.83649e-05
7.37012e-05
9.03716e-05
0.000106058
0.000118541
0.000128962
0.000139361
0.000148317
0.000153127
0.000152552
0.000149751
0.000148337
0.00015591
0.000175499
0.000206953
0.000241346
0.000267135
0.000280008
0.000285669
0.000287395
0.00028302
0.000268958
0.000250727
0.000234764
0.000221686
0.000211476
0.000203107
0.000195788
0.00018843
0.000178597
0.000166255
0.000151082
0.000132128
0.000111785
9.08263e-05
7.04158e-05
5.22539e-05
3.70906e-05
2.60416e-05
2.05187e-05
1.96587e-05
2.2329e-05
2.2045e-05
1.72762e-05
1.61313e-05
3.06063e-05
2.26294e-05
5.40998e-06
1.20238e-05
2.15014e-05
3.20324e-05
4.08638e-05
4.96222e-05
5.91121e-05
6.94491e-05
7.95229e-05
8.91117e-05
9.90304e-05
0.000113238
0.00013442
0.000160392
0.000183384
0.000194518
0.000200985
0.000211183
0.000224943
0.000238177
0.000248795
0.000255166
0.000256743
0.000250941
0.000241571
0.000241165
0.000254407
0.000278216
0.000297146
0.000305337
0.00030536
0.000299334
0.000288387
0.000273552
0.00025773
0.000243494
0.000229369
0.000215431
0.000204172
0.000194589
0.000183687
0.000170241
0.000154628
0.000137334
0.000118313
0.00010017
8.4293e-05
6.99488e-05
5.67629e-05
4.45949e-05
3.40194e-05
2.63595e-05
2.27885e-05
2.18077e-05
2.34772e-05
2.17896e-05
1.67819e-05
1.5316e-05
3.0411e-05
1.89589e-05
3.69831e-06
6.88943e-06
1.22473e-05
1.91641e-05
2.80729e-05
3.88463e-05
5.3652e-05
7.63924e-05
0.000102582
0.000133339
0.000164386
0.000182775
0.000185265
0.000178803
0.000174151
0.00018102
0.000200518
0.00023033
0.00026477
0.000296754
0.000322221
0.000338806
0.000347141
0.000352844
0.000359558
0.00036288
0.000362359
0.000353533
0.000343233
0.000334418
0.000321541
0.000303785
0.000284807
0.000266958
0.00025097
0.000235186
0.000219044
0.000207565
0.000200757
0.000195005
0.000186826
0.000175616
0.000160592
0.000140693
0.000117322
9.54708e-05
7.76374e-05
6.26346e-05
4.97872e-05
3.97493e-05
3.26044e-05
2.77094e-05
2.57195e-05
2.55162e-05
2.69771e-05
2.17113e-05
1.16703e-05
1.20143e-05
3.14858e-05
1.045e-05
7.96102e-07
1.45753e-06
2.54238e-06
4.14198e-06
6.55543e-06
1.00589e-05
1.52653e-05
2.29627e-05
3.34967e-05
4.70198e-05
6.11372e-05
7.16144e-05
7.72209e-05
8.03527e-05
8.79979e-05
0.00010281
0.000124642
0.000153054
0.000183913
0.000213513
0.000242809
0.000268909
0.000291445
0.000310083
0.00032082
0.00032005
0.000312026
0.000298978
0.000282516
0.000261118
0.000237005
0.000212421
0.00019018
0.000170359
0.000152071
0.000137254
0.000128951
0.00012638
0.000126837
0.000125708
0.000120837
0.000113349
0.000104068
9.18803e-05
7.56826e-05
6.23657e-05
5.27328e-05
4.35029e-05
3.5791e-05
3.27736e-05
3.25442e-05
3.35364e-05
3.51801e-05
3.3711e-05
3.24341e-05
2.36055e-05
1.16818e-05
1.13445e-05
3.30899e-05
8.28038e-06
2.2552e-07
2.82441e-07
4.24894e-07
6.44842e-07
9.63032e-07
1.41316e-06
2.06311e-06
3.03303e-06
4.45407e-06
6.43729e-06
8.85352e-06
1.14406e-05
1.40014e-05
1.62056e-05
2.03044e-05
2.63991e-05
3.50477e-05
4.64084e-05
6.01899e-05
7.63259e-05
9.48958e-05
0.000114979
0.000135348
0.000154296
0.000169284
0.000175472
0.000169044
0.000150541
0.000124492
9.85745e-05
7.66921e-05
5.91357e-05
4.56279e-05
3.51643e-05
2.69731e-05
2.17181e-05
1.93782e-05
1.84843e-05
1.8383e-05
1.94261e-05
2.36151e-05
2.58633e-05
2.57509e-05
2.25887e-05
1.77072e-05
1.60339e-05
1.59842e-05
1.69677e-05
2.00523e-05
2.49232e-05
3.37929e-05
4.32677e-05
4.59003e-05
4.324e-05
3.8381e-05
2.55314e-05
1.65631e-05
1.3064e-05
3.5273e-05
8.9679e-06
4.22705e-07
2.33079e-07
1.68639e-07
1.66124e-07
1.82973e-07
2.19657e-07
2.68737e-07
3.40018e-07
4.42917e-07
5.9288e-07
8.01087e-07
1.07385e-06
1.41586e-06
1.72808e-06
2.32051e-06
3.24491e-06
4.68742e-06
6.86798e-06
9.99945e-06
1.43227e-05
2.00311e-05
2.71109e-05
3.52503e-05
4.37243e-05
5.13874e-05
5.56714e-05
5.10775e-05
3.97835e-05
2.73183e-05
1.75995e-05
1.09675e-05
6.74731e-06
4.19139e-06
2.67175e-06
1.82266e-06
1.52414e-06
1.58352e-06
1.70349e-06
1.87793e-06
2.15946e-06
2.60462e-06
3.15905e-06
3.89456e-06
4.87646e-06
6.27842e-06
8.45109e-06
1.16649e-05
1.62871e-05
2.26546e-05
3.16861e-05
4.5695e-05
5.9883e-05
6.04074e-05
5.25837e-05
4.26328e-05
2.49436e-05
2.06942e-05
1.52305e-05
3.76442e-05
1.13284e-05
1.27417e-06
8.28829e-07
5.73686e-07
4.65844e-07
3.83947e-07
3.48017e-07
3.05972e-07
2.73198e-07
2.38903e-07
2.17315e-07
2.11379e-07
2.27321e-07
2.62045e-07
3.06616e-07
3.66068e-07
4.45595e-07
5.69478e-07
7.79721e-07
1.12838e-06
1.67803e-06
2.49522e-06
3.63751e-06
5.11512e-06
6.85186e-06
8.73879e-06
9.5597e-06
8.09074e-06
5.44044e-06
3.17616e-06
1.77132e-06
1.00989e-06
6.46747e-07
5.10109e-07
4.9875e-07
5.45156e-07
6.17178e-07
7.24368e-07
8.83632e-07
1.11871e-06
1.46873e-06
1.99009e-06
2.76127e-06
3.8943e-06
5.55959e-06
7.99228e-06
1.15467e-05
1.66377e-05
2.3672e-05
3.23962e-05
4.50405e-05
6.01524e-05
6.68021e-05
6.76608e-05
5.87975e-05
4.61154e-05
2.66002e-05
2.44881e-05
1.74012e-05
3.92354e-05
1.46419e-05
3.45926e-06
2.82949e-06
2.20721e-06
1.9231e-06
1.69215e-06
1.58415e-06
1.44675e-06
1.33521e-06
1.19913e-06
1.08729e-06
1.00423e-06
9.77827e-07
9.90325e-07
1.02192e-06
1.0281e-06
9.85326e-07
8.95598e-07
7.78309e-07
6.59717e-07
5.58169e-07
4.99635e-07
5.02611e-07
5.77441e-07
7.2239e-07
9.32176e-07
9.79787e-07
7.84424e-07
5.24182e-07
3.63485e-07
3.17683e-07
3.49834e-07
4.06485e-07
4.54043e-07
4.99051e-07
5.5843e-07
6.48094e-07
7.85168e-07
9.85888e-07
1.27962e-06
1.71264e-06
2.35628e-06
3.31127e-06
4.7246e-06
6.82449e-06
9.93849e-06
1.45411e-05
2.10482e-05
2.93403e-05
3.90183e-05
4.9602e-05
5.83803e-05
6.41785e-05
6.91894e-05
6.57548e-05
5.38702e-05
3.98167e-05
3.88633e-05
2.23607e-05
4.32575e-05
2.07867e-05
9.05363e-06
9.11327e-06
8.34583e-06
7.99728e-06
7.66738e-06
7.50711e-06
7.27262e-06
7.06513e-06
6.80104e-06
6.56406e-06
6.36696e-06
6.25902e-06
6.20786e-06
6.17199e-06
6.07215e-06
5.85288e-06
5.50156e-06
5.04272e-06
4.52196e-06
3.96382e-06
3.41156e-06
2.89589e-06
2.48854e-06
2.21698e-06
2.07519e-06
2.01223e-06
2.03307e-06
2.10593e-06
2.18175e-06
2.24086e-06
2.28264e-06
2.31038e-06
2.33408e-06
2.36528e-06
2.42273e-06
2.53307e-06
2.70982e-06
2.94621e-06
3.25124e-06
3.63673e-06
4.13977e-06
4.8055e-06
5.75002e-06
7.27722e-06
9.85629e-06
1.41165e-05
2.06906e-05
2.73327e-05
3.29914e-05
3.70175e-05
3.98045e-05
4.15336e-05
4.54613e-05
5.64199e-05
5.91308e-05
4.99488e-05
4.74518e-05
1.87601e-05
4.71174e-05
1.31653e-05
1.60036e-05
2.06061e-05
2.25127e-05
2.40135e-05
2.50757e-05
2.59853e-05
2.67613e-05
2.74275e-05
2.79911e-05
2.84427e-05
2.88105e-05
2.91217e-05
2.94142e-05
2.97008e-05
2.99741e-05
3.01967e-05
3.03251e-05
3.03176e-05
3.01515e-05
2.98137e-05
2.93002e-05
2.86158e-05
2.77726e-05
2.68007e-05
2.57374e-05
2.47017e-05
2.37451e-05
2.28599e-05
2.20302e-05
2.12365e-05
2.0473e-05
1.97378e-05
1.90542e-05
1.84353e-05
1.79116e-05
1.75142e-05
1.72775e-05
1.72321e-05
1.73869e-05
1.77377e-05
1.82566e-05
1.88677e-05
1.94669e-05
2.00493e-05
2.07748e-05
2.19145e-05
2.31032e-05
2.41761e-05
2.543e-05
2.77645e-05
3.23712e-05
3.96181e-05
4.79775e-05
5.44287e-05
5.52694e-05
5.25021e-05
4.82184e-05
3.33893e-05
2.47435e-05
1.23016e-05
1.56123e-05
2.04762e-05
2.25958e-05
2.42523e-05
2.5305e-05
2.62456e-05
2.69535e-05
2.75676e-05
2.80772e-05
2.84873e-05
2.88486e-05
2.91346e-05
2.94115e-05
2.96338e-05
2.98331e-05
2.99407e-05
2.99601e-05
2.98469e-05
2.96068e-05
2.92376e-05
2.87547e-05
2.81678e-05
2.74898e-05
2.67302e-05
2.59048e-05
2.50234e-05
2.41044e-05
2.31555e-05
2.21902e-05
2.1207e-05
2.02161e-05
1.92816e-05
1.84239e-05
1.76506e-05
1.69831e-05
1.64514e-05
1.6104e-05
1.59869e-05
1.61424e-05
1.65848e-05
1.72792e-05
1.81364e-05
1.90144e-05
1.9785e-05
2.04144e-05
2.09031e-05
2.12862e-05
2.20431e-05
2.43309e-05
2.95467e-05
3.79517e-05
4.84056e-05
5.76622e-05
6.21554e-05
6.06401e-05
5.45883e-05
4.96632e-05
3.58143e-05
2.66698e-05
1.89145e-05
7.91996e-06
8.21187e-06
7.44446e-06
6.92238e-06
6.4711e-06
6.19889e-06
5.88477e-06
5.67245e-06
5.42362e-06
5.23232e-06
5.04197e-06
4.9064e-06
4.76064e-06
4.64093e-06
4.46919e-06
4.27838e-06
4.05176e-06
3.82059e-06
3.60135e-06
3.40289e-06
3.23278e-06
3.07715e-06
2.93882e-06
2.82156e-06
2.72756e-06
2.66291e-06
2.62684e-06
2.61411e-06
2.61177e-06
2.61243e-06
2.61915e-06
2.63404e-06
2.65599e-06
2.68373e-06
2.72723e-06
2.80153e-06
2.93751e-06
3.16898e-06
3.52923e-06
4.02097e-06
4.60763e-06
5.24634e-06
5.89265e-06
6.56086e-06
7.30602e-06
8.18643e-06
8.84909e-06
9.44523e-06
1.04489e-05
1.2658e-05
1.71762e-05
2.4469e-05
3.29415e-05
4.04291e-05
4.54098e-05
3.94946e-05
3.94092e-05
2.32479e-05
5.24526e-05
1.27812e-05
2.61324e-06
2.17504e-06
1.62339e-06
1.29797e-06
1.0589e-06
9.18864e-07
7.83006e-07
6.98941e-07
6.07583e-07
5.48704e-07
4.99065e-07
4.73143e-07
4.56231e-07
4.48705e-07
4.30322e-07
4.07084e-07
3.77445e-07
3.4925e-07
3.27701e-07
3.16054e-07
3.16531e-07
3.24592e-07
3.37967e-07
3.55831e-07
3.7923e-07
4.07413e-07
4.34348e-07
4.62663e-07
4.88361e-07
4.9831e-07
5.01947e-07
5.09018e-07
5.30389e-07
5.6676e-07
6.17796e-07
6.89791e-07
7.94375e-07
9.51675e-07
1.18753e-06
1.53533e-06
2.03156e-06
2.71667e-06
3.63014e-06
4.83282e-06
6.40816e-06
8.40294e-06
1.06208e-05
1.27485e-05
1.46609e-05
1.59542e-05
1.74904e-05
2.04665e-05
2.5895e-05
4.06148e-05
4.7786e-05
4.03862e-05
3.80488e-05
2.70294e-05
5.05847e-05
9.67736e-06
8.73753e-07
5.44128e-07
3.31772e-07
2.3558e-07
1.72215e-07
1.40578e-07
1.12853e-07
9.90741e-08
8.73363e-08
8.76427e-08
9.70292e-08
1.20887e-07
1.61517e-07
2.28612e-07
3.37652e-07
5.2003e-07
8.22402e-07
1.30876e-06
2.05487e-06
3.15789e-06
4.3852e-06
5.59452e-06
6.72503e-06
7.68133e-06
8.24543e-06
8.23335e-06
7.61545e-06
6.61991e-06
5.51663e-06
4.57439e-06
3.66322e-06
2.73977e-06
1.9121e-06
1.35704e-06
1.17123e-06
1.20257e-06
1.35376e-06
1.60836e-06
1.96701e-06
2.46842e-06
3.16726e-06
4.13925e-06
5.47198e-06
7.27205e-06
9.72475e-06
1.30737e-05
1.74558e-05
2.29003e-05
2.92535e-05
3.61241e-05
4.37685e-05
5.34668e-05
6.84534e-05
7.83186e-05
6.82468e-05
4.16879e-05
3.52643e-05
2.60499e-05
4.6446e-05
8.00913e-06
3.03942e-07
1.39263e-07
7.3578e-08
5.72914e-08
5.84105e-08
7.62484e-08
1.11281e-07
1.74857e-07
2.82936e-07
4.66711e-07
7.72078e-07
1.27696e-06
2.09709e-06
3.44527e-06
5.67304e-06
9.31228e-06
1.50012e-05
2.32815e-05
3.42421e-05
4.69887e-05
5.96396e-05
7.13621e-05
8.14015e-05
8.87679e-05
9.26592e-05
9.23328e-05
8.79275e-05
8.00126e-05
6.98495e-05
5.87425e-05
4.7647e-05
3.6641e-05
2.59258e-05
1.70758e-05
1.1132e-05
7.51701e-06
5.50881e-06
4.60424e-06
4.15216e-06
4.06866e-06
4.27014e-06
4.78927e-06
5.84214e-06
7.5135e-06
9.94707e-06
1.33857e-05
1.81234e-05
2.45241e-05
3.33751e-05
4.74239e-05
6.40724e-05
7.98255e-05
9.43949e-05
9.52286e-05
7.63145e-05
4.23277e-05
2.67106e-05
1.84054e-05
3.98977e-05
6.83568e-06
8.97457e-08
6.13195e-08
8.06675e-08
1.27019e-07
2.0769e-07
3.47692e-07
5.94786e-07
1.03401e-06
1.80368e-06
3.10958e-06
5.22334e-06
8.48112e-06
1.3211e-05
1.99197e-05
2.93806e-05
4.2601e-05
6.03781e-05
8.27541e-05
0.000109082
0.000137998
0.000166798
0.000193507
0.000217114
0.000236081
0.000249306
0.000255661
0.000255659
0.000249489
0.000238226
0.000222518
0.000202421
0.000179598
0.000154577
0.000129097
0.000104793
8.39663e-05
6.59308e-05
5.12701e-05
3.87626e-05
2.91929e-05
2.19383e-05
1.63086e-05
1.23462e-05
9.68032e-06
9.23091e-06
1.12513e-05
1.48681e-05
2.01802e-05
2.7819e-05
3.91147e-05
5.3764e-05
7.15228e-05
8.95953e-05
8.59195e-05
6.28489e-05
3.35978e-05
1.90656e-05
1.39677e-05
3.63424e-05
7.05885e-06
1.74867e-07
3.14937e-07
5.69758e-07
9.77181e-07
1.66496e-06
2.81869e-06
4.72521e-06
7.78359e-06
1.23849e-05
1.87682e-05
2.70515e-05
3.73259e-05
4.9455e-05
6.34512e-05
8.0009e-05
0.000100441
0.000125942
0.000156026
0.000190041
0.000226123
0.000261792
0.000294717
0.00032434
0.000349319
0.000367812
0.000379373
0.000384829
0.000385144
0.000381294
0.00037314
0.000359519
0.000342132
0.00032195
0.000300822
0.000279665
0.000259283
0.000238221
0.00022136
0.00020469
0.000187496
0.000168111
0.000140779
0.000109419
7.76541e-05
4.81438e-05
2.57743e-05
1.82313e-05
1.93398e-05
2.33625e-05
3.00122e-05
3.89667e-05
5.0571e-05
6.32723e-05
6.14904e-05
4.96434e-05
2.87899e-05
1.50225e-05
1.32477e-05
3.53217e-05
1.19685e-05
1.23884e-06
2.60594e-06
5.03859e-06
8.63765e-06
1.40574e-05
2.18269e-05
3.2543e-05
4.68807e-05
6.49421e-05
8.53225e-05
0.00010603
0.000123716
0.00013654
0.000146758
0.000158004
0.000172073
0.000191851
0.00021711
0.000247825
0.00028265
0.000319708
0.000354428
0.000385134
0.000410794
0.00043051
0.00044384
0.000451443
0.000454479
0.000453834
0.000449742
0.000441981
0.00043071
0.00041598
0.000399032
0.000381909
0.000366264
0.000352034
0.000339264
0.000330383
0.000325092
0.000323971
0.000322929
0.000313297
0.000284741
0.000236802
0.000171737
0.000106649
6.84414e-05
5.06499e-05
4.30303e-05
4.0189e-05
4.25555e-05
4.70332e-05
4.65173e-05
4.04818e-05
2.46047e-05
1.04778e-05
1.11775e-05
3.2541e-05
2.40484e-05
6.19161e-06
1.22402e-05
2.14732e-05
3.34101e-05
4.95427e-05
7.01071e-05
9.61491e-05
0.000125353
0.000157633
0.000191281
0.000222979
0.000246903
0.00025964
0.000260577
0.000253985
0.000246019
0.000242963
0.000246244
0.000256552
0.000275963
0.000304464
0.000335699
0.000364134
0.000388269
0.00040777
0.000421922
0.000430526
0.000434638
0.000435772
0.000434879
0.000432367
0.000428053
0.000420623
0.000409389
0.000395877
0.000382829
0.00037125
0.000359978
0.000350331
0.000342591
0.000336104
0.00032929
0.000318141
0.000299146
0.000272778
0.000243196
0.000213027
0.000182289
0.000149314
0.000115401
8.56562e-05
6.41595e-05
4.97866e-05
4.11425e-05
3.54148e-05
2.27093e-05
1.20828e-05
1.13056e-05
2.9874e-05
3.38843e-05
1.67025e-05
3.43065e-05
5.2648e-05
7.35426e-05
9.77412e-05
0.000118961
0.000142498
0.000165792
0.000186131
0.00020275
0.000217302
0.000231304
0.000246261
0.000259662
0.000270057
0.000272995
0.000262598
0.000246032
0.000232904
0.000230082
0.000238462
0.000254451
0.000272322
0.00028911
0.000304002
0.000316109
0.000324543
0.000329128
0.000330433
0.000329611
0.000327712
0.000325456
0.000322694
0.00031842
0.000311149
0.000301011
0.000290554
0.00028124
0.000272644
0.000264326
0.000255918
0.000247276
0.000236966
0.000222061
0.000201401
0.000176942
0.000150787
0.00012414
9.83127e-05
7.48641e-05
5.61797e-05
4.38756e-05
3.66218e-05
3.06615e-05
2.54601e-05
1.88526e-05
1.31677e-05
1.37348e-05
2.77851e-05
2.64382e-05
5.94536e-06
3.42567e-05
4.84408e-05
5.9949e-05
7.31275e-05
8.69109e-05
0.000101008
0.00011603
0.000130375
0.000140198
0.000145908
0.00015243
0.000162527
0.00017448
0.000183418
0.000187861
0.000190429
0.000194379
0.000202393
0.000209416
0.000211909
0.000218253
0.000228695
0.000239406
0.000248382
0.000255724
0.000261123
0.000263693
0.000263176
0.000260002
0.000254899
0.000248606
0.000241733
0.000234407
0.000225381
0.000214261
0.000203401
0.000193995
0.000186208
0.000180173
0.000175659
0.000172462
0.000169001
0.000162593
0.000151494
0.000135403
0.000115471
9.39713e-05
7.289e-05
5.39106e-05
3.85414e-05
2.84899e-05
2.22809e-05
1.78528e-05
1.56597e-05
1.35194e-05
1.19152e-05
1.42407e-05
2.74516e-05
2.14223e-05
2.72649e-06
1.67447e-05
2.42669e-05
2.84632e-05
3.18878e-05
3.46232e-05
3.80051e-05
4.16587e-05
4.35822e-05
4.33197e-05
4.28272e-05
4.45556e-05
4.83872e-05
5.55289e-05
6.38961e-05
7.15842e-05
8.17414e-05
9.75777e-05
0.000120926
0.000153368
0.000186578
0.000212985
0.000229971
0.0002426
0.000252503
0.000259955
0.000264921
0.000266373
0.00026363
0.000257134
0.000248016
0.000236997
0.000224481
0.00021143
0.000198939
0.000187135
0.000175615
0.000165386
0.00015859
0.000155559
0.0001554
0.000156247
0.000155356
0.000150265
0.000140436
0.00012432
0.000102277
7.79324e-05
5.54771e-05
3.70393e-05
2.42731e-05
1.69604e-05
1.30756e-05
1.10812e-05
1.15422e-05
1.19622e-05
1.05899e-05
1.33443e-05
2.76971e-05
2.08616e-05
5.03586e-06
2.09501e-05
3.39083e-05
3.69393e-05
4.17232e-05
4.64823e-05
5.13559e-05
5.66578e-05
6.29231e-05
6.9626e-05
7.50042e-05
7.84503e-05
7.80615e-05
7.42044e-05
6.92071e-05
6.84814e-05
7.59144e-05
9.2315e-05
0.000116642
0.000144498
0.000172154
0.000198269
0.000221565
0.000241925
0.000256686
0.000264128
0.000267164
0.00026843
0.000268501
0.000267252
0.000263608
0.000255998
0.00024467
0.000231007
0.000216567
0.000202982
0.000190317
0.000179105
0.00017153
0.000167959
0.000166846
0.000166564
0.00016481
0.000159038
0.000147134
0.000127447
0.000102237
7.63367e-05
5.31668e-05
3.53266e-05
2.34321e-05
1.61012e-05
1.21799e-05
1.03937e-05
1.13771e-05
1.25078e-05
1.08283e-05
1.33485e-05
2.77256e-05
2.13991e-05
5.69382e-06
1.42292e-05
2.3872e-05
3.01247e-05
3.77249e-05
4.5243e-05
5.44863e-05
6.52825e-05
7.71406e-05
8.9235e-05
9.91702e-05
0.000104399
0.000104443
0.000103209
0.000102549
0.000102672
0.000107725
0.00011904
0.000134546
0.00015287
0.000176612
0.000204219
0.000229734
0.000248849
0.000262073
0.000271351
0.0002786
0.000284282
0.000287937
0.000289796
0.000290327
0.00028942
0.000285254
0.000275318
0.000260903
0.000245585
0.000230451
0.000216774
0.000207809
0.000203189
0.000200652
0.000198157
0.000193839
0.000184884
0.000168887
0.000145864
0.000117936
8.93402e-05
6.39391e-05
4.36281e-05
2.944e-05
2.12096e-05
1.79194e-05
1.67391e-05
1.66598e-05
1.61839e-05
1.38347e-05
1.49133e-05
2.88173e-05
2.66012e-05
8.66209e-06
1.65137e-05
2.18021e-05
2.76326e-05
3.56519e-05
4.49027e-05
5.60691e-05
6.91709e-05
8.37796e-05
9.94681e-05
0.000113129
0.000120259
0.000122193
0.000123843
0.000127251
0.000131414
0.000137478
0.000150524
0.000171342
0.000199869
0.000234817
0.000272557
0.000304443
0.000323739
0.000334307
0.000341613
0.000347874
0.00035261
0.000355228
0.000355765
0.000354829
0.000352971
0.000348038
0.000336927
0.000320235
0.000301752
0.000283192
0.000266967
0.000256392
0.000250264
0.000246088
0.000240955
0.000231056
0.000212525
0.000185657
0.00015366
0.0001204
8.93889e-05
6.36286e-05
4.43392e-05
3.09705e-05
2.2463e-05
1.77942e-05
1.60052e-05
2.00681e-05
1.97692e-05
1.5475e-05
1.5322e-05
3.08337e-05
3.12046e-05
8.6438e-06
1.12538e-05
1.62869e-05
2.38103e-05
3.3379e-05
4.49162e-05
5.84809e-05
7.59289e-05
9.61937e-05
0.000114773
0.000127935
0.000134274
0.000136577
0.000141048
0.000149563
0.000162233
0.000178465
0.00019997
0.000228862
0.000265923
0.000309626
0.000351667
0.000376646
0.000387768
0.000395274
0.000401046
0.000405327
0.00040788
0.00040822
0.000406488
0.000402498
0.000395162
0.000383284
0.000364828
0.000341838
0.000318676
0.000295966
0.000277447
0.000265241
0.000259091
0.000255533
0.000244799
0.000222254
0.000187316
0.000150126
0.000116034
8.59903e-05
6.09207e-05
4.21297e-05
2.95033e-05
2.13879e-05
1.6794e-05
1.48417e-05
1.69549e-05
2.37405e-05
2.20319e-05
1.35766e-05
1.07131e-05
3.22129e-05
2.34462e-05
7.22248e-06
1.31912e-05
2.23241e-05
3.30497e-05
4.69373e-05
6.19159e-05
7.91465e-05
9.86566e-05
0.000121188
0.000145151
0.000160966
0.000168908
0.000173476
0.00018278
0.000197756
0.000217827
0.000242385
0.000270463
0.000303712
0.000341025
0.000381311
0.000413327
0.000426429
0.000429907
0.000432166
0.000433456
0.000433894
0.000433155
0.000430897
0.000427122
0.000421188
0.000411564
0.0003974
0.000379104
0.000358658
0.000336324
0.000315753
0.00030006
0.000289407
0.000280062
0.00026685
0.00024783
0.000223994
0.000192425
0.000155313
0.000118818
8.6136e-05
5.94272e-05