/*--------------------------------*- C++ -*----------------------------------*\
| =========                 |                                                 |
| \\      /  F ield         | OpenFOAM: The Open Source CFD Toolbox           |
|  \\    /   O peration     | Version:  2.1.1                                 |
|   \\  /    A nd           | Web:      www.OpenFOAM.org                      |
|    \\/     M anipulation  |                                                 |
\*---------------------------------------------------------------------------*/
FoamFile
{
    version     2.0;
    format      ascii;
    class       volScalarField;
    location    "0.00145";
    object      p;
}
// * * * * * * * * * * * * * * * * * * * * * * * * * * * * * * * * * * * * * //

dimensions      [1 -1 -2 0 0 0 0];

internalField   nonuniform List<scalar> 
36520
(
6.13289
2.20819
1.78049
0.885193
0.0340618
-0.666654
-1.52136
-2.91292
-5.58881
-9.74737
-14.7469
-19.1177
-21.1419
-19.8729
-16.1125
-12.3637
-11.9452
-17.8013
-31.2477
-51.7207
-77.3496
-104.757
-126.562
-132.733
-116.997
-80.5873
-30.7226
19.3874
56.4907
76.3729
84.9789
88.3697
89.885
90.7678
91.3705
91.4331
90.7807
89.0384
86.0597
81.9258
76.9523
71.5288
65.8166
59.671
52.6962
44.2326
33.5362
19.9263
2.06675
-24.0755
-66.4918
-131.727
-206.574
-327.628
-460.108
-441.756
-356.503
239.413
5524.51
196528
6.84438
2.691
1.77638
0.821258
0.0105469
-0.622693
-1.37441
-2.65719
-5.33383
-9.68302
-15.0221
-19.7327
-21.8883
-20.4014
-16.1031
-11.6254
-10.6272
-16.2723
-29.9821
-51.0895
-77.7032
-106.722
-130.662
-138.246
-122.401
-84.8709
-32.4537
20.5736
59.0973
78.6516
86.4534
89.0939
90.4034
91.3788
91.9638
92.0172
91.2875
89.4911
86.4219
82.164
77.0839
71.6303
65.9656
59.9417
53.2117
45.1192
34.9177
21.8921
4.36269
-22.503
-68.3658
-145.35
-256.864
-469.172
-770.184
-657.552
-489.17
339.642
1660.61
119464
8.43366
3.83995
1.85071
0.610691
-0.134227
-0.639914
-1.1558
-2.1994
-4.86338
-9.6142
-15.6488
-21.0286
-23.3698
-21.4162
-16.0181
-10.2271
-8.0602
-13.2415
-27.4013
-49.6532
-78.008
-110.097
-138.332
-148.219
-132.666
-93.0342
-35.5549
23.1997
64.3489
83.042
89.2115
90.7057
91.5585
92.4158
93.1017
93.0365
92.2278
90.3786
87.1147
82.5997
77.3195
71.8427
66.4195
60.842
54.7543
47.4429
38.1807
25.9358
8.3234
-21.3528
-73.43
-156.356
-258.012
-349.983
-497.138
-461.617
-342.871
465.799
476.152
66697.2
9.20215
4.27841
1.74368
0.384112
-0.290783
-0.633752
-0.799636
-1.49926
-4.16361
-9.57097
-16.672
-22.9955
-25.4557
-22.5613
-15.5448
-8.14416
-4.51031
-9.14333
-23.9193
-47.7059
-78.3091
-114.627
-149.019
-161.725
-146.654
-104.439
-40.06
26.8938
71.6638
88.8735
92.748
92.8159
93.0902
94.1306
94.7432
94.6319
93.7486
91.8492
88.2276
83.2914
77.6842
72.0941
66.9058
61.8716
56.687
50.6313
43.0017
32.3929
15.7122
-14.1845
-66.4153
-149.965
-244.86
-286.521
-305.338
-275.73
-252.737
493.56
-210.28
28963.7
9.26244
4.30846
1.44695
0.120421
-0.485169
-0.65348
-0.399699
-0.620671
-3.27818
-9.61342
-18.1832
-25.625
-27.7257
-23.1851
-14.1609
-5.04396
-0.391209
-4.91226
-20.4848
-46.018
-78.8918
-119.742
-161.542
-178.342
-162.171
-117.641
-45.2643
30.9964
79.5566
94.8196
96.1401
94.7937
94.6357
95.8269
96.6593
96.6494
95.6964
93.4049
89.4177
83.8566
77.7637
72.0266
67.1807
62.8025
58.673
54.0348
48.1229
39.0905
23.9465
-4.30232
-53.9385
-132.707
-218.947
-241.093
-217.271
-138.493
-43.2629
363.44
-109.383
13047.4
7.65333
3.69624
0.874327
-0.228119
-0.760038
-0.720798
0.0379444
0.416475
-2.28784
-9.93518
-20.5217
-28.9472
-29.6118
-22.2921
-11.0757
-0.477757
3.93713
-1.51674
-18.3082
-44.9351
-78.6817
-122.15
-170.835
-192.715
-174.37
-128.647
-50.6094
33.0131
84.7614
98.5636
98.1475
95.9883
95.8455
97.3207
98.5415
99.0012
98.1141
95.5611
90.8166
84.3903
77.5022
71.2686
66.7239
63.3182
60.4211
58.366
55.2072
49.7184
37.5098
11.8348
-33.5728
-103.377
-189.059
-228.19
-195.075
-96.3131
6.1854
182.06
529.714
18107.6
6.96152
3.02768
0.242968
-0.354507
-0.956603
-0.818478
0.529285
1.51875
-1.33848
-11.0233
-24.3792
-33.296
-30.6359
-18.8769
-4.92719
5.0372
6.96355
-0.247685
-18.4886
-45.9957
-79.1539
-123.577
-173.283
-196.252
-174.609
-122.85
-48.385
30.4226
85.5055
99.7609
98.2612
95.9213
96.2231
98.5952
100.092
100.763
100.3
97.5914
91.9286
84.5021
76.8482
70.2043
65.4535
62.2751
59.9801
59.0519
57.322
53.615
44.1874
22.6839
-16.9047
-78.0928
-149.933
-191.592
-175.946
-97.868
1.72179
119.65
783.667
40863.7
-5.37819
0.300208
-0.907116
-0.516223
-1.23452
-1.0393
1.19473
3.09635
0.209445
-12.5795
-30.5189
-39.5107
-31.2957
-12.0988
5.0543
13.0044
10.1796
-1.7493
-23.8286
-50.3489
-81.3429
-120.409
-166.889
-188.999
-167.172
-109.505
-30.9007
35.08
74.8133
92.0253
94.9625
93.0192
94.7828
99.3267
101.56
102.727
103.201
100.662
94.3487
86.086
77.4001
69.454
63.8209
60.8797
61.5128
63.0012
62.0479
59.4152
51.0472
31.5759
-3.82056
-56.9611
-119.52
-168.532
-174.087
-111.873
-35.5356
81.5436
2392.48
61471.6
18.7384
5.27237
-0.712243
0.172237
-1.01441
-1.51
0.888349
2.3625
-2.61174
-20.1586
-41.2419
-44.0979
-25.0796
1.85335
19.9483
20.37
10.3556
-6.75934
-30.0821
-56.0889
-83.5321
-122.868
-165.486
-181.274
-158.202
-103.314
-29.0406
34.9311
74.4347
91.3873
90.5891
92.1586
98.2653
102.699
101.019
102.222
103.598
101.823
97.0594
86.4274
76.7941
68.1987
61.2036
58.2151
60.2587
63.1262
65.121
64.8956
59.4557
45.786
18.3593
-28.9997
-88.1311
-149.721
-172.177
-126.751
-24.5376
541.273
12553.9
78865.8
36.9322
3.30504
-3.1109
-1.16573
-0.688751
-0.686118
-0.203508
0.961352
-2.16797
-17.3889
-42.2485
-53.1032
-33.0368
3.76665
25.8074
29.0481
16.0591
-0.729415
-23.1647
-54.311
-87.5042
-135.262
-166.469
-179.389
-155.31
-101.209
-28.6647
35.9609
81.2795
99.3298
98.1946
95.0807
94.8735
94.1153
101.665
107.651
106.417
101.194
92.54
84.1556
74.9266
65.9611
58.9305
56.7626
59.2361
64.4849
70.2263
72.8834
71.5486
63.5536
42.9617
4.87174
-47.4548
-116.006
-156.389
-121.598
10.8994
999.009
18138.2
90107
11.9045
-1.47923
-4.42376
-2.14774
-0.836779
1.46868
4.82592
6.17173
0.958793
-19.8444
-48.3395
-54.1158
-35.6218
4.66027
30.3548
27.3802
16.2536
0.0531477
-19.0369
-42.074
-63.8966
-127.297
-170.332
-196.093
-167.987
-100.189
-31.1972
38.1429
92.2816
109.626
102.016
93.379
89.7473
89.2709
95.3612
107.357
111.366
102.987
93.5979
84.3725
74.2531
65.6687
59.4908
57.3553
59.1942
63.6345
69.4252
73.8878
74.5077
68.5765
53.0439
25.3523
-21.8649
-88.0702
-138.833
-112.289
-18.3002
680.166
21244.5
102598
-12.0059
-0.808931
-2.514
-1.84046
-0.350716
2.30081
5.66532
8.29867
3.84945
-14.4108
-39.669
-48.5549
-35.504
-4.5479
15.3487
15.6187
12.1218
0.637749
-15.6595
-34.3337
-55.4885
-107.82
-209.968
-216.781
-193.847
-113.026
-38.916
51.6866
107.593
116.984
106.216
94.9066
89.7857
88.9698
94.2596
101.962
104.073
101.704
93.2159
84.8173
75.6151
67.3014
61.2564
59.1447
60.1673
63.6246
68.8289
72.8647
72.7619
67.5519
55.2043
32.5276
-10.3559
-82.693
-145.071
-112.673
-29.3087
116.04
9931.49
113470
-8.02992
-0.297361
-2.41186
-1.22733
1.02909
3.92143
6.78626
8.13308
1.96605
-16.9425
-41.4514
-49.7018
-38.6078
-14.8625
6.26374
13.0718
15.1583
9.63383
-6.81689
-28.6607
-43.8526
-62.8237
-83.3903
-176.868
-191.216
-141.326
-104.304
27.1668
120.162
132.065
112.914
97.687
89.4157
87.5623
91.8547
97.8874
105.245
103.705
94.182
85.3311
75.5954
66.685
61.0217
59.2842
60.4226
63.9563
70.1213
78.5647
79.765
69.6518
53.0642
25.8558
-21.0281
-94.183
-148.588
-103.946
-20.2307
123.599
8803.52
123281
20.163
2.24698
-2.9027
0.0587863
2.17169
4.49439
6.80694
7.34115
0.76405
-18.5766
-44.9437
-57.0157
-45.4013
-20.6116
-2.66349
8.0751
17.8239
14.8839
-2.30218
-28.5579
-51.1518
-70.7072
-113.267
-138.707
-52.4039
-4.81469
-92.3853
-13.5426
109.217
142.907
114.124
94.7466
85.1889
83.8593
89.0834
102.315
114.294
110.301
96.964
85.7793
74.3064
64.6716
58.7376
56.9491
58.2275
61.9614
65.2382
65.8891
63.6714
55.4594
37.4683
8.57848
-35.4564
-117.069
-159.12
-99.5076
15.2567
698.582
18038
129380
52.796
11.512
-0.0818355
0.043555
2.00094
4.76266
7.01258
6.53568
-0.477344
-17.8953
-38.596
-55.0199
-56.8198
-36.7692
-5.53366
18.6997
46.7692
49.076
12.0416
-21.3884
-46.7161
-72.4205
-92.3589
-106.424
-252.623
-186.567
-109.255
28.3152
51.7213
115.988
124.067
94.1852
81.6562
83.3829
97.3986
112.873
113.428
105.793
95.7876
85.7385
74.9012
65.6265
60.4243
59.2301
60.1129
61.7938
61.3923
56.4226
48.2061
33.0041
7.99996
-25.1257
-78.1271
-160.784
-171.178
-75.7709
52.8634
748.186
15037.7
111058
23.9668
8.15854
-1.13956
-0.614296
1.37913
4.49616
7.82411
7.75799
0.612842
-17.5887
-46.991
-65.2801
-51.5845
-18.8847
-1.24271
37.463
85.5756
71.1456
22.0855
-18.7713
-48.9884
-88.591
-131.497
-138.044
-155.919
-168.167
-143.75
-61.4035
8.33829
79.8789
103.985
85.9171
76.2453
77.3847
86.8505
101.286
108.251
105.047
96.4225
85.1809
74.7826
67.0306
62.3627
60.8715
61.0609
59.2918
53.52
44.8149
33.1641
13.7458
-16.7596
-62.6341
-126.913
-185.052
-172.187
-61.7849
69.0304
510.933
11170.8
89108.7
-3.99085
-1.7976
-2.96704
-1.40215
-0.0371983
2.3773
4.791
4.30375
-2.67138
-20.7559
-49.1021
-65.4783
-49.3036
-5.67125
32.5115
42.925
46.5727
35.6981
7.03337
-25.4377
-55.7305
-90.8042
-124.572
-147.02
-168.086
-176.971
-149.227
-77.4434
11.7685
72.4349
87.2304
78.8883
72.7365
73.444
80.723
92.6231
101.199
100.337
92.4621
82.7999
73.0974
65.7487
60.9175
58.9047
58.8881
57.382
51.9954
44.6911
34.7804
15.924
-21.0023
-72.9183
-137.493
-185.999
-160.853
-39.1453
84.9137
220.35
2780.56
64706.8
7.3258
1.79858
-1.47646
-1.36985
-0.795292
0.522317
1.77447
0.706151
-5.7271
-19.9366
-39.0086
-49.276
-39.4206
-16.1493
12.2161
34.7321
41.0958
24.2076
-1.71409
-27.4052
-52.5281
-82.3544
-111.391
-132.405
-150.898
-157.206
-131.257
-75.1483
-4.21886
52.0564
71.5193
72.994
72.2448
74.4894
80.8618
89.7312
95.8766
95.1652
89.886
82.1505
72.7904
64.7061
59.2996
56.6781
56.4693
54.8986
49.2615
41.7967
29.4863
4.439
-37.7229
-99.3079
-166.484
-207.863
-169.64
-29.9823
87.4461
225.838
309.335
37467.1
6.22543
1.68165
-1.08964
-1.64258
-1.42221
-0.815735
-0.467912
-2.11107
-7.98678
-18.9627
-31.872
-37.7448
-29.2571
-10.3314
8.63824
20.4435
22.9059
10.6981
-9.38637
-30.0482
-51.2997
-75.7786
-100.269
-119.651
-131.641
-127.475
-104.376
-57.4241
-2.41688
41.6588
61.0828
67.0965
69.6929
73.4146
79.5019
86.9179
92.2154
92.6437
88.4793
81.561
73.2401
65.7591
60.2458
56.7367
55.0749
51.4048
43.3002
31.5693
12.4792
-20.6198
-71.7596
-140.977
-214.757
-247.241
-184.173
-36.4699
72.6291
255.038
-140.811
14318.3
8.37522
2.42312
-0.609327
-1.55646
-1.74489
-1.6737
-1.94927
-3.95818
-9.18878
-17.7941
-26.9341
-30.5123
-23.9968
-9.92087
5.79672
14.3674
12.9275
1.73611
-14.7105
-32.2731
-50.6933
-71.0073
-91.0634
-106.711
-113.752
-107.393
-84.028
-44.9044
-1.37942
33.3997
51.9817
60.7562
65.9533
70.9451
76.8561
83.2144
87.87
88.8816
86.1075
80.572
73.689
67.1704
61.5661
56.832
52.4585
45.5343
34.274
18.257
-6.19781
-44.7878
-101.291
-172.351
-239.414
-263.997
-204.254
-56.7481
37.986
281.295
-296.951
5854.57
7.44998
2.44211
-0.208516
-1.43446
-1.947
-2.28723
-3.02153
-5.20379
-9.80187
-16.5877
-23.1315
-25.2025
-19.8324
-9.42011
0.990328
7.2706
5.15561
-4.34778
-18.1689
-33.5744
-49.8893
-67.048
-83.0502
-94.6136
-98.1682
-90.0249
-68.7338
-36.5354
-1.67213
26.8532
44.8279
55.4709
62.5311
68.4975
74.4919
80.3295
84.5912
85.5605
83.4448
78.7965
72.7211
66.4138
60.4085
54.7541
48.6151
39.7122
25.972
6.18055
-22.4917
-64.5658
-121.404
-190.251
-257.081
-315.116
-273.596
-106.309
13.5425
316.038
63.1113
23490.7
7.08413
2.35381
0.0528852
-1.22316
-1.99872
-2.67993
-3.77793
-6.05751
-10.1422
-15.5634
-20.3577
-21.5393
-17.1989
-9.27269
-1.3075
2.42306
-0.00477114
-8.33488
-20.5025
-34.4418
-49.181
-63.9769
-76.9605
-85.4289
-86.4129
-77.5673
-58.3955
-31.3154
-2.38295
22.1555
39.5985
51.3216
59.6432
66.4116
72.5781
78.162
82.2087
83.6667
81.9419
77.9318
72.483
66.3442
59.7842
52.8634
44.9019
33.9523
17.872
-4.51281
-34.8894
-76.6202
-131.829
-195.382
-262.236
-322.59
-352.444
-201.148
-18.5794
445.626
906.057
53656.5
5.41905
1.72966
0.223765
-1.00046
-1.9869
-2.93036
-4.27367
-6.60493
-10.3252
-14.8376
-18.5152
-19.1504
-15.5558
-9.2296
-3.04562
-0.490934
-3.15039
-10.7807
-21.9222
-34.9036
-48.5506
-61.7623
-72.7771
-79.3968
-78.9427
-69.8873
-52.1907
-28.3577
-3.06615
19.1611
36.1749
48.4528
57.5414
64.8509
71.2029
76.6329
80.4065
81.6961
80.2971
76.6365
71.3902
65.1034
58.0912
50.6078
41.862
30.2147
14.5535
-6.56139
-35.0241
-73.3269
-123.903
-187.377
-266.805
-371.319
-433.763
-254.44
-101.606
328.558
698.853
106581
4.46034
1.26007
0.224
-0.971572
-2.05145
-3.10373
-4.56868
-6.92368
-10.4577
-14.5434
-17.7036
-18.1141
-14.853
-9.27029
-4.03508
-1.98973
-4.6907
-12.0033
-22.6535
-35.1402
-48.2246
-60.6627
-70.6988
-76.4827
-75.3686
-66.1398
-49.2705
-26.9938
-3.39274
17.764
34.536
47.0435
56.4668
64.0292
70.4558
75.8123
79.4764
80.7661
79.4865
76.0245
70.975
64.8757
57.9932
50.4029
41.568
29.5842
12.9231
-8.31442
-36.2193
-73.0813
-121.232
-181.137
-253.999
-331.413
-336.379
-140.089
392.468
1230.09
4297.82
218915
4.066
0.0816123
-1.30576
-3.24183
-5.20691
-7.143
-9.12467
-11.101
-13.1057
-14.8829
-15.9246
-15.5622
-13.7453
-11.298
-9.9867
-11.1044
-14.7087
-19.8366
-25.1547
-29.4243
-31.8742
-32.2958
-30.786
-27.4667
-22.4385
-15.9179
-8.25452
0.104835
8.77258
17.3112
25.6547
33.9235
42.2853
50.755
58.9456
66.2634
71.8863
75.4097
76.6717
75.665
72.6317
68.0611
62.7712
57.4185
51.7388
44.5208
34.3352
20.4733
0.674533
-26.0101
-61.7488
-110.554
-178.347
-298.94
-405.113
-256.047
93.509
737.979
2521.61
197807
5.02809
0.645434
-1.341
-3.34216
-5.28455
-7.22809
-9.22774
-11.2165
-13.2499
-15.1218
-16.2648
-15.9135
-13.9154
-11.092
-9.51037
-10.6616
-14.5258
-19.9925
-25.5726
-29.9277
-32.264
-32.5109
-30.8807
-27.512
-22.4564
-15.9045
-8.19704
0.20701
8.98668
17.4968
25.7532
33.9567
42.3353
50.9382
59.3508
66.8381
72.568
76.0678
77.3206
76.2794
73.1339
68.4002
62.9721
57.6305
52.1577
45.2626
35.1214
21.4654
1.58535
-25.2167
-62.4625
-116.956
-203.244
-355.587
-479.696
-334.113
-104.094
353.827
125.527
88494.3
6.71937
1.47734
-1.44828
-3.62888
-5.53098
-7.46279
-9.48972
-11.492
-13.5583
-15.6126
-16.9678
-16.6445
-14.3022
-10.6884
-8.54122
-9.81739
-14.2697
-20.4674
-26.5758
-31.0664
-33.1006
-32.9316
-31.0406
-27.5864
-22.5061
-15.9079
-8.1163
0.411745
9.34797
17.7358
25.8677
33.9619
42.3587
51.1874
59.9723
67.8621
73.7081
77.2942
78.677
77.7422
74.7329
70.0757
64.8383
60.038
55.2168
48.6629
38.3476
23.7298
2.81895
-25.2462
-64.9535
-124.632
-212.068
-330.36
-402.355
-263.705
-72.6379
410.738
-365.442
38402.5
7.09403
1.53335
-1.75243
-3.94398
-5.77126
-7.74077
-9.84552
-11.8863
-13.9883
-16.3293
-18.044
-17.8543
-14.9829
-10.1398
-7.02489
-8.54985
-13.9759
-21.3274
-28.2609
-32.8756
-34.2109
-33.2254
-30.893
-27.3576
-22.3142
-15.7072
-7.86419
0.775143
9.63144
18.0703
26.0509
33.9366
42.3108
51.4721
60.841
69.1014
75.1652
78.7956
80.2171
79.4857
76.4854
71.9757
67.4177
64.0416
61.0563
56.314
47.1885
31.7942
9.8277
-19.9067
-61.0643
-121.22
-201.597
-292.624
-320.547
-188.724
-52.7592
260.998
-456.481
7171.38
7.23701
1.12886
-2.29302
-4.31379
-5.96888
-7.98906
-10.2383
-12.3343
-14.4446
-17.0807
-19.2732
-19.2897
-15.5818
-9.21851
-4.88001
-6.8987
-13.8534
-22.769
-30.925
-35.7352
-35.8195
-33.4245
-30.3725
-26.7491
-21.8405
-15.311
-7.44624
1.29387
10.1889
18.584
26.3061
33.8945
42.1988
51.7583
61.8015
70.3657
76.5275
79.998
81.2961
80.3917
77.1322
72.3482
68.1935
66.7979
67.3581
66.2698
59.8724
46.4032
26.0756
-4.13322
-47.8791
-109.832
-186.027
-257.951
-256.161
-133.678
-26.8855
187.449
-340.951
2865.19
6.5907
0.574867
-2.87328
-4.5071
-5.90697
-8.0286
-10.6423
-13.0106
-15.1588
-18.0026
-20.6861
-21.1424
-16.9928
-8.7751
-2.39978
-5.37143
-14.4046
-25.3781
-35.199
-39.9213
-38.0806
-33.0502
-28.7603
-25.1159
-20.6276
-14.4379
-6.78403
1.85639
10.6735
18.892
26.3258
33.7003
41.9879
51.8678
62.615
71.9118
78.261
81.4676
82.3431
80.9948
77.0643
71.5531
66.9736
66.8705
70.3335
74.0012
73.3679
64.7181
48.5554
21.2588
-22.542
-85.9806
-163.071
-229.18
-224.333
-119.685
-12.2059
143.267
-311.88
9165.36
2.97154
-0.497705
-3.23126
-4.27797
-5.35996
-7.61795
-10.9605
-14.0738
-16.3156
-18.9241
-21.8125
-22.7653
-18.6147
-8.54949
0.223636
-3.81527
-15.2414
-28.7497
-40.9472
-46.1045
-40.9047
-31.8983
-25.9209
-22.504
-18.7548
-12.9518
-5.61277
2.73277
11.2558
19.122
26.2023
33.3656
41.6287
51.5685
62.6296
72.4732
79.415
82.5147
83.0804
81.3924
76.8099
70.8197
66.6971
67.2508
71.7494
78.8101
81.0753
73.8236
63.4871
43.3503
3.80504
-56.9286
-133.513
-202.476
-203.2
-105.804
6.29646
115.261
-12.1162
30785.7
0.0885246
-0.854391
-3.73
-3.78802
-4.29202
-6.50066
-10.9166
-15.5091
-18.0639
-19.9608
-22.9278
-24.7717
-21.6342
-9.47485
2.76317
-0.816034
-14.1493
-32.3038
-48.5416
-55.6781
-45.3995
-30.3397
-22.035
-19.2453
-16.2701
-11.0003
-4.08766
3.77306
11.8798
19.4278
26.0937
33.0551
41.098
51.1057
62.3699
72.662
79.7196
83.0924
82.6459
80.1355
74.6942
67.6438
62.3098
62.3478
69.6408
81.2138
88.2612
87.7213
79.931
63.3242
31.2524
-23.1965
-96.6579
-167.275
-182.501
-106.182
0.201204
97.0419
1177.03
54591.3
-11.27
-1.9633
-4.19343
-3.07473
-2.52384
-4.24459
-10.1863
-17.0882
-19.9148
-20.4303
-22.5515
-24.9963
-22.9319
-8.82836
5.57445
0.202629
-19.1564
-40.7254
-57.8964
-62.1856
-48.7375
-26.4968
-15.6812
-14.6505
-12.9971
-8.285
-2.0019
5.02037
12.4091
19.6281
26.1979
33.1821
41.4431
51.0604
61.1292
71.1342
79.0339
82.2134
82.1368
79.3792
73.3935
66.4856
60.7358
60.6964
65.3054
71.5472
77.288
77.7234
75.9098
70.0173
50.3394
7.0282
-53.5196
-127.487
-164.497
-120.807
-10.0165
196.161
7383.38
77202.5
7.17962
1.6069
-4.2534
-2.03468
0.0399234
-0.312555
-8.2733
-21.4753
-27.6839
-23.5283
-21.2135
-22.7136
-20.9882
-10.8318
2.4883
-3.51132
-18.8673
-37.5358
-67.1728
-88.4251
-62.5027
-25.0479
-9.33887
-10.0021
-8.80009
-4.05984
1.30178
7.5846
14.8872
21.9937
28.3015
34.7558
42.6377
52.3215
63.3979
74.935
82.9786
84.5081
83.5872
79.334
72.4063
65.3541
60.9776
62.0837
69.5715
78.2649
84.3
83.7311
79.0222
66.0929
37.4189
-0.973165
-51.6369
-112.659
-153.352
-123.097
24.8505
908.978
20366.3
88200.3
61.6071
5.62897
-0.389357
1.75921
2.97015
2.0584
-7.06735
-24.7002
-33.296
-26.1829
-21.5615
-26.5998
-17.0383
5.27013
13.4444
-16.8899
-56.4388
-77.4491
-92.6466
-83.3274
-40.0664
1.6676
18.1391
3.60885
1.04673
4.59566
8.12
13.1206
19.7577
27.0011
34.0501
40.5616
48.2883
57.9026
68.4469
79.5447
85.5848
85.1048
82.8534
77.186
70.0246
62.953
58.0627
60.572
68.4797
79.0651
85.6223
86.1238
81.3989
70.049
48.1302
11.8654
-35.5365
-96.7504
-123.401
-69.6531
86.614
1107.18
21856.5
91051.5
73.9383
10.2832
1.73683
4.08814
4.39551
2.78025
-6.7613
-22.0482
-31.6003
-34.9039
-31.9213
-15.7268
2.4326
19.5091
-2.02117
-31.5634
-58.4048
-69.8078
-46.8617
4.39895
-39.4065
31.2397
48.8548
9.97703
3.82521
9.52704
14.1115
19.006
26.5571
33.6325
37.9148
42.8885
50.5394
60.0344
69.4336
77.6371
82.7388
84.0016
81.7904
75.8522
68.3247
61.7214
58.5066
61.1272
68.254
76.8247
83.6558
85.4636
80.0517
67.1662
45.7802
15.1154
-25.2905
-86.3079
-101.429
-39.3002
69.4531
768.712
20914.4
94040.2
73.2294
10.9114
2.60274
4.15311
3.8349
1.21739
-7.99591
-23.8002
-36.9802
-42.2557
-36.2207
-13.1513
22.4077
44.0712
18.7589
-38.7582
-73.0254
-92.676
-140.119
-98.1741
-0.311751
47.7158
25.596
3.48641
9.13505
20.8914
23.3858
21.0257
22.0068
26.9203
33.8428
41.9879
51.2911
61.4191
72.6346
81.4477
83.9446
85.5144
84.2108
78.6626
70.6507
62.9016
59.1712
61.9071
69.5252
77.9103
85.473
86.6261
80.8983
66.9626
42.9085
12.8233
-23.4752
-63.7857
-89.6148
-27.6357
74.3835
794.168
19830.1
95876.1
35.809
7.39182
-1.29216
0.998847
1.66649
-0.0878613
-7.78196
-21.8506
-35.1527
-40.1592
-31.7355
-6.02062
31.6823
50.0643
21.6918
-39.4638
-81.5533
-99.8589
-121.818
-109.303
-52.2378
4.04821
12.4422
10.6321
13.0488
13.3827
14.7375
17.8062
23.3306
29.5018
35.3268
42.2913
51.1777
63.9992
78.7293
86.2565
86.375
86.6997
84.4055
77.3372
69.1148
61.9086
59.19
62.445
69.5648
76.3291
82.0584
82.6728
74.8303
58.2289
32.1594
1.07524
-36.1747
-72.8078
-84.3595
-36.0747
67.1018
774.69
19251.8
95589
-4.05159
-2.59003
-4.49781
-0.0325001
1.26278
-0.637729
-5.84951
-14.051
-25.6591
-38.7284
-39.4553
-17.0271
24.0485
43.0711
19.1238
-28.7835
-67.7927
-95.688
-125.454
-121.822
-78.8308
-37.0451
-2.72971
20.8743
22.1524
16.8016
14.2325
16.77
22.665
30.5758
37.1475
42.7542
50.6562
63.5033
78.8929
87.341
87.6529
88.2695
86.9031
79.6851
70.9792
61.9842
58.725
62.3617
67.7044
70.8027
72.075
70.2065
62.2412
45.6525
21.7662
-9.3924
-42.1343
-75.6985
-90.5428
-38.2859
51.8362
482.354
17302.7
93794
-15.9274
-7.50936
-6.56228
-2.76258
-0.92265
-2.92633
-6.58105
-11.0633
-18.3167
-26.7299
-28.4817
-16.2498
9.58257
22.5499
10.3999
-22.4996
-56.7203
-89.3854
-116.333
-116.195
-84.1855
-43.2094
-1.68185
21.9018
18.2071
12.6064
12.7363
17.3021
23.6878
31.6024
38.5465
44.2379
50.9618
61.2595
74.6687
83.1162
86.678
88.6753
87.9849
80.581
72.0645
67.2615
67.0206
69.7784
71.7272
71.1891
69.3431
64.5844
53.7974
34.575
7.36311
-31.1986
-74.2588
-114.534
-111.201
-34.1765
57.374
200.788
6091.87
92886.7
-23.6611
-8.53379
-6.44763
-2.79135
-1.75993
-3.44223
-5.87895
-8.34386
-13.09
-20.7653
-25.0589
-16.4476
1.22941
12.5158
8.90488
-12.6408
-43.6659
-80.9771
-111.443
-113.589
-90.0398
-56.0623
-15.6879
10.5155
11.2641
8.77766
11.316
16.2722
23.716
32.5426
40.7548
47.8947
54.4273
62.7443
72.4732
80.0526
85.6238
88.4486
87.4435
80.1442
71.3872
65.5645
62.0675
61.4571
63.0596
63.2554
60.6889
54.5342
41.6915
19.5415
-14.5738
-59.0515
-106.771
-141.608
-120.372
-20.1509
82.1064
137.731
901.717
68197.4
0.729887
-1.22175
-3.12436
-2.94888
-3.31959
-4.58172
-6.19542
-8.20264
-12.1731
-18.2569
-22.3213
-17.9797
-6.28273
3.56859
2.5086
-11.9473
-36.933
-66.122
-87.5153
-94.8671
-83.0506
-61.5381
-31.897
-8.78235
-2.13905
0.334753
5.0574
13.4493
23.1493
33.493
43.4043
52.073
59.6244
66.7442
74.8158
81.3678
85.154
87.1728
85.2937
78.5409
71.0711
66.3743
64.9445
66.3054
68.5956
68.5034
63.8505
53.167
33.7634
3.84194
-37.982
-85.5403
-132.086
-148.307
-112.277
-0.610146
109.941
225.211
339.659
42694
3.46844
-1.71417
-3.12074
-3.0907
-3.62415
-4.5983
-5.93331
-7.74392
-10.9946
-15.6467
-18.8168
-16.2578
-9.19969
-3.40434
-4.16362
-14.528
-33.6033
-56.6838
-74.8617
-81.0767
-73.9227
-58.2431
-37.6534
-20.2147
-10.8738
-4.43871
3.70858
13.1264
23.7412
34.5277
44.4112
52.9705
60.6576
67.9745
75.1516
80.808
84.7236
86.7878
85.1836
79.7597
73.4934
68.9206
66.8265
66.1085
65.628
62.3556
53.684
36.9759
9.01945
-29.9006
-78.9004
-129.068
-169.488
-177.505
-130.695
-1.44426
128.499
308.787
193.92
19918
5.89974
0.827713
-1.82144
-2.80514
-3.6347
-4.62802
-5.89537
-7.66771
-10.5339
-14.3356
-17.1178
-16.0663
-11.8552
-8.0505
-8.7369
-16.266
-30.2948
-47.4223
-61.7749
-68.2796
-65.371
-55.2944
-41.2509
-27.9267
-18.0507
-9.54313
1.07047
12.6158
24.4663
35.8993
46.3721
54.9206
62.1
68.7314
74.8078
79.5941
82.952
84.5328
83.3304
79.1569
74.4323
70.693
68.1852
66.1053
62.981
55.8373
41.3032
15.6297
-20.1849
-65.2321
-114.913
-157.501
-191.659
-197.569
-157.949
-23.8077
104.491
346.853
-77.4364
9454.44
6.608
1.5219
-0.955882
-2.31051
-3.38869
-4.5263
-5.84398
-7.63725
-10.2731
-13.5225
-15.9931
-15.8944
-13.4603
-11.0294
-11.7709
-17.5941
-28.3919
-41.6565
-53.281
-59.6932
-59.52
-53.708
-44.087
-33.4176
-23.2605
-12.5121
-0.773351
12.1017
24.8442
36.5981
46.8381
55.4624
62.7323
69.0227
74.4878
78.8607
81.9148
83.4281
82.2771
78.9647
74.9773
71.3018
67.9099
64.0319
57.7782
46.39
26.5383
-3.68565
-39.7769
-79.0913
-119.333
-155.456
-190.66
-213.905
-201.922
-62.9703
87.3432
429.22
170.569
27370.8
6.67652
1.99297
-0.429625
-1.92846
-3.16318
-4.42527
-5.83608
-7.6427
-10.1167
-13.0003
-15.2924
-15.7179
-14.3852
-12.9181
-13.7518
-18.4994
-27.2423
-38.1425
-48.1837
-54.6411
-56.2356
-53.0472
-46.1503
-37.0922
-26.9614
-15.2525
-2.15016
11.7209
25.1227
37.1497
47.4009
55.9098
62.9799
68.9713
74.047
78.0924
80.9797
82.2
81.3281
78.6204
75.0675
71.2598
66.9397
61.3115
52.5269
38.2884
15.5924
-15.2269
-47.8156
-78.6603
-108.947
-142.944
-186.351
-242.321
-296.316
-165.097
46.3016
538.711
951.465
61975.7
5.10242
1.45479
-0.103537
-1.56138
-2.9249
-4.27659
-5.78484
-7.60501
-9.98301
-12.6345
-14.806
-15.5143
-14.8358
-13.9953
-14.933
-19.0611
-26.5788
-36.0754
-45.2075
-51.7146
-54.2937
-52.6619
-47.3246
-39.2119
-28.8695
-16.7984
-2.98981
11.4815
25.2858
37.4871
47.7575
56.2173
63.2075
69.0609
73.9295
77.7607
80.4005
81.4458
80.6617
78.2293
74.7688
70.6112
65.4544
58.626
48.5256
33.9503
13.92
-10.1202
-36.2179
-64.2568
-96.0564
-130.556
-183.727
-289.756
-435.571
-327.628
-17.4535
485.846
508.443
114722
4.25725
0.930733
-0.0230598
-1.44722
-2.86235
-4.2439
-5.78202
-7.61309
-9.93988
-12.4915
-14.6073
-15.4432
-15.053
-14.502
-15.5041
-19.3697
-26.3306
-35.1826
-43.8848
-50.4009
-53.4168
-52.4936
-47.8814
-40.2191
-30.0011
-17.6047
-3.45972
11.2892
25.2799
37.5672
47.8459
56.2755
63.2164
69.0002
73.7821
77.5211
80.0231
80.9867
80.2335
77.9225
74.5673
70.3888
65.0315
57.7371
47.4279
32.7961
13.1458
-8.78084
-31.7769
-57.2518
-86.3828
-121.522
-171.707
-249.826
-356.914
-216.655
344.756
1009.14
773.353
218734
3.32219
0.622906
-0.177211
-1.13261
-2.15052
-3.12316
-4.51763
-6.87922
-10.6457
-15.1264
-18.636
-19.003
-15.1027
-8.60382
-2.59629
-0.292262
-3.26132
-11.1837
-22.4273
-35.248
-48.426
-60.7262
-70.5232
-76.142
-75.0503
-66.1119
-49.6732
-27.8966
-4.67035
16.3882
33.2538
45.9544
55.5895
63.4172
70.1922
76.0153
80.0964
81.5855
80.2464
76.532
71.0729
64.4071
56.7619
48.1352
38.1173
24.3764
5.51915
-18.2838
-48.3905
-87.0888
-136.005
-192.55
-254.25
-293.448
-207.753
25.9107
636.311
1607.76
5225.43
198957
3.15503
0.597741
-0.341588
-1.35953
-2.34763
-3.22753
-4.51593
-6.83463
-10.7792
-15.6087
-19.4632
-19.7417
-15.2337
-7.91166
-1.21932
1.22371
-2.07909
-10.6172
-22.4336
-35.5532
-48.695
-60.6512
-69.8931
-74.9023
-73.5807
-64.9056
-49.0145
-28.0319
-5.59227
14.9569
31.6843
44.5412
54.4147
62.5395
69.7992
76.2899
80.9589
82.7039
81.2482
77.1501
70.9964
63.2696
54.4394
44.9031
33.8191
19.4005
-0.563987
-24.3931
-53.1404
-89.221
-132.505
-175.246
-206.801
-179.864
-24.8836
203.617
745.24
1616.41
9870.24
203937
1.47759
-0.002492
-0.807418
-1.69867
-2.62997
-3.42043
-4.57105
-6.79899
-10.8697
-15.9989
-20.144
-20.2964
-15.1908
-7.09884
0.130032
2.5476
-1.20073
-10.3864
-22.7549
-36.1635
-49.1711
-60.6402
-69.0643
-73.1601
-71.2736
-62.5972
-47.3198
-27.3608
-6.07326
13.6012
29.9189
42.7005
52.701
60.9585
68.4964
75.2366
80.3457
82.1763
80.3658
75.7019
68.9445
60.5872
51.3003
42.201
32.206
19.4789
2.03027
-18.6011
-43.7727
-74.4643
-107.184
-132.084
-134.7
-54.7309
136.861
338.621
664.486
1277.19
11286.2
218102
0.533891
-0.561332
-1.29875
-2.16564
-3.01871
-3.75749
-4.76317
-6.85701
-10.9835
-16.3644
-20.7409
-20.6771
-15.0475
-6.43267
1.1871
3.50126
-0.790375
-10.6234
-23.4824
-37.0961
-49.9058
-60.7603
-68.2304
-70.9027
-67.8236
-59.0681
-44.4847
-25.864
-6.04916
12.4995
28.2567
40.9177
51.076
59.8232
67.835
75.1965
80.9999
83.3741
81.8885
77.7242
71.9006
65.01
57.7263
50.3758
42.1621
31.0395
16.6343
-1.62975
-24.4279
-49.764
-73.6297
-87.7113
-68.4792
38.8314
242.464
393.226
557.699
1056.91
9936.43
226342
-1.47204
-1.17724
-1.86388
-2.65079
-3.47383
-4.19439
-5.08597
-7.03547
-11.0676
-16.4811
-20.9887
-20.5601
-14.5697
-5.78645
1.82776
3.9791
-0.827839
-11.0861
-24.2466
-37.9684
-50.4202
-60.2065
-65.8998
-66.8047
-62.9223
-54.2208
-40.7158
-23.785
-5.69815
11.5412
26.5701
39.0223
49.3106
58.4644
66.9198
74.7744
81.1115
84.0032
82.9454
79.1852
73.7489
67.2948
60.4562
53.4854
45.6653
34.876
20.0143
1.45059
-20.2678
-43.9767
-65.4906
-67.5126
-33.8601
80.3713
284.439
419.693
547.927
1222.77
12947.6
231772
-0.530477
-1.48914
-2.31061
-3.21683
-4.03927
-4.78015
-5.74728
-7.59041
-11.3743
-16.4212
-20.5342
-19.8158
-13.8412
-5.36749
1.84126
3.58981
-1.35792
-11.6566
-24.8358
-38.472
-50.5091
-59.4126
-63.8405
-63.2556
-58.4094
-49.208
-36.3827
-20.988
-4.62129
11.2086
25.3631
37.4582
47.7122
57.0882
65.8478
74.0343
80.7321
83.9936
83.151
79.4214
74.0659
67.7009
60.8602
53.6711
45.754
35.3619
21.1618
3.48408
-17.5433
-39.5283
-57.1287
-55.192
-16.8091
93.9058
303.658
435.424
590.792
1360.94
14940.5
237705
-2.44567
-2.2506
-2.68801
-3.45493
-4.36775
-5.215
-6.30812
-8.21247
-11.7728
-16.3628
-19.9929
-19.1419
-13.4183
-5.33023
1.37905
2.78062
-2.20829
-12.3224
-25.2466
-38.4807
-49.8508
-57.7102
-61.0158
-59.579
-53.8918
-44.6819
-32.4201
-18.2137
-3.28737
11.2038
24.4118
36.0047
46.1404
55.6678
64.7348
73.1935
80.0493
83.3608
82.8913
79.5293
74.355
68.1517
61.3958
54.2954
46.064
35.718
22.3141
5.23266
-14.9527
-36.8806
-52.7131
-52.9495
-13.9698
98.2804
298.891
407.355
602.747
1385.15
15414.9
237121
-1.63732
-2.08204
-2.69883
-3.64342
-4.74309
-5.87462
-7.17995
-9.11401
-12.4184
-16.5221
-19.5755
-18.6345
-13.0827
-5.24861
0.849471
1.89724
-3.07506
-12.8835
-25.3349
-38.0007
-48.6394
-55.6136
-58.1441
-56.2049
-50.3888
-40.8365
-28.9804
-15.6442
-1.83159
11.5135
23.7718
34.7931
44.7954
54.3994
63.7667
72.5585
79.6111
83.2893
83.2537
80.095
75.095
68.6087
61.3084
53.6284
45.4463
35.5902
22.3943
5.69057
-14.4987
-37.3728
-56.6597
-61.5482
-30.8989
79.7146
290.064
417.472
697.552
1497.74
14275.6
232548
-1.74728
-2.12988
-2.74895
-3.74532
-4.96635
-6.24681
-7.72627
-9.72339
-12.8264
-16.5134
-19.1383
-18.2087
-12.9805
-5.70199
-0.0930157
0.685406
-4.14621
-13.4505
-25.1866
-37.0581
-46.8189
-52.9841
-54.8779
-52.5417
-46.3778
-37.2561
-25.9415
-13.3781
-0.497003
11.9107
23.3891
33.9358
43.8379
53.5336
63.1233
72.0877
79.1217
82.7535
82.6426
79.495
74.4122
67.9247
60.6851
53.3673
45.6645
36.0509
23.3247
6.44914
-14.2061
-39.3402
-64.9318
-80.798
-71.5294
41.112
250.336
400.408
821.42
1833.64
14841.3
223655
-0.265592
-1.7566
-2.62945
-3.77781
-5.20001
-6.65123
-8.30589
-10.3278
-13.2196
-16.5036
-18.7856
-17.8683
-13.0884
-6.4154
-1.37343
-0.841924
-5.53242
-14.28
-25.1259
-35.922
-44.6674
-49.9896
-51.32
-48.7382
-42.6469
-33.8525
-23.0846
-11.1611
0.936784
12.5436
23.3304
33.437
43.1854
52.9063
62.5922
71.5919
78.5473
82.2233
82.2266
78.9527
73.2913
66.0707
57.9977
49.9904
41.9033
31.9586