/*--------------------------------*- C++ -*----------------------------------*\
| =========                 |                                                 |
| \\      /  F ield         | OpenFOAM: The Open Source CFD Toolbox           |
|  \\    /   O peration     | Version:  2.1.1                                 |
|   \\  /    A nd           | Web:      www.OpenFOAM.org                      |
|    \\/     M anipulation  |                                                 |
\*---------------------------------------------------------------------------*/
FoamFile
{
    version     2.0;
    format      ascii;
    class       volScalarField;
    location    "0.00145";
    object      p_rgh;
}
// * * * * * * * * * * * * * * * * * * * * * * * * * * * * * * * * * * * * * //

dimensions      [1 -1 -2 0 0 0 0];

internalField   nonuniform List<scalar> 
36520
(
6.16965
2.24495
1.81725
0.921953
0.0708219
-0.629894
-1.4846
-2.87616
-5.55205
-9.71061
-14.7102
-19.0809
-21.1052
-19.8361
-16.0758
-12.327
-11.9084
-17.7645
-31.2109
-51.6839
-77.3129
-104.72
-126.526
-132.696
-116.961
-80.5506
-30.6859
19.4242
56.5274
76.4096
85.0157
88.4064
89.9218
90.8045
91.4072
91.4699
90.8175
89.0752
86.0964
81.9626
76.989
71.5656
65.8534
59.7078
52.733
44.2694
33.573
19.963
2.10352
-24.0387
-66.4551
-131.69
-206.537
-327.591
-460.053
-441.615
-356.314
240.74
5536.02
196555
6.88116
2.72777
1.81316
0.858034
0.0473231
-0.585917
-1.33764
-2.62041
-5.29705
-9.64625
-14.9853
-19.6959
-21.8516
-20.3646
-16.0664
-11.5886
-10.5904
-16.2355
-29.9453
-51.0527
-77.6664
-106.685
-130.626
-138.209
-122.364
-84.8341
-32.4169
20.6103
59.134
78.6884
86.4902
89.1307
90.4402
91.4156
92.0006
92.0539
91.3243
89.5278
86.4587
82.2008
77.1207
71.6671
66.0023
59.9785
53.2484
45.1559
34.9545
21.9289
4.39947
-22.4663
-68.329
-145.313
-256.826
-469.13
-770.134
-657.507
-489.126
339.711
1662.16
119490
8.47051
3.8768
1.88756
0.647539
-0.0973791
-0.603067
-1.11895
-2.16255
-4.82653
-9.57735
-15.6119
-20.9918
-23.3329
-21.3793
-15.9813
-10.1903
-8.02335
-13.2046
-27.3645
-49.6163
-77.9712
-110.06
-138.295
-148.182
-132.629
-92.9974
-35.518
23.2366
64.3858
83.0789
89.2483
90.7426
91.5953
92.4526
93.1385
93.0733
92.2646
90.4155
87.1515
82.6365
77.3563
71.8795
66.4563
60.8788
54.7911
47.4798
38.2176
25.9727
8.36025
-21.3159
-73.3929
-156.317
-257.963
-349.915
-497.049
-461.503
-342.759
465.866
476.859
66711.6
9.23912
4.31538
1.78065
0.421088
-0.253807
-0.596776
-0.76266
-1.46228
-4.12663
-9.534
-16.6351
-22.9585
-25.4188
-22.5243
-15.5078
-8.10718
-4.47333
-9.10635
-23.8824
-47.6689
-78.2721
-114.59
-148.982
-161.688
-146.617
-104.402
-40.023
26.9308
71.7008
88.9105
92.785
92.8529
93.1272
94.1676
94.7802
94.6689
93.7856
91.8862
88.2646
83.3284
77.7212
72.131
66.9428
61.9086
56.724
50.6683
43.0387
32.4299
15.7492
-14.1475
-66.3778
-149.924
-244.806
-286.453
-305.232
-275.542
-252.448
493.718
-209.855
28976.2
9.29959
4.34561
1.4841
0.157572
-0.448019
-0.616329
-0.362549
-0.58352
-3.24103
-9.57627
-18.1461
-25.5879
-27.6885
-23.148
-14.1238
-5.00681
-0.354057
-4.8751
-20.4476
-45.9808
-78.8546
-119.704
-161.505
-178.305
-162.134
-117.604
-45.2271
31.0336
79.5937
94.8568
96.1773
94.8309
94.6728
95.8641
96.6965
96.6865
95.7336
93.4421
89.4548
83.8937
77.8009
72.0637
67.2178
62.8397
58.7102
54.072
48.16
39.1276
23.9837
-4.26514
-53.9012
-132.668
-218.906
-241.051
-217.228
-138.431
-42.9687
363.661
-108.896
13075
7.6907
3.73361
0.911697
-0.190748
-0.722668
-0.683427
0.0753156
0.453846
-2.25047
-9.8978
-20.4843
-28.9098
-29.5745
-22.2547
-11.0383
-0.440383
3.97451
-1.47937
-18.2708
-44.8977
-78.6443
-122.113
-170.797
-192.677
-174.332
-128.609
-50.5719
33.0506
84.7988
98.6011
98.185
96.0258
95.883
97.3583
98.579
99.0388
98.1516
95.5986
90.8541
84.4278
77.5396
71.3061
66.7614
63.3557
60.4585
58.4034
55.2446
49.7558
37.5472
11.8723
-33.5352
-103.339
-189.017
-228.143
-195.032
-96.275
6.22718
182.217
531.513
18135.3
6.99918
3.06534
0.280628
-0.316847
-0.918943
-0.780817
0.566946
1.55641
-1.30082
-10.9856
-24.3416
-33.2584
-30.5982
-18.8393
-4.88951
5.07489
7.00125
-0.209962
-18.4508
-45.9578
-79.1158
-123.539
-173.245
-196.213
-174.569
-122.809
-48.346
30.4606
85.5434
99.7988
98.2991
95.9592
96.2611
98.6333
100.13
100.802
100.338
97.6299
91.9671
84.5407
76.8868
70.2428
65.4919
62.3138
60.0188
59.0904
57.3603
53.6534
44.2258
22.7224
-16.8662
-78.0515
-149.867
-191.524
-175.898
-97.8298
1.76046
119.834
793.172
40891.2
-5.3401
0.338302
-0.869022
-0.478127
-1.19642
-1.0012
1.23283
3.13445
0.247547
-12.5414
-30.4808
-39.4726
-31.2576
-12.0606
5.0928
13.043
10.2182
-1.71044
-23.7891
-50.3085
-81.3014
-120.366
-166.846
-188.956
-167.129
-109.46
-30.8577
35.1196
74.8521
92.0641
95.0015
93.0583
94.822
99.366
101.6
102.767
103.24
100.702
94.3939
86.1314
77.4455
69.4969
63.8635
60.9233
61.5574
63.0457
62.0925
59.4603
51.0927
31.6213
-3.77581
-56.9188
-119.478
-168.489
-174.046
-111.833
-35.4874
82.0571
2414.21
61500.8
18.7764
5.31029
-0.674319
0.210164
-0.97648
-1.47207
0.926284
2.40044
-2.5738
-20.1205
-41.2031
-44.0589
-25.0416
1.89133
19.9863
20.4088
10.3964
-6.71251
-30.0154
-55.9694
-83.3259
-122.625
-165.263
-181.117
-158.098
-103.231
-28.9693
34.9927
74.4894
91.4367
90.6337
92.2
98.3062
102.74
101.061
102.264
103.641
101.866
97.1024
86.4712
76.8391
68.2451
61.2519
58.2662
60.3131
63.184
65.1823
64.9598
59.5202
45.8473
18.4125
-28.9573
-88.0901
-149.679
-172.132
-126.696
-24.4597
542.571
12578.2
78895.9
36.9695
3.34226
-3.07368
-1.12851
-0.651528
-0.648893
-0.165816
1.00003
-2.12809
-17.3471
-42.2029
-53.0524
-32.9877
3.80661
25.845
29.0867
16.0994
-0.685174
-23.1055
-54.1948
-87.2307
-134.8
-166.01
-179.067
-155.144
-101.096
-28.5649
36.053
81.367
99.414
98.2731
95.1478
94.9255
94.1573
101.705
107.692
106.46
101.239
92.5864
84.2044
74.9786
66.0165
58.9888
56.8231
59.2975
64.547
70.2889
72.9462
71.6101
63.6115
43.0112
4.91223
-47.4145
-115.96
-156.333
-121.53
10.9883
1000.55
18162
90136.6
11.9413
-1.44239
-4.38692
-2.11089
-0.799933
1.50553
4.86276
6.20858
0.995643
-19.8074
-48.301
-54.0735
-35.5809
4.69748
30.3918
27.4173
16.2907
0.0916498
-18.9817
-41.9025
-63.359
-126.267
-169.305
-195.36
-167.674
-100.063
-31.1132
38.2097
92.3404
109.683
102.072
93.4319
89.7942
89.3129
95.4025
107.399
111.409
103.03
93.6405
84.4147
74.2957
65.7119
59.5348
57.4001
59.2398
63.6813
69.4733
73.9372
74.5581
68.6271
53.0925
25.3953
-21.825
-88.0274
-138.787
-112.245
-18.249
681.962
21269
102627
-11.9695
-0.772526
-2.47759
-1.80403
-0.314278
2.33722
5.70172
8.33507
3.88585
-14.3744
-39.6324
-48.5181
-35.4672
-4.51127
15.3853
15.6553
12.1587
0.674857
-15.6215
-34.2939
-55.4358
-107.598
-208.074
-213.501
-191.099
-111.802
-38.7195
51.7255
107.63
117.023
106.256
94.9482
89.8267
89.0087
94.2982
102.006
104.121
101.748
93.255
84.8556
75.6535
67.3405
61.3099
59.2037
60.2263
63.6774
68.8709
72.9072
72.8063
67.5943
55.2434
32.5668
-10.3144
-82.6486
-145.028
-112.635
-29.2646
117.267
9957.32
113499
-7.99351
-0.260953
-2.37542
-1.19087
1.06559
3.95796
6.82289
8.16988
2.00308
-16.9054
-41.4145
-49.6651
-38.5712
-14.825
6.30457
13.1179
15.2073
9.68019
-6.77748
-28.6225
-43.8127
-62.7573
-82.9588
-173.353
-183.966
-135.728
-102.424
27.3676
120.201
132.103
112.952
97.7263
89.4552
87.601
91.8928
97.9297
105.292
103.752
94.2243
85.3699
75.6347
66.7246
61.0617
59.3329
60.4817
64.0068
70.1616
78.605
79.8095
69.6975
53.1059
25.8973
-20.9796
-94.1344
-148.545
-103.908
-20.185
124.801
8829.23
123309
20.1998
2.28382
-2.86586
0.095783
2.20875
4.53158
6.84441
7.37908
0.802682
-18.5368
-44.9012
-56.9646
-45.3199
-20.4511
-2.36064
8.46777
18.1748
15.073
-2.23875
-28.5188
-51.1129
-70.6667
-113.196
-137.958
-44.7178
7.44428
-84.7067
-11.7835
109.362
142.959
114.177
94.7991
85.2399
83.9068
89.126
102.355
114.335
110.343
97.0066
85.8221
74.3499
64.7155
58.7817
56.9941
58.2744
62.0085
65.2851
65.9361
63.7208
55.5133
37.5206
8.62584
-35.4027
-117.002
-159.059
-99.4574
15.3197
700.307
18062.6
129407
52.8332
11.5492
-0.0445799
0.0812058
2.03892
4.80117
7.05205
6.57699
-0.434127
-17.849
-38.5416
-54.9359
-56.5926
-35.9011
-3.50515
20.7135
48.141
49.5707
12.1405
-21.345
-46.6731
-72.3753
-92.2953
-106.279
-252.071
-183.492
-102.663
33.3977
53.2617
116.14
124.111
94.2275
81.6981
83.425
97.443
112.921
113.476
105.835
95.8261
85.7774
74.9411
65.6675
60.4675
59.2782
60.1646
61.8453
61.4421
56.4698
48.2522
33.05
8.045
-25.0803
-78.0729
-160.713
-171.109
-75.7155
52.934
749.352
15061.1
111087
24.0047
8.19642
-1.10169
-0.576119
1.41828
4.53642
7.86558
7.80105
0.658877
-17.5334
-46.8986
-65.0523
-51.134
-18.4612
-1.03142
37.5141
85.6135
71.1835
22.1234
-18.7325
-48.9456
-88.5348
-131.408
-137.893
-155.647
-167.616
-142.934
-60.654
8.713
79.9644
104.032
85.9671
76.3014
77.4409
86.9024
101.33
108.291
105.088
96.4766
85.2558
74.8575
67.093
62.4048
60.9127
61.1109
59.3443
53.5724
44.8652
33.2072
13.7868
-16.7159
-62.579
-126.84
-184.979
-172.118
-61.7283
69.1075
512.046
11194.3
89138.2
-3.95285
-1.7596
-2.92904
-1.36415
0.000799939
2.4153
4.829
4.34175
-2.63338
-20.7179
-49.0641
-65.4403
-49.2656
-5.63325
32.5496
42.9631
46.6108
35.7361
7.0714
-25.3997
-55.6925
-90.7662
-124.534
-146.982
-168.045
-176.918
-149.162
-77.3803
11.8195
72.477
87.2729
78.9313
72.7784
73.4842
80.762
92.662
101.239
100.395
92.5269
82.863
73.15
65.7925
60.9572
58.9447
58.9298
57.4247
52.0386
44.7342
34.8217
15.9648
-20.9603
-72.8726
-137.443
-185.953
-160.811
-39.1064
84.9571
220.739
2800.46
64736.8
7.36325
1.83603
-1.43901
-1.3324
-0.757842
0.559767
1.81192
0.743601
-5.68965
-19.8991
-38.9711
-49.2385
-39.3832
-16.1118
12.2536
34.7696
41.1332
24.2451
-1.67664
-27.3677
-52.4907
-82.3169
-111.354
-132.367
-150.861
-157.168
-131.219
-75.1107
-4.18092
52.0948
71.5577
73.0321
72.2827
74.5274
80.8998
89.7697
95.9164
95.2063
89.9268
82.1897
72.8286
64.7439
59.3375
56.716
56.507
54.9364
49.2994
41.835
29.5248
4.47728
-37.6846
-99.2696
-166.446
-207.825
-169.603
-29.9446
87.484
225.956
316.546
37495.7
6.26242
1.71864
-1.05265
-1.60559
-1.38522
-0.778745
-0.430922
-2.07408
-7.94979
-18.9258
-31.835
-37.7078
-29.2201
-10.2944
8.67523
20.4805
22.9429
10.7351
-9.34938
-30.0112
-51.2627
-75.7416
-100.232
-119.614
-131.604
-127.438
-104.339
-57.3871
-2.37983
41.6958
61.1198
67.1335
69.7299
73.4517
79.539
86.955
92.2525
92.6807
88.5163
81.5981
73.2771
65.7961
60.2828
56.7737
55.1119
51.4418
43.3373
31.6064
12.5167
-20.5801
-71.7155
-140.932
-214.71
-247.198
-184.135
-36.4327
72.6663
255.092
-139.564
14345.9
8.41182
2.45971
-0.572731
-1.51987
-1.70829
-1.6371
-1.91268
-3.92159
-9.15218
-17.7575
-26.8975
-30.4757
-23.9602
-9.88428
5.83331
14.404
12.9641
1.77271
-14.6739
-32.2365
-50.6567
-70.9707
-91.0268
-106.675
-113.715
-107.356
-83.9914
-44.8678
-1.34282
33.4363
52.0183
60.7928
65.9899
70.9817
76.8926
83.251
87.9066
88.9182
86.1441
80.6086
73.7256
67.2069
61.6027
56.8686
52.4951
45.5709
34.3107
18.2939
-6.16024
-44.7483
-101.245
-172.291
-239.348
-263.93
-204.206
-56.7095
38.0228
281.346
-296.73
5882.05
7.48641
2.47854
-0.172085
-1.39803
-1.91057
-2.2508
-2.9851
-5.16736
-9.76544
-16.5512
-23.0951
-25.166
-19.7959
-9.38368
1.02676
7.30703
5.19204
-4.31135
-18.1325
-33.538
-49.8529
-67.0116
-83.0137
-94.5772
-98.1318
-89.9884
-68.6973
-36.4989
-1.6357
26.8896
44.8643
55.5073
62.5675
68.5339
74.5283
80.3659
84.6276
85.5969
83.4812
78.8329
72.7575
66.4502
60.445
54.7906
48.6516
39.7487
26.0086
6.21738
-22.4544
-64.5276
-121.364
-190.205
-257.019
-315.035
-273.492
-106.213
13.613
316.094
63.2785
23516.2
7.12064
2.39033
0.0893966
-1.18665
-1.96221
-2.64342
-3.74142
-6.021
-10.1057
-15.5269
-20.3212
-21.5028
-17.1624
-9.23618
-1.27099
2.45957
0.0317391
-8.29837
-20.466
-34.4053
-49.1444
-63.9404
-76.924
-85.3924
-86.3764
-77.5308
-58.359
-31.2789
-2.34644
22.192
39.635
51.3581
59.6797
66.4481
72.6146
78.1985
82.2452
83.7032
81.9784
77.9683
72.5195
66.3807
59.8207
52.9
44.9385
33.9888
17.9087
-4.47613
-34.8526
-76.5831
-131.792
-195.343
-262.195
-322.537
-352.37
-201.064
-18.4726
445.683
906.454
53667.4
5.45568
1.76629
0.260395
-0.963834
-1.95027
-2.89373
-4.23704
-6.5683
-10.2886
-14.801
-18.4786
-19.1138
-15.5192
-9.19297
-3.00899
-0.454304
-3.11376
-10.7441
-21.8856
-34.867
-48.514
-61.7256
-72.7405
-79.3601
-78.9061
-69.8507
-52.154
-28.3211
-3.02952
19.1977
36.2115
48.4894
57.5781
64.8875
71.2395
76.6695
80.4431
81.7328
80.3337
76.6732
71.4268
65.14
58.1278
50.6445
41.8987
30.2513
14.5901
-6.52473
-34.9875
-73.2901
-123.866
-187.34
-266.769
-371.282
-433.722
-254.39
-101.547
328.619
699.767
106605
4.49709
1.29681
0.260741
-0.934831
-2.01471
-3.06699
-4.53194
-6.88694
-10.421
-14.5066
-17.6669
-18.0773
-14.8163
-9.23355
-3.99834
-1.95299
-4.65396
-11.9666
-22.6167
-35.1035
-48.1879
-60.626
-70.662
-76.446
-75.3318
-66.1031
-49.2338
-26.957
-3.356
17.8007
34.5727
47.0803
56.5036
64.0659
70.4925
75.8491
79.5131
80.8029
79.5232
76.0613
71.0117
64.9124
58.0299
50.4396
41.6047
29.6209
12.9599
-8.27768
-36.1826
-73.0445
-121.196
-181.1
-253.962
-331.376
-336.342
-140.051
392.588
1232.41
4314.03
218943
4.14694
0.162549
-1.22483
-3.16089
-5.12597
-7.06207
-9.04373
-11.0201
-13.0248
-14.802
-15.8436
-15.4813
-13.6643
-11.217
-9.90576
-11.0235
-14.6278
-19.7557
-25.0738
-29.3434
-31.7933
-32.2149
-30.705
-27.3858
-22.3576
-15.8369
-8.17358
0.185772
8.85352
17.3922
25.7357
34.0045
42.3663
50.8359
59.0265
66.3444
71.9672
75.4906
76.7526
75.7459
72.7127
68.142
62.8522
57.4994
51.8197
44.6018
34.4162
20.5542
0.755469
-25.9292
-61.6678
-110.473
-178.267
-298.859
-405.032
-255.963
93.642
739.044
2536.55
197868
5.10904
0.726383
-1.26005
-3.26121
-5.2036
-7.14714
-9.14679
-11.1356
-13.1689
-15.0409
-16.1838
-15.8325
-13.8345
-11.0111
-9.42942
-10.5806
-14.4449
-19.9115
-25.4916
-29.8468
-32.183
-32.4299
-30.7998
-27.431
-22.3755
-15.8235
-8.11609
0.28796
9.06763
17.5778
25.8341
34.0376
42.4163
51.0192
59.4318
66.9191
72.649
76.1488
77.4016
76.3603
73.2149
68.4812
63.053
57.7115
52.2387
45.3435
35.2024
21.5463
1.6663
-25.1357
-62.3816
-116.875
-203.163
-355.506
-479.615
-334.023
-103.954
353.978
127.446
88548
6.80035
1.55832
-1.3673
-3.5479
-5.45
-7.38181
-9.40874
-11.4111
-13.4773
-15.5316
-16.8868
-16.5636
-14.2212
-10.6074
-8.46023
-9.73641
-14.1887
-20.3864
-26.4948
-30.9854
-33.0196
-32.8506
-30.9596
-27.5055
-22.4251
-15.827
-8.03532
0.492727
9.42896
17.8168
25.9487
34.0429
42.4397
51.2684
60.0532
67.9431
73.7891
77.3752
78.758
77.8232
74.8138
70.1567
64.9193
60.119
55.2978
48.7439
38.4286
23.8108
2.89993
-25.1652
-64.8725
-124.551
-211.987
-330.278
-402.262
-263.544
-72.4375
410.886
-364.783
38424.3
7.17507
1.61439
-1.67138
-3.86294
-5.69022
-7.65973
-9.76448
-11.8053
-13.9072
-16.2483
-17.963
-17.7732
-14.9018
-10.0588
-6.94385
-8.46881
-13.8949
-21.2464
-28.1798
-32.7946
-34.1299
-33.1443
-30.812
-27.2766
-22.2331
-15.6261
-7.78314
0.85619
9.71248
18.1514
26.132
34.0176
42.3918
51.5531
60.922
69.1824
75.2462
78.8767
80.2982
79.5668
76.5665
72.0567
67.4988
64.1226
61.1374
56.395
47.2696
31.8753
9.90885
-19.8254
-60.9823
-121.136
-201.504
-292.52
-320.389
-188.532
-52.5688
261.131
-456.25
7220.72
7.31816
1.21
-2.21188
-4.23264
-5.88774
-7.90792
-10.1571
-12.2532
-14.3634
-16.9995
-19.1921
-19.2086
-15.5007
-9.13736
-4.79886
-6.81755
-13.7722
-22.6879
-30.8439
-35.6541
-35.7384
-33.3434
-30.2914
-26.6679
-21.7593
-15.2298
-7.36509
1.37502
10.2701
18.6652
26.3872
33.9757
42.28
51.8395
61.8827
70.4468
76.6086
80.0791
81.3773
80.4728
77.2134
72.4293
68.2747
66.8791
67.4393
66.3511
59.9552
46.4939
26.182
-4.01632
-47.7561
-109.699
-185.89
-257.814
-256.042
-133.59
-26.8044
187.534
-340.536
2925.39
6.67191
0.656082
-2.79206
-4.42589
-5.82576
-7.94738
-10.5611
-12.9294
-15.0776
-17.9214
-20.6049
-21.0612
-16.9116
-8.69388
-2.31856
-5.29021
-14.3234
-25.2969
-35.1178
-39.8401
-37.9994
-32.969
-28.6791
-25.0347
-20.5464
-14.3567
-6.70282
1.93761
10.7547
18.9733
26.407
33.7816
42.0691
51.949
62.6962
71.993
78.3422
81.5488
82.4244
81.0761
77.1455
71.6343
67.0549
66.9519
70.4163
74.0909
73.4648
64.815
48.651
21.3577
-22.4392
-85.8721
-162.949
-229.062
-224.241
-119.603
-12.1247
143.358
-310.274
9226.06
3.05257
-0.41668
-3.15024
-4.19694
-5.27893
-7.53692
-10.8794
-13.9928
-16.2346
-18.8431
-21.7315
-22.6843
-18.5337
-8.46846
0.304674
-3.73423
-15.1604
-28.6686
-40.8661
-46.0234
-40.8237
-31.8172
-25.8399
-22.4229
-18.6738
-12.8707
-5.53171
2.81384
11.3369
19.2031
26.2834
33.4467
41.7098
51.6496
62.7108
72.5543
79.4961
82.5958
83.1615
81.4735
76.8909
70.9008
66.7782
67.332
71.8311
78.8929
81.1588
73.9073
63.5704
43.4346
3.89039
-56.8412
-133.422
-202.387
-203.117
-105.723
6.3775
115.399
-1.93258
30847.1
0.169092
-0.773823
-3.64943
-3.70744
-4.21145
-6.42009
-10.836
-15.4286
-17.9834
-19.8802
-22.8472
-24.6911
-21.5536
-9.39418
2.84387
-0.735294
-14.0685
-32.223
-48.4608
-55.5973
-45.3187
-30.2589
-21.9542
-19.1645
-16.1892
-10.9195
-4.00679
3.85396
11.9608
19.5088
26.1748
33.1364
41.1793
51.1871
62.4512
72.7433
79.8009
83.1736
82.7272
80.2168
74.7756
67.7252
62.3911
62.429
69.7219
81.2949
88.3426
87.8039
80.0143
63.4076
31.3363
-23.1118
-96.5738
-167.193
-182.418
-106.101
0.284306
97.4958
1212.68
54654.8
-11.19
-1.88336
-4.11349
-2.99478
-2.44389
-4.16464
-10.1064
-17.0082
-19.8348
-20.3503
-22.4715
-24.9163
-22.8519
-8.7483
5.65454
0.282884
-19.0759
-40.6447
-57.8155
-62.1045
-48.6561
-26.4152
-15.5995
-14.5687
-12.9154
-8.20336
-1.92034
5.10189
12.4907
19.7099
26.2802
33.265
41.5266
51.1443
61.2138
71.22
79.1207
82.3
82.223
79.4652
73.4793
66.571
60.8209
60.7815
65.3911
71.6344
77.3761
77.8118
75.9988
70.1083
50.4329
7.12384
-53.4217
-127.389
-164.404
-120.72
-9.90579
197.666
7434.71
77266.2
7.2596
1.68689
-4.17342
-1.9547
0.119906
-0.232572
-8.19332
-21.3953
-27.6039
-23.4483
-21.1335
-22.6315
-20.9038
-10.7482
2.56847
-3.43117
-18.7872
-37.4557
-67.0904
-88.3378
-62.4104
-24.9528
-9.24229
-9.90048
-8.69071
-3.94384
1.42057
7.70169
15.0015
22.1078
28.416
34.8685
42.7449
52.4204
63.4914
75.0281
83.0725
84.6034
83.6856
79.4381
72.5203
65.4833
61.1287
62.2648
69.7853
78.5023
84.5485
83.9831
79.2712
66.3255
37.6172
-0.828625
-51.5159
-112.529
-153.199
-122.91
25.1453
913.566
20420.7
88263.9
61.6877
5.70956
-0.308765
1.8398
3.05173
2.143
-6.97508
-24.5853
-33.1209
-25.9525
-21.3164
-26.3229
-16.7309
5.54044
13.6284
-16.7557
-56.3051
-77.3045
-92.4636
-83.0616
-39.7981
1.81976
18.2373
3.7049
1.14351
4.69275
8.2162
13.2152
19.8511
27.0945
34.1437
40.6556
48.3823
57.9957
68.5399
79.6383
85.6809
85.2068
82.9624
77.3007
70.1435
63.0757
58.1907
60.7091
68.6311
79.2375
85.8184
86.3304
81.6041
70.2436
48.3022
12.0009
-35.4105
-96.6197
-123.261
-69.4936
86.8471
1111.22
21910.9
91115.7
74.0191
10.364
1.8186
4.17198
4.48215
2.87091
-6.66208
-21.9251
-31.4126
-34.5512
-31.0244
-13.3112
5.82162
22.6577
0.648529
-28.6499
-52.64
-54.0293
-27.8779
16.9627
-36.5325
31.4473
48.9514
10.0803
3.92278
9.62003
14.2049
19.0992
26.6476
33.7179
37.9975
42.973
50.6393
60.137
69.5362
77.7385
82.8342
84.1025
81.898
75.9599
68.4329
61.8313
58.6192
61.2447
68.3818
76.9676
83.8034
85.6083
80.1868
67.2847
45.8805
15.2138
-25.1778
-86.1687
-101.295
-39.1928
69.59
771.967
20969.6
94104.6
73.3102
10.9923
2.68357
4.23406
3.91598
1.29853
-7.91487
-23.7181
-36.8912
-42.1465
-36.0666
-12.9462
22.6081
44.2512
18.9542
-38.4021
-71.9229
-89.2003
-134.467
-93.23
2.00353
48.4499
25.9718
3.69968
9.24963
20.9807
23.475
21.1159
22.0967
27.008
33.9271
42.0714
51.377
61.5172
72.7373
81.5422
84.0305
85.6015
84.3055
78.7602
70.749
62.9998
59.2688
62.0036
69.6218
78.0098
85.583
86.7464
81.0179
67.0744
43.0082
12.9243
-23.3371
-63.6034
-89.462
-27.5327
74.5104
797.355
19885.3
95940.5
35.8898
7.47259
-1.2114
1.07961
1.74726
-0.00709486
-7.70119
-21.7698
-35.072
-40.0777
-31.6541
-5.93984
31.763
50.1469
21.779
-39.3658
-81.4245
-99.6475
-121.394
-108.234
-50.2198
6.18126
13.9663
11.1796
13.182
13.471
14.8244
17.8927
23.4167
29.5879
35.4129
42.3773
51.2636
64.085
78.8167
86.3468
86.468
86.7934
84.4993
77.4315
69.2101
62.0044
59.2855
62.5397
69.6586
76.4229
82.1532
82.7719
74.9342
58.3328
32.2593
1.17489
-36.0611
-72.6844
-84.2444
-35.9773
67.2305
777.974
19305.8
95653
-3.97087
-2.5093
-4.41704
0.0482531
1.34354
-0.556947
-5.7687
-13.9702
-25.5783
-38.6476
-39.3745
-16.9464
24.1292
43.1521
19.2054
-28.7006
-67.7058
-95.5881
-125.294
-121.411
-78.042
-36.2637
-2.22944
21.0476
22.2379
16.8826
14.3134
16.8509
22.7459
30.6567
37.2284
42.8351
50.7386
63.5898
78.984
87.4368
87.7527
88.3624
86.987
79.7701
71.0668
62.0732
58.8146
62.4516
67.7939
70.8912
72.1618
70.291
62.325
45.7371
21.8539
-9.29909
-42.0336
-75.5878
-90.4322
-38.1928
51.9211
485.599
17355.6
93857.7
-15.8464
-7.42823
-6.48112
-2.68142
-0.841489
-2.84514
-6.49989
-10.9822
-18.2356
-26.6488
-28.4006
-16.1688
9.66367
22.631
10.4811
-22.4179
-56.6363
-89.296
-116.232
-116.07
-84.0519
-43.0899
-1.58583
21.9908
18.2977
12.6992
12.8281
17.391
23.7761
31.6937
38.6506
44.3374
51.0476
61.3448
74.7644
83.2374
86.7993
88.7726
88.0711
80.6669
72.1575
67.3823
67.1411
69.9011
71.8465
71.2917
69.4286
64.6684
53.8815
34.6591
7.45185
-31.088
-74.0893
-114.392
-111.105
-34.0951
57.4592
202.113
6140.39
92950.8
-23.5807
-8.45342
-6.36726
-2.71098
-1.67956
-3.36185
-5.79857
-8.26348
-13.0097
-20.6849
-24.9784
-16.3671
1.3099
12.5962
8.98531
-12.5603
-43.5855
-80.8962
-111.36
-113.505
-89.9585
-55.9815
-15.6071
10.5968
11.3457
8.85913
11.3976
16.3546
23.801
32.6336
40.8464
47.9826
54.5109
62.8293
72.5643
80.1457
85.7144
88.5352
87.5288
80.2306
71.4789
65.6631
62.165
61.5532
63.1569
63.3532
60.7866
54.6316
41.7911
19.6493
-14.4564
-58.9321
-106.652
-141.5
-120.283
-20.0704
82.1879
138.287
948.202
68261.1
0.809846
-1.14177
-3.04438
-2.86893
-3.23959
-4.50165
-6.11535
-8.12262
-12.0931
-18.1768
-22.2409
-17.8994
-6.2024
3.64862
2.5886
-11.8672
-36.8529
-66.0417
-87.435
-94.7868
-82.9704
-61.4578
-31.8165
-8.70169
-2.0581
0.416341
5.13899
13.5309
23.2309
33.5748
43.486
52.1548
59.7063
66.8263
74.8976
81.4492
85.2353
87.2543
85.3757
78.6231
71.1534
66.4566
65.0264
66.3872
68.6778
68.5872
63.9366
53.2547
33.8534
3.93598
-37.8885
-85.4492
-131.999
-148.223
-112.196
-0.530118
110.021
225.467
361.724
42755.4
3.54889
-1.63368
-3.04026
-3.01026
-3.54371
-4.51775
-5.85265
-7.66326
-10.914
-15.5662
-18.7361
-16.177
-9.11912
-3.32387
-4.08319
-14.4475
-33.5225
-56.6028
-74.7808
-80.9959
-73.842
-58.1623
-37.5725
-20.1337
-10.7929
-4.35777
3.78953
13.2073
23.8221
34.6086
44.492
53.0513
60.7384
68.0552
75.2323
80.8887
84.8043
86.8684
85.2641
79.8402
73.5739
69.0011
66.907
66.1891
65.7087
62.4367
53.7655
37.0576
9.10149
-29.8136
-78.804
-128.975
-169.4
-177.421
-130.614
-1.36382
128.579
308.905
198.135
19977.9
5.98051
0.908482
-1.74067
-2.72438
-3.55393
-4.54725
-5.8146
-7.58694
-10.4531
-14.2548
-17.037
-15.9855
-11.7744
-7.96973
-8.65613
-16.1852
-30.214
-47.3414
-61.6941
-68.1987
-65.2902
-55.2136
-41.1701
-27.8459
-17.9699
-9.46235
1.15126
12.6966
24.5471
35.98
46.4529
55.0014
62.1808
68.8122
74.8886
79.6749
83.0327
84.6136
83.4112
79.2376
74.5131
70.7738
68.266
66.186
63.0618
55.9181
41.3841
15.7117
-20.0977
-65.1284
-114.788
-157.376
-191.55
-197.476
-157.867
-23.7269
104.572
346.958
-76.656
9514.4
6.68896
1.60285
-0.874927
-2.22955
-3.30773
-4.44535
-5.76302
-7.55629
-10.1921
-13.4415
-15.9121
-15.8135
-13.3793
-10.9485
-11.6899
-17.5131
-28.311
-41.5755
-53.2
-59.6123
-59.439
-53.6271
-44.0061
-33.3366
-23.1796
-12.4312
-0.692396
12.1827
24.9251
36.6791
46.9191
55.5434
62.8133
69.1036
74.5687
78.9416
81.9957
83.509
82.358
79.0456
75.0582
71.3828
67.9908
64.1129
57.8591
46.471
26.6195
-3.60328
-39.6911
-79.0005
-119.228
-155.328
-190.532
-213.79
-201.826
-62.8712
87.4638
429.353
171.226
27417.6
6.75753
2.07398
-0.348618
-1.84746
-3.08217
-4.34427
-5.75507
-7.5617
-10.0357
-12.9193
-15.2114
-15.6369
-14.3042
-12.8371
-13.6708
-18.4184
-27.1613
-38.0614
-48.1027
-54.5601
-56.1546
-52.9662
-46.0693
-37.0112
-26.8804
-15.1715
-2.06915
11.8019
25.2037
37.2307
47.4819
55.9908
63.0609
69.0523
74.128
78.1735
81.0607
82.281
81.4091
78.7014
75.1485
71.3408
67.0207
61.3925
52.6079
38.3695
15.6735
-15.1452
-47.7327
-78.5754
-108.86
-142.851
-186.241
-242.183
-296.168
-164.947
46.4645
538.832
952.576
61992.2
5.18341
1.53578
-0.0225435
-1.48038
-2.8439
-4.1956
-5.70385
-7.52402
-9.90202
-12.5535
-14.725
-15.4334
-14.7548
-13.9144
-14.852
-18.9801
-26.4978
-35.9944
-45.1265
-51.6336
-54.2127
-52.5809
-47.2436
-39.1309
-28.7885
-16.7174
-2.90881
11.5625
25.3668
37.5681
47.8385
56.2983
63.2885
69.1419
74.0105
77.8417
80.4815
81.5268
80.7427
78.3103
74.8498
70.6922
65.5354
58.707
48.6066
34.0313
14.0013
-10.0384
-36.1349
-64.1708
-95.9689
-130.468
-183.643
-289.67
-435.478
-327.52
-17.3231
485.976
510.835
114775
4.33821
1.01169
0.0578988
-1.36626
-2.7814
-4.16294
-5.70106
-7.53213
-9.85892
-12.4106
-14.5264
-15.3623
-14.972
-14.421
-15.4232
-19.2887
-26.2496
-35.1017
-43.8038
-50.3199
-53.3358
-52.4126
-47.8004
-40.1382
-29.9202
-17.5238
-3.37877
11.3702
25.3609
37.6482
47.9268
56.3565
63.2974
69.0812
73.8631
77.6021
80.104
81.0676
80.3145
78.0034
74.6482
70.4698
65.1125
57.818
47.5088
32.877
13.227
-8.69943
-31.6954
-57.1704
-86.3011
-121.441
-171.625
-249.744
-356.832
-216.568
345.208
1016.33
811.614
218794
3.36179
0.662498
-0.137619
-1.09302
-2.11093
-3.08357
-4.47804
-6.83963
-10.6061
-15.0868
-18.5964
-18.9634
-15.0632
-8.56422
-2.5567
-0.25267
-3.22173
-11.1441
-22.3877
-35.2084
-48.3864
-60.6866
-70.4836
-76.1024
-75.0107
-66.0723
-49.6336
-27.857
-4.63076
16.4278
33.2934
45.994
55.6291
63.4568
70.2318
76.0549
80.1359
81.6251
80.286
76.5716
71.1125
64.4467
56.8015
48.1748
38.1569
24.416
5.55876
-18.2442
-48.3508
-87.0492
-135.965
-192.51
-254.209
-293.406
-207.712
25.9529
636.466
1611.01
5244.97
198987
3.1975
0.640204
-0.299126
-1.31707
-2.30516
-3.18507
-4.47347
-6.79216
-10.7368
-15.5662
-19.4207
-19.6993
-15.1912
-7.8692
-1.17686
1.26617
-2.03663
-10.5748
-22.3911
-35.5107
-48.6526
-60.6087
-69.8506
-74.8599
-73.5383
-64.8631
-48.972
-27.9894
-5.5498
14.9994
31.7268
44.5836
54.4571
62.5819
69.8417
76.3324
81.0013
82.7464
81.2907
77.1926
71.0389
63.3121
54.4819
44.9456
33.8617
19.4432
-0.520961
-24.35
-53.0975
-89.1781
-132.462
-175.202
-206.756
-179.816
-24.8374
203.663
745.402
1619.32
9888.57
203969
1.52296
0.0428788
-0.762047
-1.6533
-2.58459
-3.37506
-4.52568
-6.75362
-10.8243
-15.9535
-20.0986
-20.251
-15.1455
-7.05347
0.175402
2.59297
-1.15536
-10.341
-22.7095
-36.1182
-49.1257
-60.5949
-69.0189
-73.1147
-71.2283
-62.5518
-47.2745
-27.3154
-6.02788
13.6466
29.9643
42.7459
52.7464
61.0039
68.5417
75.2819
80.3911
82.2218
80.4113
75.7477
68.9905
60.6335
51.3466
42.2475
32.2531
19.5269
2.0813
-18.5494
-43.7232
-74.4159
-107.136
-132.036
-134.649
-54.6769
136.912
338.671
664.645
1279.83
11304.4
218136
0.582229
-0.512993
-1.25041
-2.1173
-2.97037
-3.70915
-4.71484
-6.80867
-10.9351
-16.316
-20.6926
-20.6287
-14.9991
-6.38433
1.23544
3.5496
-0.742035
-10.575
-23.434
-37.0477
-49.8574
-60.7119
-68.182
-70.8544
-67.7753
-59.0198
-44.4363
-25.8156
-6.00082
12.5479
28.3051
40.966
51.1244
59.8715
67.8834
75.2449
81.0483
83.4225
81.9372
77.774
71.9517
65.062
57.7781
50.4278
42.2163
31.0983
16.6967
-1.56735
-24.3667
-49.7052
-73.5724
-87.6539
-68.419
38.8942
242.52
393.279
557.868
1059.8
9957.01
226379
-1.42068
-1.12588
-1.81252
-2.59942
-3.42247
-4.14303
-5.03461
-6.98411
-11.0162
-16.4297
-20.9374
-20.5087
-14.5184
-5.73508
1.87912
4.03046
-0.776474
-11.0348
-24.1953
-37.917
-50.3689
-60.1551
-65.8484
-66.7533
-62.8708
-54.1693
-40.6643
-23.7335
-5.64653
11.5929
26.6218
39.0739
49.3621
58.5159
66.9712
74.8258
81.1629
84.0547
82.9972
79.2378
73.8043
67.3506
60.5104
53.5381
45.7209
34.9406
20.0801
1.51604
-20.1985
-43.9055
-65.4193
-67.4407
-33.7863
80.4545
284.515
419.755
548.109
1226.02
12970.8
231811
-0.476063
-1.43473
-2.2562
-3.16242
-3.98485
-4.72574
-5.69287
-7.53599
-11.3199
-16.3668
-20.4798
-19.7614
-13.7868
-5.31308
1.89567
3.64422
-1.3035
-11.6022
-24.7814
-38.4176
-50.4546
-59.3582
-63.7861
-63.2012
-58.3549
-49.1536
-36.3282
-20.9336
-4.56678
11.2631
25.4177
37.5127
47.7668
57.1429
65.9026
74.0891
80.787
84.0484
83.2057
79.4763
74.1216
67.7571
60.9153
53.7258
45.8096
35.4196
21.2201
3.54289
-17.4801
-39.4587
-57.0522
-55.1096
-16.726
94.0023
303.757
435.494
590.993
1364.62
14965.9
237747
-2.38823
-2.19316
-2.63056
-3.39749
-4.3103
-5.15755
-6.25067
-8.15503
-11.7154
-16.3054
-19.9355
-19.0845
-13.3609
-5.27279
1.4365
2.83807
-2.15084
-12.2649
-25.1892
-38.4233
-49.7933
-57.6527
-60.9584
-59.5215
-53.8344
-44.6245
-32.3627
-18.1562
-3.22988
11.2613
24.4693
36.0622
46.1979
55.7254
64.7924
73.2511
80.107
83.4186
82.949
79.5871
74.4129
68.2102
61.4544
54.3544
46.123
35.7766
22.3734
5.29301
-14.8923
-36.8191
-52.6492
-52.8775
-13.8857
98.3876
298.987
407.432
603.02
1389.84
15443.4
237166
-1.57689
-2.02161
-2.6384
-3.58299
-4.68265
-5.81418
-7.11952
-9.05358
-12.358
-16.4616
-19.5151
-18.5741
-13.0222
-5.18818
0.909908
1.95768
-3.01462
-12.823
-25.2745
-37.9402
-48.5789
-55.5531
-58.0835
-56.1442
-50.3281
-40.7758
-28.9196
-15.5833
-1.77064
11.5746
23.833
34.8544
44.8568
54.4608
63.8282
72.6203
79.6742
83.3538
83.3184
80.1584
75.1581
68.6736
61.3783
53.6992
45.5148
35.6586
22.4671
5.77167
-14.416
-37.2922
-56.5833
-61.4705
-30.8064
79.8419
290.169
417.548
697.891
1503.26
14306
232594
-1.68392
-2.06652
-2.68559
-3.68195
-4.90299
-6.18345
-7.66291
-9.66003
-12.7631
-16.4501
-19.075
-18.1453
-12.9172
-5.63862
-0.0296533
0.748769
-4.08285
-13.3871
-25.1232
-36.9947
-46.7555
-52.9207
-54.8145
-52.4783
-46.3143
-37.1925
-25.8779
-13.3144
-0.433215
11.9747
23.4532
34.0004
43.9028
53.5989
63.1889
72.1537
79.1889
82.821
82.7104
79.5639
74.4845
68.0033
60.7727
53.4611
45.7581
36.1433
23.4179
6.54294
-14.1123
-39.2464
-64.8428
-80.7082
-71.4216
41.2475
250.444
400.486
821.821
1839.79
14873.4
223703
-0.199329
-1.69033
-2.56318
-3.71155
-5.13375
-6.58496
-8.23963
-10.2616
-13.1533
-16.4374
-18.7194
-17.802
-13.0222
-6.34913
-1.30716
-0.77566
-5.46615
-14.2138
-25.0597
-35.8557
-44.6011
-49.9234
-51.2538
-48.6719
-42.5806
-33.7862
-23.0183
-11.0948
1.00313
12.61
23.3969
33.5037
43.2521
52.9731
62.6591
71.6588
78.6143
82.2905
82.2944
79.0214
73.3618
66.144
58.0746
50.0717
41.9893