/*--------------------------------*- C++ -*----------------------------------*\
| =========                 |                                                 |
| \\      /  F ield         | OpenFOAM: The Open Source CFD Toolbox           |
|  \\    /   O peration     | Version:  2.1.1                                 |
|   \\  /    A nd           | Web:      www.OpenFOAM.org                      |
|    \\/     M anipulation  |                                                 |
\*---------------------------------------------------------------------------*/
FoamFile
{
    version     2.0;
    format      ascii;
    class       surfaceScalarField;
    location    "0.00145";
    object      phi;
}
// * * * * * * * * * * * * * * * * * * * * * * * * * * * * * * * * * * * * * //

dimensions      [0 3 -1 0 0 0 0];

internalField   nonuniform List<scalar> 
105695
(
-2.07905e-08
-1.1382e-07
-2.39626e-08
1.58573e-07
-5.24367e-08
-5.82286e-09
-4.32027e-09
4.17894e-08
-9.70164e-08
3.07874e-08
1.06538e-08
3.13844e-09
-1.2229e-07
2.59596e-08
3.5106e-08
-3.57922e-08
-1.43641e-07
2.43076e-08
5.04353e-08
-5.33913e-08
-1.57678e-07
2.21577e-08
6.23532e-08
-7.0474e-08
-1.72329e-07
2.39731e-08
7.51584e-08
-8.44805e-08
-1.87186e-07
2.60999e-08
8.68069e-08
-9.80496e-08
-2.05649e-07
3.07525e-08
9.92368e-08
-1.11527e-07
-2.26498e-07
3.38932e-08
1.10007e-07
-1.23051e-07
-2.48081e-07
3.47429e-08
1.14305e-07
-1.27465e-07
-2.6662e-07
3.17069e-08
1.14374e-07
-1.27542e-07
-2.8032e-07
2.68459e-08
1.08811e-07
-1.21958e-07
-2.88556e-07
2.17551e-08
1.03928e-07
-1.17446e-07
-2.94197e-07
2.00727e-08
1.03076e-07
-1.17507e-07
-3.0299e-07
2.38136e-08
1.12766e-07
-1.27787e-07
-3.20595e-07
3.37136e-08
1.3088e-07
-1.4699e-07
-3.50175e-07
4.68437e-08
1.53011e-07
-1.70275e-07
-3.91126e-07
5.9933e-08
1.70016e-07
-1.88997e-07
-4.40391e-07
6.92207e-08
1.75862e-07
-1.95818e-07
-4.93072e-07
7.13147e-08
1.65931e-07
-1.84565e-07
-5.43938e-07
6.51695e-08
1.36051e-07
-1.50354e-07
-5.80178e-07
4.40526e-08
8.18158e-08
-8.96288e-08
-5.89841e-07
9.23862e-09
8.71023e-09
-8.28521e-09
-5.68694e-07
-2.89103e-08
-6.61789e-08
7.39416e-08
-5.20726e-07
-6.35171e-08
-1.28637e-07
1.44187e-07
-4.57406e-07
-8.35748e-08
-1.60737e-07
1.80992e-07
-3.99795e-07
-8.17425e-08
-1.52158e-07
1.76288e-07
-3.639e-07
-6.26741e-08
-1.11624e-07
1.38404e-07
-3.49206e-07
-4.13124e-08
-6.41223e-08
9.07403e-08
-3.46853e-07
-2.57622e-08
-2.59556e-08
4.93653e-08
-3.49084e-07
-1.63967e-08
-2.22452e-10
1.88502e-08
-3.52126e-07
-1.15134e-08
1.69719e-08
-2.41661e-09
-3.54662e-07
-7.93636e-09
2.82431e-08
-1.77714e-08
-3.56693e-07
-3.93193e-09
3.79749e-08
-3.20111e-08
-3.58701e-07
-6.98598e-11
4.83198e-08
-4.62419e-08
-3.61348e-07
3.80572e-09
6.05206e-08
-6.16797e-08
-3.65351e-07
7.70678e-09
7.5271e-08
-7.89752e-08
-3.70954e-07
1.13709e-08
9.23346e-08
-9.81022e-08
-3.78045e-07
1.48528e-08
1.11742e-07
-1.19504e-07
-3.86506e-07
1.88013e-08
1.32023e-07
-1.42363e-07
-3.96711e-07
2.42811e-08
1.50576e-07
-1.64652e-07
-4.095e-07
3.27576e-08
1.64128e-07
-1.84097e-07
-4.26187e-07
4.40423e-08
1.69899e-07
-1.97255e-07
-4.47687e-07
5.7109e-08
1.64794e-07
-2.00403e-07
-4.76781e-07
7.40265e-08
1.49244e-07
-1.94177e-07
-5.14312e-07
9.62351e-08
1.16479e-07
-1.75183e-07
-5.61872e-07
1.26862e-07
5.67861e-08
-1.36088e-07
-6.24754e-07
1.69661e-07
-3.19851e-08
-7.47931e-08
-7.16911e-07
2.31814e-07
-1.55638e-07
1.59811e-08
-8.56966e-07
3.10132e-07
-3.25477e-07
1.554e-07
-1.08232e-06
3.92898e-07
-6.03087e-07
4.35545e-07
-1.45957e-06
4.57638e-07
-1.21934e-06
1.13895e-06
-2.06077e-06
4.12235e-07
-2.5673e-06
2.75626e-06
-2.56212e-06
-1.40173e-07
-3.58609e-06
4.22762e-06
-2.73785e-06
-6.37715e-07
-3.04733e-06
3.86077e-06
-2.48039e-06
-9.31028e-07
-2.82061e-06
3.49418e-06
-1.38911e-06
-1.43345e-06
-2.43011e-06
2.77228e-06
-4.73039e-07
-1.30085e-06
-1.87403e-06
2.2588e-06
-1.01173e-06
-1.56754e-06
2.10623e-06
-1.45131e-07
-9.71342e-08
-3.80189e-09
1.32247e-07
-1.95589e-07
2.36624e-08
3.63475e-08
-1.5375e-08
-2.27894e-07
5.75122e-08
3.62145e-08
-3.06343e-08
-2.51761e-07
5.34201e-08
6.32053e-08
-6.67987e-08
-2.71985e-07
5.09104e-08
6.51595e-08
-7.1538e-08
-2.85247e-07
4.65978e-08
7.93022e-08
-9.04808e-08
-3.00526e-07
5.03578e-08
8.67807e-08
-9.78862e-08
-3.15925e-07
5.43126e-08
9.78427e-08
-1.10657e-07
-3.35388e-07
6.38389e-08
1.08476e-07
-1.22098e-07
-3.57349e-07
6.96889e-08
1.18224e-07
-1.3206e-07
-3.80484e-07
7.11264e-08
1.21696e-07
-1.34944e-07
-4.00302e-07
6.43504e-08
1.20761e-07
-1.33587e-07
-4.14946e-07
5.33457e-08
1.12573e-07
-1.24428e-07
-4.23185e-07
4.26342e-08
1.04697e-07
-1.17337e-07
-4.28376e-07
3.86106e-08
9.98115e-08
-1.13159e-07
-4.3635e-07
4.58942e-08
1.07257e-07
-1.21363e-07
-4.53118e-07
6.53984e-08
1.2321e-07
-1.38127e-07
-4.82015e-07
9.18367e-08
1.4435e-07
-1.60446e-07
-5.22319e-07
1.17996e-07
1.60607e-07
-1.78367e-07
-5.70814e-07
1.36664e-07
1.66335e-07
-1.85285e-07
-6.2309e-07
1.41741e-07
1.55989e-07
-1.74138e-07
-6.73454e-07
1.29807e-07
1.2495e-07
-1.39224e-07
-7.08709e-07
8.79166e-08
6.72814e-08
-7.58905e-08
-7.16064e-07
1.88055e-08
-1.10696e-08
8.85799e-09
-6.92428e-07
-5.71606e-08
-9.24263e-08
9.70406e-08
-6.4162e-07
-1.26619e-07
-1.59421e-07
1.71714e-07
-5.75715e-07
-1.67127e-07
-1.92271e-07
2.09918e-07
-5.17229e-07
-1.63028e-07
-1.803e-07
2.03099e-07
-4.82655e-07
-1.24932e-07
-1.32476e-07
1.6016e-07
-4.69857e-07
-8.34596e-08
-7.9513e-08
1.08862e-07
-4.68473e-07
-5.41428e-08
-3.89393e-08
6.59353e-08
-4.70793e-07
-3.70351e-08
-1.23679e-08
3.53266e-08
-4.7321e-07
-2.75536e-08
4.57349e-09
1.38839e-08
-4.74847e-07
-2.06671e-08
1.66475e-08
-2.27996e-09
-4.76213e-07
-1.32307e-08
2.65877e-08
-1.59234e-08
-4.77818e-07
-5.39059e-09
3.70924e-08
-3.01661e-08
-4.80251e-07
2.62914e-09
4.95284e-08
-4.59187e-08
-4.84142e-07
1.05618e-08
6.41128e-08
-6.30769e-08
-4.89825e-07
1.81871e-08
8.08176e-08
-8.1951e-08
-4.96863e-07
2.52469e-08
9.86982e-08
-1.02054e-07
-5.04327e-07
3.22695e-08
1.15136e-07
-1.2114e-07
-5.10876e-07
4.10409e-08
1.26921e-07
-1.37132e-07
-5.1632e-07
5.33381e-08
1.33508e-07
-1.48644e-07
-5.22145e-07
6.99793e-08
1.35246e-07
-1.55358e-07
-5.30128e-07
8.90636e-08
1.30986e-07
-1.54958e-07
-5.43087e-07
1.14147e-07
1.19624e-07
-1.46786e-07
-5.63792e-07
1.50601e-07
9.13524e-08
-1.25014e-07
-5.94611e-07
2.06437e-07
3.98923e-08
-8.86478e-08
-6.36835e-07
2.89033e-07
-4.06962e-08
-3.64523e-08
-6.96883e-07
3.99595e-07
-1.45875e-07
3.8142e-08
-7.59614e-07
4.99312e-07
-2.63717e-07
1.37267e-07
-7.8278e-07
5.47716e-07
-4.44785e-07
3.13133e-07
-5.82744e-07
3.68984e-07
-7.98391e-07
6.8701e-07
-1.19205e-07
-1.59571e-08
-1.38816e-06
1.35281e-06
2.33938e-07
-6.24662e-07
-2.07457e-06
2.20592e-06
2.24078e-07
-8.69599e-07
-2.74167e-06
2.98342e-06
-7.00658e-09
-1.05612e-06
-2.45005e-06
2.80622e-06
-2.47286e-07
-1.52676e-06
-1.92283e-06
2.25642e-06
-1.85566e-07
-1.70322e-06
-1.69042e-06
2.03107e-06
-1.56603e-06
-1.74228e-06
2.11102e-06
-2.00656e-07
-4.08744e-08
1.42601e-08
1.30136e-07
-2.66011e-07
6.78721e-08
4.48257e-08
-2.36798e-08
-3.01546e-07
8.92302e-08
4.95189e-08
-4.57027e-08
-3.22233e-07
8.01057e-08
6.81767e-08
-7.41754e-08
-3.39198e-07
7.71934e-08
6.9927e-08
-7.92447e-08
-3.5175e-07
7.04468e-08
8.52518e-08
-9.65484e-08
-3.6524e-07
7.57759e-08
9.08307e-08
-1.02759e-07
-3.79521e-07
8.23511e-08
1.0382e-07
-1.17577e-07
-3.98791e-07
9.80786e-08
1.15646e-07
-1.30616e-07
-4.21552e-07
1.07782e-07
1.27331e-07
-1.42664e-07
-4.45981e-07
1.10038e-07
1.31978e-07
-1.4646e-07
-4.66349e-07
9.82305e-08
1.29627e-07
-1.43139e-07
-4.80436e-07
7.99461e-08
1.18172e-07
-1.30685e-07
-4.87428e-07
6.38567e-08
1.05117e-07
-1.19348e-07
-4.91135e-07
5.86548e-08
9.47979e-08
-1.11136e-07
-4.97193e-07
7.0246e-08
9.97432e-08
-1.18037e-07
-5.1186e-07
9.94526e-08
1.17723e-07
-1.3711e-07
-5.39496e-07
1.39896e-07
1.45127e-07
-1.6555e-07
-5.79143e-07
1.79349e-07
1.69037e-07
-1.90743e-07
-6.26714e-07
2.07545e-07
1.80399e-07
-2.0371e-07
-6.79399e-07
2.16874e-07
1.72889e-07
-1.95338e-07
-7.3295e-07
2.01611e-07
1.42491e-07
-1.60744e-07
-7.7209e-07
1.39995e-07
7.81787e-08
-9.11169e-08
-7.79645e-07
3.13309e-08
-1.25759e-08
7.60553e-09
-7.54761e-07
-8.31356e-08
-1.07583e-07
1.08673e-07
-6.99259e-07
-1.8948e-07
-1.89355e-07
1.96714e-07
-6.24163e-07
-2.54011e-07
-2.32088e-07
2.43877e-07
-5.58072e-07
-2.48054e-07
-2.16133e-07
2.35068e-07
-5.22404e-07
-1.88748e-07
-1.54633e-07
1.82781e-07
-5.12364e-07
-1.2633e-07
-9.02789e-08
1.2311e-07
-5.13667e-07
-8.4729e-08
-4.39402e-08
7.58301e-08
-5.17513e-07
-6.18631e-08
-1.53346e-08
4.40085e-08
-5.20522e-07
-4.94091e-08
2.16869e-09
2.26956e-08
-5.22155e-07
-4.01181e-08
1.49748e-08
6.10922e-09
-5.23374e-07
-2.94578e-08
2.55949e-08
-8.14876e-09
-5.24962e-07
-1.73533e-08
3.68075e-08
-2.32566e-08
-5.27352e-07
-4.69511e-09
4.99083e-08
-4.01949e-08
-5.31566e-07
7.44038e-09
6.58618e-08
-5.85264e-08
-5.38152e-07
1.87177e-08
8.47051e-08
-7.86493e-08
-5.46348e-07
2.78726e-08
1.05318e-07
-9.97469e-08
-5.55026e-07
3.57379e-08
1.25162e-07
-1.19953e-07
-5.6219e-07
4.45283e-08
1.41755e-07
-1.38079e-07
-5.66627e-07
5.8162e-08
1.53523e-07
-1.53911e-07
-5.70418e-07
7.87576e-08
1.63039e-07
-1.68025e-07
-5.74654e-07
9.98439e-08
1.70171e-07
-1.76716e-07
-5.82342e-07
1.28657e-07
1.7244e-07
-1.7926e-07
-5.93589e-07
1.7155e-07
1.639e-07
-1.73603e-07
-6.07228e-07
2.43059e-07
1.36937e-07
-1.5992e-07
-6.14065e-07
3.54677e-07
8.03823e-08
-1.39189e-07
-5.91531e-07
4.9536e-07
-2.16885e-08
-9.66107e-08
-5.06908e-07
5.90816e-07
-1.79106e-07
2.98031e-09
-3.08e-07
5.76003e-07
-3.91493e-07
1.64298e-07
3.10333e-09
2.99238e-07
-6.84977e-07
4.43619e-07
3.43006e-07
-1.94855e-07
-9.12679e-07
7.51675e-07
6.39963e-07
-8.16995e-07
-1.09304e-06
9.88411e-07
7.82997e-07
-9.57463e-07
-1.04454e-06
9.89371e-07
6.92124e-07
-9.73241e-07
-8.57214e-07
8.65208e-07
1.53167e-07
-1.18187e-06
-1.3805e-06
1.57457e-06
-2.13208e-07
-1.82475e-06
-1.32187e-06
1.80978e-06
-2.20535e-06
-1.45479e-06
1.8809e-06
-2.36162e-07
4.70019e-08
1.8827e-08
1.29458e-07
-3.12812e-07
1.20459e-07
5.84496e-08
-3.43862e-08
-3.54696e-07
1.26394e-07
6.26437e-08
-5.79236e-08
-3.73967e-07
1.08299e-07
7.36803e-08
-8.26032e-08
-3.87728e-07
1.06439e-07
7.83176e-08
-9.38021e-08
-3.99003e-07
9.87875e-08
8.95935e-08
-1.06659e-07
-4.103e-07
1.05644e-07
9.57152e-08
-1.14286e-07
-4.24666e-07
1.15802e-07
1.10212e-07
-1.29297e-07
-4.45471e-07
1.36594e-07
1.26621e-07
-1.44331e-07
-4.73217e-07
1.50745e-07
1.43147e-07
-1.58364e-07
-5.02315e-07
1.5168e-07
1.49686e-07
-1.6223e-07
-5.25293e-07
1.30413e-07
1.46264e-07
-1.55469e-07
-5.38677e-07
1.02158e-07
1.3006e-07
-1.38888e-07
-5.42909e-07
8.29186e-08
1.08415e-07
-1.23245e-07
-5.42225e-07
8.1817e-08
8.99143e-08
-1.1376e-07
-5.42655e-07
1.03122e-07
9.03502e-08
-1.22796e-07
-5.5247e-07
1.44396e-07
1.12055e-07
-1.47184e-07
-5.75494e-07
1.95296e-07
1.48622e-07
-1.80997e-07
-6.11103e-07
2.43981e-07
1.83787e-07
-2.1281e-07
-6.53235e-07
2.76853e-07
2.04709e-07
-2.31884e-07
-6.99775e-07
2.88951e-07
2.04004e-07
-2.29541e-07
-7.51374e-07
2.72923e-07
1.76429e-07
-1.96143e-07
-7.94526e-07
1.98245e-07
1.02765e-07
-1.17862e-07
-8.04583e-07
5.08728e-08
-1.2155e-08
2.67036e-09
-7.84388e-07
-9.98587e-08
-1.30098e-07
1.26627e-07
-7.30412e-07
-2.36333e-07
-2.38992e-07
2.31869e-07
-6.47163e-07
-3.26069e-07
-2.98837e-07
2.87647e-07
-5.71929e-07
-3.20486e-07
-2.74758e-07
2.71955e-07
-5.36174e-07
-2.43015e-07
-1.84771e-07
2.03283e-07
-5.31498e-07
-1.64291e-07
-9.6999e-08
1.30285e-07
-5.37584e-07
-1.15414e-07
-3.89092e-08
7.56804e-08
-5.44593e-07
-9.02273e-08
-4.97613e-09
4.03497e-08
-5.50004e-07
-7.72129e-08
1.63705e-08
1.68437e-08
-5.53988e-07
-6.62247e-08
3.14638e-08
-1.37312e-09
-5.57518e-07
-5.34461e-08
4.47465e-08
-1.72281e-08
-5.61386e-07
-3.64306e-08
5.77311e-08
-3.47856e-08
-5.65679e-07
-1.81968e-08
7.19683e-08
-5.41743e-08
-5.71205e-07
-5.70488e-10
8.89646e-08
-7.54272e-08
-5.79248e-07
1.46455e-08
1.09528e-07
-9.74128e-08
-5.88218e-07
2.28503e-08
1.32477e-07
-1.18484e-07
-5.96232e-07
2.7462e-08
1.54348e-07
-1.38058e-07
-5.99907e-07
3.08821e-08
1.72447e-07
-1.55126e-07
-5.95628e-07
3.93407e-08
1.85718e-07
-1.71176e-07
-5.85013e-07
6.04121e-08
1.97083e-07
-1.89352e-07
-5.66114e-07
7.56412e-08
2.08492e-07
-2.03188e-07
-5.37613e-07
9.86204e-08
2.11698e-07
-2.10162e-07
-4.96744e-07
1.46941e-07
1.96162e-07
-2.12422e-07
-4.48039e-07
2.34929e-07
1.68412e-07
-2.08987e-07
-3.88115e-07
3.66168e-07
1.2937e-07
-2.00786e-07
-2.858e-07
5.17675e-07
7.9294e-08
-2.03923e-07
-9.92966e-08
6.31753e-07
-1.3856e-08
-2.13585e-07
1.2573e-07
6.43886e-07
-1.91596e-07
-1.01313e-07
3.48587e-07
3.68342e-07
-4.66553e-07
1.74592e-07
5.80713e-07
-2.00039e-07
-7.20642e-07
4.937e-07
7.94615e-07
-8.65098e-07
-9.6441e-07
7.98611e-07
9.95158e-07
-1.14836e-06
-7.41255e-07
7.3161e-07
9.46895e-07
-9.85381e-07
-4.63576e-07
5.2398e-07
3.66103e-07
-8.65938e-07
-7.24955e-07
9.89819e-07
-9.56648e-08
-1.71712e-06
-8.89645e-07
1.24378e-06
-2.74768e-06
-1.33332e-06
1.77999e-06
-2.68815e-07
1.59649e-07
6.06031e-08
9.55651e-08
-3.57832e-07
1.8017e-07
7.42078e-08
-4.49019e-08
-4.02115e-07
1.70118e-07
6.71058e-08
-6.65466e-08
-4.23388e-07
1.39304e-07
8.07602e-08
-9.04927e-08
-4.39358e-07
1.39771e-07
8.71094e-08
-1.04471e-07
-4.52949e-07
1.28904e-07
9.7987e-08
-1.14512e-07
-4.64055e-07
1.35125e-07
1.07093e-07
-1.25468e-07
-4.78708e-07
1.49371e-07
1.25127e-07
-1.44042e-07
-5.00161e-07
1.74887e-07
1.47543e-07
-1.64384e-07
-5.2972e-07
1.91015e-07
1.73145e-07
-1.83855e-07
-5.60745e-07
1.84369e-07
1.85788e-07
-1.87452e-07
-5.84059e-07
1.46972e-07
1.81729e-07
-1.74974e-07
-5.93208e-07
1.06772e-07
1.56411e-07
-1.51877e-07
-5.87509e-07
8.75443e-08
1.20064e-07
-1.30389e-07
-5.73072e-07
9.85378e-08
8.86969e-08
-1.19855e-07
-5.5704e-07
1.36738e-07
8.28919e-08
-1.32539e-07
-5.48144e-07
1.92433e-07
1.10337e-07
-1.6727e-07
-5.48556e-07
2.47815e-07
1.59948e-07
-2.12056e-07
-5.53262e-07
2.8873e-07
2.13548e-07
-2.53591e-07
-5.54798e-07
3.08515e-07
2.47707e-07
-2.77833e-07
-5.50156e-07
3.08488e-07
2.5795e-07
-2.82129e-07
-5.51333e-07
2.85835e-07
2.39911e-07
-2.51645e-07
-5.65699e-07
2.11626e-07
1.63713e-07
-1.62729e-07
-5.80532e-07
6.07358e-08
1.8344e-08
-1.33742e-08
-5.99008e-07
-1.00073e-07
-1.3164e-07
1.5033e-07
-5.9547e-07
-2.24278e-07
-2.93016e-07
2.77423e-07
-5.38879e-07
-3.23601e-07
-4.03142e-07
3.44083e-07
-4.69526e-07
-3.33836e-07
-3.71041e-07
3.15039e-07
-4.41245e-07
-2.65355e-07
-2.28285e-07
2.22344e-07
-4.46008e-07
-1.92651e-07
-1.0083e-07
1.33952e-07
-4.58104e-07
-1.51328e-07
-2.67539e-08
7.47639e-08
-4.68737e-07
-1.31821e-07
1.34676e-08
3.87588e-08
-4.78284e-07
-1.20852e-07
3.76246e-08
1.55607e-08
-4.89232e-07
-1.0842e-07
5.50654e-08
-1.92216e-09
-5.02305e-07
-9.39004e-08
7.15665e-08
-1.80391e-08
-5.16966e-07
-7.29989e-08
9.01024e-08
-3.88724e-08
-5.31706e-07
-5.10712e-08
1.11079e-07
-6.34651e-08
-5.47357e-07
-3.04008e-08
1.35443e-07
-8.99614e-08
-5.66462e-07
-1.45348e-08
1.65427e-07
-1.17143e-07
-5.87015e-07
-1.29178e-08
2.01486e-07
-1.45164e-07
-6.08922e-07
-1.93128e-08
2.39578e-07
-1.70896e-07
-6.29129e-07
-2.88082e-08
2.77186e-07
-1.97288e-07
-6.39566e-07
-3.44867e-08
3.13993e-07
-2.29729e-07
-6.40833e-07
-1.75828e-08
3.50882e-07
-2.7162e-07
-6.30292e-07
-9.09976e-09
3.82442e-07
-3.08241e-07
-6.04756e-07
6.37423e-10
4.06793e-07
-3.34346e-07
-5.60496e-07
2.51775e-08
4.29391e-07
-3.51888e-07
-4.91945e-07
8.59784e-08
4.50267e-07
-3.69867e-07
-3.82972e-07
1.86817e-07
4.68746e-07
-3.98368e-07
-2.30532e-07
3.18276e-07
4.87356e-07
-4.40398e-07
-3.75352e-08
4.27673e-07
4.91725e-07
-4.80642e-07
2.29002e-07
4.45394e-07
3.99767e-07
-4.67812e-07
5.09462e-07
2.27659e-07
8.2983e-08
-2.22761e-07
7.02698e-07
-2.60372e-07
-4.00578e-07
2.67675e-07
7.65037e-07
-8.09708e-07
-9.02449e-07
7.84719e-07
1.04044e-06
-1.44672e-06
-9.19449e-07
9.424e-07
1.10824e-06
-1.23e-06
-4.54814e-07
6.31644e-07
7.93586e-07
-8.20179e-07
-5.09359e-07
7.78251e-07
2.99279e-07
-1.53482e-06
-6.22383e-07
9.34395e-07
-2.90789e-06
-1.28609e-06
1.74558e-06
-3.32205e-07
3.23818e-07
1.09326e-07
5.87098e-08
-4.23014e-07
2.32782e-07
9.99964e-08
-6.17989e-08
-4.70328e-07
2.14402e-07
8.92343e-08
-8.62045e-08
-4.87964e-07
1.66854e-07
9.58747e-08
-1.05788e-07
-5.01316e-07
1.68679e-07
1.09389e-07
-1.24946e-07
-5.11746e-07
1.529e-07
1.19351e-07
-1.32917e-07
-5.17119e-07
1.56899e-07
1.29678e-07
-1.46079e-07
-5.24244e-07
1.72185e-07
1.51657e-07
-1.67345e-07
-5.38665e-07
2.00488e-07
1.81088e-07
-1.92269e-07
-5.6375e-07
2.14244e-07
2.17802e-07
-2.15946e-07
-5.88453e-07
1.90003e-07
2.34514e-07
-2.15445e-07
-5.9749e-07
1.24086e-07
2.27028e-07
-1.95105e-07
-5.83031e-07
6.77564e-08
1.86309e-07
-1.61753e-07
-5.49157e-07
5.89749e-08
1.26571e-07
-1.31875e-07
-5.04656e-07
1.01063e-07
7.28092e-08
-1.19835e-07
-4.55201e-07
1.71049e-07
5.20801e-08
-1.35846e-07
-4.02265e-07
2.36205e-07
8.3253e-08
-1.79961e-07
-3.45813e-07
2.74773e-07
1.52689e-07
-2.36099e-07
-2.83444e-07
2.81995e-07
2.31064e-07
-2.86697e-07
-2.05625e-07
2.60748e-07
2.90939e-07
-3.20992e-07
-1.09351e-07
2.24282e-07
3.23045e-07
-3.35113e-07
-1.09556e-08
1.81343e-07
3.23468e-07
-3.17372e-07
7.21629e-08
1.07068e-07
2.53679e-07
-2.32239e-07
9.60642e-08
-1.37502e-09
9.8787e-08
-6.05775e-08
5.58276e-08
-1.29861e-07
-6.6972e-08
1.36997e-07
-3.2262e-08
-2.09221e-07
-2.33e-07
3.06032e-07
-8.51914e-08
-2.06684e-07
-4.6906e-07
4.05073e-07
-7.09784e-08
-1.93339e-07
-5.27544e-07
3.72834e-07
-6.26569e-08
-1.93657e-07
-3.34337e-07
2.54317e-07
-7.86055e-08
-1.81065e-07
-1.44266e-07
1.48629e-07
-9.63532e-08
-1.75568e-07
-4.36722e-08
8.56604e-08
-1.04587e-07
-1.7871e-07
1.93821e-09
5.31852e-08
-1.08548e-07
-1.75223e-07
2.34174e-08
3.49147e-08
-1.15416e-07
-1.57153e-07
3.54069e-08
2.01944e-08
-1.29413e-07
-1.28248e-07
4.55018e-08
2.84274e-09
-1.49984e-07
-9.65611e-08
6.0982e-08
-1.68483e-08
-1.72764e-07
-6.75613e-08
8.01425e-08
-4.0873e-08
-1.97948e-07
-3.90841e-08
1.04615e-07
-7.07472e-08
-2.31416e-07
-1.7616e-08
1.39169e-07
-1.0262e-07
-2.75764e-07
-1.79955e-08
1.79667e-07
-1.30241e-07
-3.29277e-07
-3.31151e-08
2.206e-07
-1.53285e-07
-3.88882e-07
-6.14847e-08
2.60624e-07
-1.68342e-07
-4.43353e-07
-9.4151e-08
3.03996e-07
-1.89861e-07
-4.76477e-07
-1.18867e-07
3.70453e-07
-2.36044e-07
-4.89381e-07
-1.52809e-07
4.4206e-07
-2.85446e-07
-4.94221e-07
-1.82755e-07
5.20861e-07
-3.32627e-07
-4.91088e-07
-2.06605e-07
6.13498e-07
-3.84849e-07
-4.6904e-07
-1.95161e-07
7.06403e-07
-4.47311e-07
-4.1362e-07
-1.48272e-07
8.06185e-07
-5.26515e-07
-2.99085e-07
-6.15497e-08
8.8602e-07
-6.20729e-07
-1.25369e-07
-6.46054e-09
9.38944e-07
-6.78526e-07
1.25242e-07
-1.14168e-08
8.99556e-07
-6.93356e-07
4.68792e-07
-2.24603e-07
6.14187e-07
-5.05475e-07
5.79174e-07
-4.37993e-07
7.84206e-08
-1.11823e-08
4.17538e-07
-7.2661e-07
-4.11722e-07
4.9026e-07
2.82681e-07
-1.32139e-06
-9.62414e-07
9.71939e-07
4.87485e-07
-1.41369e-06
-1.05746e-06
1.03634e-06
5.89908e-07
-9.53954e-07
-6.68892e-07
7.00245e-07
3.70412e-07
-1.49272e-06
-6.43074e-07
8.20465e-07
-2.90836e-06
-1.31399e-06
1.68487e-06
-4.11982e-07
5.1175e-07
3.12207e-07
-8.81559e-08
-4.99672e-07
2.61685e-07
1.39371e-07
-8.05834e-08
-5.46372e-07
2.59318e-07
1.04352e-07
-1.02568e-07
-5.53132e-07
1.86219e-07
1.00622e-07
-1.13228e-07
-5.5547e-07
1.93981e-07
1.14373e-07
-1.37337e-07
-5.47441e-07
1.62908e-07
1.27624e-07
-1.4566e-07
-5.26668e-07
1.6133e-07
1.3752e-07
-1.62725e-07
-5.02188e-07
1.71001e-07
1.64087e-07
-1.87383e-07
-4.81619e-07
1.96826e-07
2.02491e-07
-2.19398e-07
-4.69269e-07
1.97718e-07
2.51401e-07
-2.47226e-07
-4.51272e-07
1.36535e-07
2.74799e-07
-2.39328e-07
-4.12322e-07
2.18117e-08
2.65246e-07
-2.01922e-07
-3.50651e-07
-5.43581e-08
2.11041e-07
-1.50599e-07
-2.72003e-07
-3.48952e-08
1.22179e-07
-1.06956e-07
-1.86552e-07
7.14766e-08
2.96291e-08
-8.54937e-08
-9.73355e-08
2.06657e-07
-2.11671e-08
-1.03657e-07
1.25581e-09
2.94672e-07
-8.54842e-10
-1.56204e-07
1.18439e-07
3.18543e-07
6.79965e-08
-2.2895e-07
2.48481e-07
2.51857e-07
1.89028e-07
-2.88932e-07
4.03348e-07
1.3608e-07
2.97763e-07
-3.27961e-07
5.84122e-07
2.48784e-08
3.69603e-07
-3.50974e-07
7.71648e-07
-5.92182e-08
4.07376e-07
-3.5434e-07
9.46753e-07
-1.20598e-07
3.44095e-07
-2.91535e-07
1.05621e-06
-1.41352e-07
1.64176e-07
-1.33659e-07
1.01576e-06
-1.41929e-07
-1.26681e-08
6.51931e-08
8.38386e-07
-1.32286e-07
-1.46046e-07
2.46481e-07
6.62382e-07
-7.71587e-08
-3.1727e-07
3.6375e-07
6.01273e-07
7.61216e-09
-5.0494e-07
3.65097e-07
5.72416e-07
1.56527e-09
-4.25875e-07
2.59509e-07
5.11919e-07
-5.97879e-08
-2.03119e-07
1.42339e-07
4.52726e-07
-1.261e-07
-6.33148e-08
7.30393e-08
4.13088e-07
-1.83246e-07
7.16001e-09
3.70143e-08
3.95442e-07
-2.20319e-07
4.59309e-08
1.68103e-08
3.94435e-07
-2.22551e-07
6.70959e-08
-6.89969e-10
4.01159e-07
-1.96728e-07
7.55667e-08
-1.38109e-08
4.11309e-07
-1.52736e-07
7.38638e-08
-2.784e-08
4.21439e-07
-1.00671e-07
6.69618e-08
-4.3982e-08
4.26716e-07
-4.4103e-08
6.69686e-08
-6.72268e-08
4.25338e-07
4.89957e-10
7.75974e-08
-9.43254e-08
4.15028e-07
1.14723e-08
9.57782e-08
-1.14936e-07
3.86492e-07
6.5844e-09
1.17101e-07
-1.28265e-07
3.35431e-07
-1.62458e-08
1.50859e-07
-1.45036e-07
2.62245e-07
-6.03725e-08
1.92692e-07
-1.53284e-07
2.0202e-07
-1.31064e-07
2.51025e-07
-1.78602e-07
1.92252e-07
-2.37078e-07
3.10836e-07
-2.16801e-07
2.30297e-07
-3.3777e-07
3.79955e-07
-2.62985e-07
2.75518e-07
-4.34609e-07
4.89512e-07
-3.06729e-07
3.22533e-07
-5.02433e-07
6.06926e-07
-3.46669e-07
3.71392e-07
-5.28543e-07
7.44967e-07
-4.13555e-07
4.43338e-07
-5.32676e-07
9.13075e-07
-5.13895e-07
5.67426e-07
-5.89123e-07
1.07143e-06
-6.12859e-07
7.19602e-07
-6.2009e-07
1.10651e-06
-6.50012e-07
7.71781e-07
-6.57702e-07
8.80107e-07
-4.99187e-07
6.51078e-07
-6.15929e-07
4.58514e-07
-1.59875e-07
4.16341e-07
-6.27999e-07
-6.96565e-08
2.05782e-07
2.24136e-08
-8.689e-07
-8.17927e-07
7.59368e-07
-2.03526e-07
-1.06721e-06
-1.1371e-06
1.01655e-06
2.55602e-07
-1.24937e-06
-8.23337e-07
6.59626e-07
5.38112e-07
-1.75378e-06
-7.89894e-07
7.68452e-07
-2.73234e-06
-1.42301e-06
1.7851e-06
-5.89012e-07
7.98633e-07
4.05539e-07
-1.03411e-07
-5.79434e-07
2.18756e-07
1.31694e-07
-9.83438e-08
-5.69529e-07
2.58501e-07
1.17428e-07
-1.26516e-07
-5.13138e-07
1.38908e-07
1.27101e-07
-1.36182e-07
-4.50627e-07
1.70289e-07
1.19294e-07
-1.58114e-07
-3.70736e-07
1.29621e-07
1.15365e-07
-1.61969e-07
-2.65982e-07
1.24428e-07
1.03386e-07
-1.71238e-07
-1.45201e-07
1.29204e-07
1.12252e-07
-1.91235e-07
-2.10971e-08
1.48363e-07
1.45861e-07
-2.21502e-07
1.07332e-07
1.33345e-07
1.82419e-07
-2.46475e-07
2.31487e-07
4.24926e-08
2.0052e-07
-2.30632e-07
3.57938e-07
-1.08632e-07
1.79839e-07
-1.75847e-07
5.01038e-07
-2.13389e-07
1.31144e-07
-1.15213e-07
6.57272e-07
-1.93926e-07
8.29705e-08
-8.01739e-08
7.96761e-07
-2.00783e-08
1.97734e-08
-6.77078e-08
9.02077e-07
2.07661e-07
-3.09829e-08
-7.53366e-08
1.05053e-06
3.22323e-07
-6.18336e-08
-1.14271e-07
1.28997e-06
2.82381e-07
-3.96111e-08
-1.6367e-07
1.58551e-06
1.33128e-07
2.54322e-08
-2.02237e-07
1.85291e-06
-3.71341e-08
1.24091e-07
-2.18276e-07
2.0447e-06
-1.59733e-07
2.19262e-07
-2.26446e-07
2.1489e-06
-2.22977e-07
3.03803e-07
-2.4424e-07
2.21306e-06
-2.74292e-07
3.19952e-07
-2.30413e-07
2.2616e-06
-2.6397e-07
2.18616e-07
-1.4454e-07
2.21432e-06
-1.52558e-07
6.87323e-08
-1.08233e-08
2.0128e-06
-1.23034e-08
-6.83938e-08
1.49928e-07
1.7799e-06
1.03738e-07
-1.95082e-07
2.47082e-07
1.68587e-06
1.35497e-07
-2.84067e-07
2.50213e-07
1.6761e-06
1.01917e-07
-2.82359e-07
1.91782e-07
1.62864e-06
4.78322e-08
-1.79869e-07
1.19706e-07
1.52971e-06
-1.65714e-09
-1.0043e-07
7.49219e-08
1.40666e-06
-5.58857e-08
-5.1725e-08
4.74163e-08
1.30439e-06
-1.40787e-07
-5.33117e-09
2.8069e-08
1.23905e-06
-1.96408e-07
3.21183e-08
7.07134e-09
1.20839e-06
-2.20078e-07
6.87967e-08
-1.47817e-08
1.20695e-06
-2.12691e-07
9.56812e-08
-3.42862e-08
1.21988e-06
-1.58329e-07
9.8818e-08
-5.40866e-08
1.23504e-06
-7.09844e-08
9.08629e-08
-7.91437e-08
1.25688e-06
4.81885e-10
8.37962e-08
-1.05631e-07
1.2855e-06
2.90898e-08
8.10453e-08
-1.27281e-07
1.31776e-06
3.63478e-08
7.87614e-08
-1.40787e-07
1.348e-06
2.91611e-08
7.6105e-08
-1.51747e-07
1.36451e-06
-6.42102e-10
8.26938e-08
-1.58942e-07
1.35023e-06
-4.4108e-08
9.84926e-08
-1.7116e-07
1.29162e-06
-1.09487e-07
1.354e-07
-2.04389e-07
1.21142e-06
-1.8884e-07
1.93668e-07
-2.62393e-07
1.13157e-06
-2.96936e-07
2.72804e-07
-3.30631e-07
1.08099e-06
-4.29293e-07
3.83238e-07
-4.05799e-07
1.08884e-06
-5.6549e-07
5.19954e-07
-4.9085e-07
1.18472e-06
-7.27252e-07
6.84089e-07
-5.85395e-07
1.32589e-06
-9.42044e-07
8.82705e-07
-6.70957e-07
1.45994e-06
-1.11976e-06
1.09328e-06
-7.27653e-07
1.59366e-06
-1.19994e-06
1.10373e-06
-6.9521e-07
1.72685e-06
-1.15936e-06
9.26108e-07
-5.15867e-07
1.60012e-06
-8.31048e-07
4.96414e-07
-1.66628e-07
9.14168e-07
-4.91879e-07
-2.57783e-07
5.6671e-07
4.33718e-07
-8.67373e-07
-6.90842e-07
9.71458e-07
6.71583e-07
-1.59373e-06
-8.65451e-07
9.71949e-07
7.38888e-07
-1.91261e-06
-1.09464e-06
1.18616e-06
-2.36359e-06
-1.57223e-06
1.94236e-06
-4.87642e-07
5.30499e-07
1.76449e-06
-1.00871e-06
-4.68344e-07
1.90936e-07
2.35064e-07
-2.26541e-07
-3.16063e-07
1.60955e-07
8.01985e-08
-1.34934e-07
-1.37104e-07
1.9023e-08
8.51501e-08
-1.44223e-07
6.77937e-08
2.47458e-08
5.22391e-08
-1.11594e-07
2.6574e-07
5.47497e-09
2.30468e-08
-9.68474e-08
4.55642e-07
1.57595e-08
5.3166e-09
-8.65507e-08
6.48185e-07
3.00002e-08
-1.37726e-09
-9.19626e-08
8.61006e-07
4.258e-08
-1.30305e-09
-1.05735e-07
1.06813e-06
4.73057e-08
-6.42016e-10
-1.20438e-07
1.19727e-06
3.68305e-08
-8.10691e-09
-1.15372e-07
1.20559e-06
-5.53779e-09
-1.49599e-08
-9.64556e-08
1.11853e-06
-5.08908e-08
-6.08077e-09
-6.93601e-08
1.07683e-06
-1.1047e-07
2.37659e-08
-6.55248e-08
1.18626e-06
-1.09275e-07
5.98654e-08
-8.00981e-08
1.44425e-06
-4.84177e-08
1.11576e-07
-1.13482e-07
1.79277e-06
-2.07586e-08
1.49009e-07
-1.54454e-07
2.16065e-06
-4.89419e-08
1.30478e-07
-1.67036e-07
2.44096e-06
-7.21311e-08
7.77373e-08
-1.52787e-07
2.57836e-06
-7.62508e-08
2.47482e-08
-1.23033e-07
2.61678e-06
-9.06223e-08
-4.14949e-09
-1.03379e-07
2.60075e-06
-9.92952e-08
-1.66999e-08
-9.09543e-08
2.52711e-06
-1.08444e-07
-2.50085e-08
-6.71929e-08
2.42792e-06
-1.04371e-07
-4.33124e-08
-1.70991e-08
2.36892e-06
-7.23648e-08
-7.22781e-08
5.10805e-08
2.35376e-06
-2.10796e-08
-8.06146e-08
1.04553e-07
2.38852e-06
1.58754e-08
-7.5728e-08
1.28834e-07
2.45866e-06
1.02684e-08
-5.99395e-08
1.15027e-07
2.53123e-06
-8.37892e-09
-4.60036e-08
8.37223e-08
2.55763e-06
1.61867e-09
-3.50168e-08
5.48332e-08
2.52957e-06
1.70998e-08
-2.45164e-08
3.38252e-08
2.42675e-06
3.58066e-08
-1.19006e-08
2.30283e-08
2.23724e-06
3.95842e-08
1.50642e-09
7.62555e-09
2.04888e-06
-6.16217e-09
1.5071e-08
-1.69505e-08
1.94504e-06
-9.89655e-08
1.72486e-08
-3.45208e-08
1.91885e-06
-1.58261e-07
8.27157e-09
-3.65133e-08
1.92193e-06
-1.23755e-07
5.43008e-10
-3.81946e-08
1.94567e-06
-5.81958e-08
1.02009e-08
-4.6735e-08
1.9851e-06
1.26956e-09
2.89366e-08
-6.91562e-08
2.04384e-06
3.13014e-08
2.9715e-08
-9.06601e-08
2.12463e-06
3.48504e-08
2.16077e-08
-1.00904e-07
2.21818e-06
2.94338e-08
1.48157e-08
-1.08642e-07
2.30513e-06
1.51283e-08
9.51308e-09
-1.12226e-07
2.36761e-06
1.24002e-09
5.66418e-09
-1.13498e-07
2.39279e-06
-9.72927e-09
5.41007e-09
-1.30346e-07
2.38089e-06
-2.31957e-08
7.57411e-09
-1.61315e-07
2.34175e-06
-5.77106e-08
1.02844e-08
-2.1037e-07
2.29788e-06
-1.16414e-07
1.3292e-08
-2.82297e-07
2.25973e-06
-1.84309e-07
1.85729e-08
-3.61612e-07
2.22825e-06
-2.64312e-07
2.95168e-08
-4.60975e-07
2.21553e-06
-3.86927e-07
4.05397e-08
-5.8294e-07
2.31118e-06
-5.80404e-07
7.35377e-08
-7.08543e-07
2.55269e-06
-8.12526e-07
1.00114e-07
-7.29029e-07
2.77658e-06
-8.63142e-07
4.37579e-08
-5.63871e-07
2.79069e-06
-6.00808e-07
-1.34496e-08
-2.30901e-07
2.64249e-06
-3.84188e-07
-2.63835e-07
3.04344e-07
2.16535e-06
-4.09308e-07
-8.44449e-07
8.63523e-07
1.47081e-06
-4.65825e-07
-1.81363e-06
1.38026e-06
8.29533e-07
-6.28669e-07
-2.14374e-06
1.50108e-06
-7.93275e-07
-2.73792e-06
1.99714e-06
-2.26242e-07
2.29437e-07
1.72338e-06
-1.19608e-06
-2.06962e-07
1.99385e-07
2.27489e-07
-2.55218e-07
-5.90194e-08
8.24857e-08
7.00494e-08
-1.39523e-07
8.41658e-08
-2.67148e-08
6.25352e-08
-1.59982e-07
2.64628e-07
-5.54393e-08
4.2432e-08
-1.4271e-07
4.51046e-07
-8.42379e-08
2.52219e-08
-1.21927e-07
6.49998e-07
-8.30715e-08
3.22521e-09
-1.03346e-07
8.40262e-07
-5.71207e-08
-1.17568e-08
-9.13861e-08
1.01015e-06
-1.83639e-08
-1.65061e-08
-9.24361e-08
1.16268e-06
1.24576e-08
-1.53113e-08
-1.02372e-07
1.27609e-06
3.76971e-08
-1.29933e-08
-1.01282e-07
1.31903e-06
4.00232e-08
-1.93324e-08
-6.91729e-08
1.27742e-06
3.69053e-08
-2.32439e-08
-2.29381e-08
1.19035e-06
7.61059e-09
-5.1972e-09
-2.5811e-08
1.16201e-06
-5.4611e-08
3.28856e-08
-5.92161e-08
1.25904e-06
-1.11119e-07
6.80553e-08
-1.02381e-07
1.47141e-06
-1.74043e-07
7.58638e-08
-1.34951e-07
1.67972e-06
-1.86853e-07
7.80328e-08
-1.48427e-07
1.80951e-06
-1.39759e-07
7.79806e-08
-1.40146e-07
1.86741e-06
-7.20871e-08
4.73567e-08
-1.09425e-07
1.88424e-06
-3.81361e-08
-2.44489e-09
-6.68686e-08
1.87872e-06
-2.79418e-08
-3.31602e-08
-3.26746e-08
1.84887e-06
-3.12691e-08
-4.90314e-08
1.70788e-09
1.7923e-06
-3.2283e-08
-5.74836e-08
4.19667e-08
1.74395e-06
-4.16025e-08
-6.1529e-08
7.91167e-08
1.7341e-06
-5.86531e-08
-5.84802e-08
1.05902e-07
1.75722e-06
-7.08844e-08
-4.67261e-08
1.10374e-07
1.80947e-06
-1.06181e-07
-3.3663e-08
9.78621e-08
1.85557e-06
-1.06978e-07
-2.47877e-08
7.72868e-08
1.87348e-06
-5.47874e-08
-1.97811e-08
5.82731e-08
1.87329e-06
-9.4691e-09
-1.68882e-08
4.36416e-08
1.86516e-06
2.23355e-08
-1.32015e-08
3.48107e-08
1.84791e-06
3.69291e-08
-7.87419e-09
2.7775e-08
1.79565e-06
2.86393e-08
-1.64514e-09
1.91095e-08
1.69395e-06
-5.43535e-09
7.90995e-09
2.54839e-10
1.5955e-06
-5.64896e-08
1.40021e-08
-1.73207e-08
1.56101e-06
-7.45259e-08
1.35776e-08
-2.83169e-08
1.57883e-06
-5.68283e-08
1.25296e-08
-3.17164e-08
1.63083e-06
-2.9416e-08
1.51709e-08
-3.64887e-08
1.69537e-06
-6.90797e-09
1.43405e-08
-4.06718e-08
1.76096e-06
1.29235e-09
7.28603e-09
-3.93216e-08
1.82109e-06
3.38271e-09
1.58387e-09
-3.56572e-08
1.86736e-06
2.73401e-09
-7.93876e-10
-3.30785e-08
1.88973e-06
3.72904e-09
1.19283e-10
-2.49842e-08
1.89223e-06
7.26423e-09
9.72906e-10
-2.04615e-08
1.8847e-06
1.26869e-08
1.05317e-09
-2.94119e-08
1.86704e-06
9.54139e-09
2.06191e-09
-5.16544e-08
1.84657e-06
-9.09667e-09
3.41114e-09
-9.02518e-08