/*--------------------------------*- C++ -*----------------------------------*\
| =========                 |                                                 |
| \\      /  F ield         | OpenFOAM: The Open Source CFD Toolbox           |
|  \\    /   O peration     | Version:  2.1.1                                 |
|   \\  /    A nd           | Web:      www.OpenFOAM.org                      |
|    \\/     M anipulation  |                                                 |
\*---------------------------------------------------------------------------*/
FoamFile
{
    version     2.0;
    format      ascii;
    class       volSymmTensorField;
    location    "0.00145";
    object      R;
}
// * * * * * * * * * * * * * * * * * * * * * * * * * * * * * * * * * * * * * //

dimensions      [0 2 -2 0 0 0 0];

internalField   nonuniform List<symmTensor> 
36520
(
(0.166849 0.00449216 0.0550391 0.0582431 0.0136414 0.0955396)
(0.28322 -0.0352532 0.0645301 0.121241 -0.00704823 0.113084)
(0.542081 -0.0567504 0.145073 0.239916 -0.0203247 0.217345)
(0.663627 -0.0713528 0.197307 0.308676 -0.0352387 0.28159)
(0.779652 -0.0768066 0.238234 0.361498 -0.0423468 0.334258)
(0.865324 -0.0826879 0.268995 0.403692 -0.0496721 0.375407)
(0.947362 -0.0862911 0.296613 0.440072 -0.0543342 0.410969)
(1.02127 -0.0880224 0.321911 0.472273 -0.0578327 0.443076)
(1.09124 -0.0884837 0.34609 0.501027 -0.0598407 0.471973)
(1.15371 -0.0874524 0.36874 0.526222 -0.0605699 0.498447)
(1.20799 -0.0856605 0.388605 0.547119 -0.0599056 0.521188)
(1.25568 -0.0842918 0.405548 0.56501 -0.0593102 0.540832)
(1.29867 -0.0821916 0.419341 0.579699 -0.0582601 0.556567)
(1.34168 -0.0795812 0.432014 0.593082 -0.0577075 0.570293)
(1.38432 -0.0747529 0.443856 0.604606 -0.0564774 0.581524)
(1.42918 -0.0671165 0.457189 0.615038 -0.0543577 0.592322)
(1.47149 -0.0550354 0.471797 0.623143 -0.0495616 0.601855)
(1.50622 -0.0390226 0.48701 0.627869 -0.0415308 0.609836)
(1.5246 -0.0202597 0.499989 0.62721 -0.0300057 0.614012)
(1.52045 -0.00117332 0.508032 0.619337 -0.0158761 0.612635)
(1.48928 0.0158773 0.508617 0.602853 -0.000441592 0.604054)
(1.42918 0.0282889 0.499654 0.577277 0.0145095 0.586805)
(1.34089 0.03362 0.479515 0.542361 0.0267871 0.55998)
(1.23099 0.0305883 0.448008 0.499118 0.0340058 0.522785)
(1.11128 0.0202518 0.407904 0.45079 0.0348305 0.477418)
(1.00563 0.00565991 0.368166 0.405926 0.0299049 0.431954)
(0.921007 -0.00990061 0.332165 0.367364 0.0207321 0.389682)
(0.856666 -0.0226753 0.301737 0.336058 0.010078 0.352955)
(0.805454 -0.0300662 0.277253 0.311087 0.0011281 0.322594)
(0.760437 -0.0327742 0.257655 0.29049 -0.00465256 0.297741)
(0.716505 -0.0332557 0.24069 0.27187 -0.00797161 0.275971)
(0.671252 -0.0330493 0.224556 0.253717 -0.00985226 0.255464)
(0.622769 -0.0327225 0.20786 0.234932 -0.01097 0.234809)
(0.573614 -0.0325631 0.19106 0.21616 -0.0117585 0.21448)
(0.527479 -0.0326777 0.175278 0.198633 -0.0124582 0.195644)
(0.485919 -0.0330103 0.160999 0.182913 -0.0131634 0.178842)
(0.450255 -0.0335652 0.148672 0.169576 -0.0139789 0.164536)
(0.422062 -0.0342989 0.138848 0.159255 -0.014936 0.153287)
(0.403027 -0.0352722 0.131987 0.152692 -0.0160992 0.145608)
(0.395744 -0.03646 0.128749 0.150941 -0.0175434 0.142182)
(0.403036 -0.0374697 0.129784 0.155199 -0.0192237 0.143628)
(0.428698 -0.0376443 0.135816 0.16725 -0.0210423 0.150824)
(0.477298 -0.0357723 0.147708 0.189422 -0.0227266 0.164886)
(0.552266 -0.0298247 0.166139 0.22366 -0.0236196 0.186636)
(0.656471 -0.0174198 0.191452 0.271732 -0.0225119 0.216598)
(0.792396 0.00436208 0.223723 0.335596 -0.0178183 0.254909)
(0.956861 0.0394438 0.261871 0.417072 -0.00759483 0.300465)
(1.13504 0.0901325 0.301538 0.51451 0.0102421 0.349421)
(1.29946 0.157673 0.335194 0.619321 0.0388451 0.396035)
(1.43189 0.243763 0.3606 0.726113 0.0838151 0.440641)
(1.59935 0.363588 0.404499 0.884243 0.160669 0.525688)
(1.96646 0.562627 0.494579 1.23231 0.313082 0.734681)
(2.59173 0.811454 0.59105 1.82473 0.592231 1.13428)
(3.35387 0.888612 0.604074 2.38035 0.921112 1.66973)
(3.75714 0.687238 0.494087 2.42708 0.995316 2.0259)
(3.72651 0.505806 0.2393 2.20477 0.794115 2.14209)
(3.18912 0.35813 0.178489 1.87042 0.64202 2.0199)
(2.27818 0.21665 -0.041557 1.33192 0.349973 1.63832)
(0.595842 0.0896631 0.0743809 0.422989 0.104176 0.630077)
(0.498433 -0.0613944 -0.123661 0.232951 0.016081 0.300039)
(0.139663 -0.0118496 0.0274821 0.0462902 -0.00211642 0.0465167)
(0.194163 -0.0263658 0.0437755 0.080207 -0.00714918 0.0697203)
(0.234815 -0.023957 0.0623995 0.102851 -0.00978605 0.0931771)
(0.234154 -0.0216754 0.0671182 0.106175 -0.0100579 0.0978505)
(0.24014 -0.0194147 0.0697152 0.109361 -0.00975682 0.101658)
(0.243118 -0.0182892 0.0714154 0.111496 -0.00987623 0.104369)
(0.251621 -0.0171882 0.0741005 0.114988 -0.00975539 0.108029)
(0.257411 -0.0161304 0.0762136 0.117288 -0.00972387 0.110819)
(0.262437 -0.0149038 0.0781541 0.119108 -0.0094317 0.112967)
(0.262916 -0.0133554 0.07887 0.118919 -0.00882625 0.113534)
(0.261312 -0.0120072 0.0787558 0.117814 -0.0080301 0.113044)
(0.258578 -0.0108188 0.0779958 0.116229 -0.00716866 0.111912)
(0.25883 -0.00993808 0.0778124 0.115673 -0.00642175 0.111502)
(0.261559 -0.00917266 0.0782498 0.116035 -0.00586653 0.111725)
(0.267325 -0.00825722 0.079628 0.117371 -0.00539184 0.112844)
(0.2725 -0.0068957 0.081038 0.118162 -0.00491809 0.113613)
(0.273281 -0.00482731 0.0814548 0.117117 -0.00412434 0.112802)
(0.264979 -0.00240916 0.0794046 0.112619 -0.002894 0.108999)
(0.24592 -0.000258721 0.0740402 0.104301 -0.00128117 0.101753)
(0.216974 0.000883484 0.0650204 0.092544 0.000376964 0.0912918)
(0.181232 0.000621062 0.0526872 0.078543 0.00173963 0.0785827)
(0.145297 -0.00110934 0.0386669 0.0648207 0.00253331 0.0658567)
(0.115523 -0.00398694 0.0247945 0.0537005 0.0027648 0.0553155)
(0.10226 -0.00735419 0.0147678 0.049073 0.00278531 0.0509439)
(0.102492 -0.00991406 0.0110575 0.0489315 0.00276084 0.0508081)
(0.0867929 -0.00862566 0.0124435 0.0403769 0.00187973 0.0418328)
(0.0673419 -0.00556163 0.0156202 0.0298207 0.000588445 0.0308244)
(0.0572802 -0.00388352 0.0167347 0.0240223 -0.00022148 0.0246556)
(0.0528126 -0.00324203 0.0162527 0.0213643 -0.000552211 0.0217243)
(0.0494654 -0.00281076 0.0153618 0.0196095 -0.000660437 0.0198021)
(0.0462405 -0.00249309 0.0143909 0.0181525 -0.000688313 0.0182139)
(0.0432029 -0.00229748 0.013446 0.0168969 -0.000698645 0.0168299)
(0.0405678 -0.00221476 0.0125939 0.015866 -0.000717054 0.0156557)
(0.038436 -0.00221073 0.0118651 0.0150549 -0.000751364 0.0146899)
(0.0370176 -0.00226549 0.0113276 0.0145284 -0.000805369 0.0140015)
(0.0365065 -0.00237212 0.0110354 0.0143634 -0.000881053 0.0136587)
(0.036852 -0.00251119 0.0109539 0.0145581 -0.000974275 0.0136357)
(0.0378802 -0.00264576 0.0109869 0.0150755 -0.00107445 0.0138521)
(0.040169 -0.00277074 0.011253 0.0161829 -0.00118654 0.0144953)
(0.0448445 -0.00289116 0.0120007 0.0183906 -0.00132215 0.015923)
(0.0534663 -0.00299012 0.0135587 0.0224371 -0.0014954 0.0186253)
(0.0679187 -0.00299007 0.0162522 0.0292808 -0.00171742 0.0231857)
(0.0902797 -0.00266202 0.0203243 0.0400117 -0.00197086 0.0302418)
(0.122231 -0.00152211 0.0256627 0.0556478 -0.002156 0.0403112)
(0.1661 0.00100654 0.0318377 0.0776257 -0.00208287 0.0542075)
(0.226052 0.00536913 0.0381045 0.108506 -0.00159097 0.0734283)
(0.307647 0.0115112 0.0424037 0.152249 -0.00069129 0.10027)
(0.420344 0.0179664 0.0402028 0.215454 0.000480091 0.139091)
(0.582531 0.0216681 0.0217834 0.309372 0.00233068 0.199076)
(0.809792 0.0198671 -0.025927 0.437231 0.0065307 0.289901)
(1.1486 0.013542 -0.120139 0.617392 0.0169677 0.439864)
(1.67119 0.00921136 -0.296903 0.88918 0.0350053 0.697704)
(2.42007 0.0268013 -0.612924 1.2703 0.0397379 1.13367)
(3.32953 0.181834 -1.05682 1.69164 -0.0634419 1.73843)
(4.35164 0.605276 -1.68592 2.12166 -0.515964 2.2941)
(7.19099 1.06432 -2.40395 3.19143 -0.842617 2.99822)
(6.78837 0.549447 -1.88372 2.75278 -0.657432 2.42818)
(5.08943 0.358419 -1.18724 2.04786 -0.397326 1.76425)
(0.818912 0.0931917 -0.149167 0.3882 -0.136646 0.356772)
(0.501107 -0.0547072 -0.106109 0.218541 -0.0127976 0.246005)
(0.0755529 -0.00552392 0.00953897 0.0225615 -0.00104082 0.0222074)
(0.0655402 -0.00853951 0.0132066 0.0271558 -0.00250408 0.023704)
(0.0695785 -0.00651953 0.017502 0.0306378 -0.00297908 0.0280282)
(0.0613482 -0.00499818 0.0165698 0.0279165 -0.00255554 0.025934)
(0.0577989 -0.00413114 0.0157201 0.0264532 -0.00236666 0.0247844)
(0.0547431 -0.00357903 0.0149548 0.0251693 -0.00215328 0.0237623)
(0.0547047 -0.00322826 0.0149131 0.0251305 -0.00204142 0.0237879)
(0.0538576 -0.00288206 0.0146863 0.0247475 -0.00191859 0.0235462)
(0.0533404 -0.00254757 0.0145156 0.0245323 -0.0017695 0.0234209)
(0.0513044 -0.00216346 0.0138436 0.0237029 -0.00153393 0.0227545)
(0.0492487 -0.00191703 0.0129476 0.0229391 -0.00128674 0.0220793)
(0.047606 -0.00182971 0.0118725 0.0224485 -0.00105973 0.0216175)
(0.0479323 -0.00199334 0.0109739 0.0228749 -0.000916594 0.0220028)
(0.0505014 -0.00240609 0.0102248 0.0243769 -0.000864339 0.0234003)
(0.0558434 -0.00312567 0.00954386 0.0271908 -0.000890516 0.0260914)
(0.0636768 -0.00417642 0.00851268 0.0312402 -0.00097996 0.0300437)
(0.0743205 -0.00566475 0.00658856 0.0368183 -0.00108141 0.0355476)
(0.0886572 -0.00794438 0.0029711 0.0445452 -0.00113357 0.0431963)
(0.10965 -0.0116271 -0.00307962 0.0559632 -0.00108456 0.0544776)
(0.141578 -0.0174513 -0.012151 0.073098 -0.000807446 0.0713123)
(0.188365 -0.0260967 -0.0247036 0.0977003 -1.19407e-05 0.0954512)
(0.251444 -0.0381163 -0.0406853 0.130299 0.0018392 0.127363)
(0.33008 -0.0543316 -0.0603046 0.170052 0.00524644 0.166254)
(0.423568 -0.0758039 -0.0839503 0.21462 0.00991837 0.210065)
(0.472657 -0.0921294 -0.0994602 0.234522 0.0134204 0.228612)
(0.342167 -0.0721626 -0.0764873 0.170312 0.0116295 0.164509)
(0.156048 -0.0349468 -0.0371825 0.0791713 0.00555647 0.076578)
(0.0524358 -0.0113672 -0.0124251 0.0266744 0.00132946 0.026877)
(0.0201662 -0.00370199 -0.00387765 0.00998256 0.000162812 0.0106044)
(0.010943 -0.00160381 -0.00134496 0.00525938 -7.89662e-05 0.00569596)
(0.00775526 -0.00091742 -0.00048501 0.00365424 -0.000147291 0.00394992)
(0.00647641 -0.000650276 -0.000141467 0.00302215 -0.000180614 0.00323974)
(0.00594917 -0.000535349 3.2751e-05 0.00276789 -0.00020907 0.002935)
(0.00577009 -0.00048065 0.000158417 0.00268302 -0.000240264 0.00280725)
(0.00585983 -0.000461226 0.000262458 0.00272327 -0.000276252 0.00280457)
(0.00628048 -0.000478209 0.000344692 0.00291622 -0.000318803 0.00294769)
(0.00711837 -0.000536091 0.00040679 0.00330522 -0.000371034 0.00326997)
(0.00840783 -0.000629272 0.000440124 0.00391588 -0.000439373 0.0037835)
(0.0103043 -0.000754233 0.0004569 0.00483457 -0.000532824 0.00454243)
(0.0132271 -0.000927302 0.000468805 0.00627831 -0.000667193 0.00570799)
(0.0178313 -0.00117346 0.000476999 0.00859267 -0.000866463 0.00753099)
(0.0250962 -0.00152205 0.000447795 0.0123056 -0.00116462 0.010392)
(0.0364249 -0.00199437 0.000244207 0.0181688 -0.00161584 0.0148423)
(0.0538166 -0.00259881 -0.000520835 0.0272235 -0.00229921 0.0217199)
(0.0805427 -0.00345743 -0.0027318 0.0411719 -0.00331601 0.0324913)
(0.122504 -0.00502584 -0.00796806 0.0632238 -0.00493999 0.0496816)
(0.189731 -0.00842711 -0.0190976 0.0991073 -0.00785985 0.0776693)
(0.299422 -0.0163739 -0.041204 0.158904 -0.0131476 0.12417)
(0.480442 -0.0342537 -0.08356 0.260019 -0.0220829 0.202708)
(0.781691 -0.0722347 -0.163622 0.42909 -0.0360448 0.336686)
(1.27385 -0.146831 -0.311917 0.696446 -0.0522062 0.559329)
(1.91423 -0.244024 -0.53612 1.0229 -0.0550014 0.859129)
(2.64816 -0.347581 -0.82627 1.37887 -0.0496336 1.24382)
(2.85271 -0.31003 -0.952423 1.43679 -0.092353 1.4613)
(2.36606 -0.139054 -0.871379 1.21375 -0.203246 1.45108)
(2.24875 0.106352 -0.809813 1.27378 -0.461234 1.55453)
(2.08638 0.259086 -0.723547 1.28297 -0.568248 1.37062)
(3.10431 0.354532 -0.559405 1.41025 -0.415855 1.2295)
(0.979766 0.0981596 -0.116181 0.420831 -0.120664 0.351353)
(0.46965 -0.0473431 -0.0824772 0.206045 -0.00825262 0.222669)
(0.04122 -0.00238481 0.00217193 0.0108776 -0.000836749 0.0111177)
(0.0224521 -0.00298418 0.0041743 0.00926131 -0.000935933 0.00818351)
(0.0196801 -0.00177076 0.00456243 0.0087544 -0.000864129 0.00806875)
(0.015543 -0.00124234 0.00374357 0.0072881 -0.000657531 0.00679648)
(0.0139713 -0.000996475 0.00321062 0.00669888 -0.000593433 0.00629907)
(0.0130754 -0.000903844 0.00274367 0.00643642 -0.000527357 0.00610229)
(0.0135278 -0.00094059 0.00247441 0.00682414 -0.00052752 0.006525)
(0.0144123 -0.00108438 0.00209153 0.00749418 -0.000536525 0.00723048)
(0.0164439 -0.00140024 0.001604 0.00883791 -0.00056695 0.00860316)
(0.0198056 -0.0020074 0.000738341 0.0110679 -0.000604506 0.0108461)
(0.0261293 -0.00316728 -0.000599922 0.0150975 -0.000664708 0.0148288)
(0.0372982 -0.00526407 -0.00273228 0.0219725 -0.00076234 0.0215701)
(0.0564083 -0.00889324 -0.00610978 0.0333102 -0.000972245 0.0326028)
(0.0878732 -0.0149872 -0.0115571 0.0513195 -0.00141667 0.0500585)
(0.139206 -0.0250603 -0.020473 0.0794869 -0.00237427 0.0775351)
(0.221356 -0.0411674 -0.0349843 0.122616 -0.00428691 0.120225)
(0.352341 -0.0664109 -0.0587226 0.188633 -0.0077659 0.186701)
(0.557954 -0.105583 -0.0971608 0.289101 -0.0129984 0.288726)
(0.870606 -0.165184 -0.157349 0.438224 -0.0196471 0.439883)
(1.31491 -0.250474 -0.244814 0.645527 -0.0261315 0.647693)
(1.88619 -0.359884 -0.359372 0.905678 -0.0299869 0.904734)
(2.51883 -0.481835 -0.489181 1.18984 -0.0250975 1.17861)
(3.08959 -0.598274 -0.612787 1.44886 -0.00477496 1.41638)
(3.49426 -0.69527 -0.712023 1.63088 0.0266966 1.57446)
(3.45878 -0.718958 -0.72474 1.60595 0.0527029 1.52997)
(2.52237 -0.553603 -0.553739 1.19057 0.0584434 1.11312)
(1.30023 -0.30383 -0.309891 0.636304 0.0382806 0.589674)
(0.514567 -0.122016 -0.13543 0.257034 0.0137724 0.247562)
(0.216855 -0.0480215 -0.0608644 0.106846 0.00389247 0.110816)
(0.11732 -0.0238998 -0.0339973 0.0570874 0.00133049 0.0622355)
(0.0781303 -0.0149082 -0.0229796 0.0378445 0.000515529 0.0421513)
(0.0593387 -0.010792 -0.0174767 0.0286565 0.000151475 0.0320804)
(0.0479143 -0.00843725 -0.013937 0.0230729 -5.09637e-05 0.0257387)
(0.0383573 -0.006605 -0.01088 0.0184394 -0.000183621 0.0204544)
(0.0293809 -0.00493844 -0.00803223 0.0141298 -0.000294323 0.015669)
(0.0215361 -0.00345791 -0.00558714 0.0103812 -0.00041345 0.0116469)
(0.0167919 -0.00253629 -0.00406324 0.00811929 -0.000523181 0.00928027)
(0.0152174 -0.00220555 -0.00341666 0.00737023 -0.000624064 0.00852208)
(0.015758 -0.00226291 -0.00332529 0.00763403 -0.0007354 0.00883799)
(0.0169789 -0.00240959 -0.00335876 0.00826847 -0.000902061 0.00953266)
(0.0187724 -0.00259531 -0.00343982 0.0092687 -0.00117983 0.0105546)
(0.021738 -0.00290115 -0.00364238 0.0109977 -0.00164413 0.012221)
(0.0269061 -0.00347041 -0.00413428 0.0140447 -0.00240021 0.0150691)
(0.036025 -0.00454092 -0.00533767 0.019348 -0.00355606 0.020041)
(0.0516717 -0.00646656 -0.0080856 0.0283425 -0.00521599 0.0286454)
(0.0774788 -0.00959441 -0.0135356 0.0431795 -0.00775157 0.0428209)
(0.121112 -0.0146783 -0.024048 0.0683884 -0.0119643 0.0666021)
(0.197809 -0.023817 -0.0439391 0.112141 -0.0190076 0.107425)
(0.333181 -0.0426317 -0.0801395 0.188665 -0.0304724 0.177476)
(0.556258 -0.0794871 -0.141674 0.316799 -0.0492869 0.291998)
(0.895715 -0.137718 -0.242587 0.518482 -0.0806458 0.468623)
(1.52603 -0.230255 -0.435067 0.885693 -0.137875 0.786347)
(2.06943 -0.331052 -0.59006 1.17128 -0.158391 1.04076)
(1.99598 -0.331098 -0.56724 1.11053 -0.119585 1.03954)
(1.55714 -0.270474 -0.444597 0.881932 -0.0752322 0.86988)
(1.24338 -0.200471 -0.347517 0.677593 -0.0733097 0.748153)
(1.07871 -0.123952 -0.295694 0.544043 -0.111479 0.615128)
(1.37989 -0.0080969 -0.19563 0.580904 -0.155163 0.590217)
(0.781758 0.0583064 -0.0722832 0.32362 -0.0660343 0.27535)
(0.438072 -0.0365884 -0.0565309 0.193076 -0.00106668 0.196155)
(0.0262008 -0.00135832 -0.000445885 0.00654167 -0.000459525 0.00721053)
(0.00851184 -0.00110072 0.00124955 0.003722 -0.000382426 0.00346186)
(0.00702811 -0.000714957 0.000954998 0.00358305 -0.00032839 0.00341141)
(0.00672533 -0.000767233 0.000434837 0.0038592 -0.000296096 0.00374012)
(0.00849457 -0.0010692 -3.70589e-05 0.00511786 -0.000368578 0.00503762)
(0.0122343 -0.00174576 -0.000706227 0.00753927 -0.000492059 0.00751241)
(0.0191318 -0.00299933 -0.00177915 0.0118065 -0.000718793 0.0118635)
(0.0312648 -0.00531912 -0.00369852 0.0191171 -0.00107062 0.0193052)
(0.0527305 -0.00960346 -0.00718304 0.0318282 -0.00157693 0.0322448)
(0.0904422 -0.0175344 -0.0136146 0.0539662 -0.00219661 0.0546872)
(0.154919 -0.0319469 -0.0251929 0.0916835 -0.00267947 0.092527)
(0.25951 -0.05687 -0.0449848 0.152646 -0.00273572 0.152737)
(0.418078 -0.0965682 -0.0760983 0.244242 -0.00254476 0.241589)
(0.649862 -0.156335 -0.122107 0.37482 -0.00311999 0.367814)
(0.988873 -0.244102 -0.189121 0.557985 -0.00631832 0.547674)
(1.48193 -0.368887 -0.286128 0.810553 -0.0154109 0.804282)
(2.21036 -0.546004 -0.431004 1.16298 -0.0349494 1.17913)
(3.29199 -0.801324 -0.651031 1.66475 -0.0656497 1.72687)
(4.85253 -1.16559 -0.971415 2.36591 -0.107522 2.49615)
(7.00026 -1.66192 -1.4109 3.3017 -0.159257 3.50992)
(9.74813 -2.27905 -1.96109 4.44957 -0.217046 4.72566)
(12.8761 -2.94544 -2.56756 5.69493 -0.262296 5.9959)
(15.6757 -3.52066 -3.08868 6.77895 -0.247276 6.99053)
(16.9034 -3.76531 -3.31148 7.24434 -0.148201 7.25079)
(15.7477 -3.52184 -3.10449 6.76708 -0.0144379 6.54333)
(11.9897 -2.7445 -2.4411 5.29118 0.0951876 4.90766)
(7.16845 -1.72548 -1.57545 3.33283 0.121632 2.9912)
(3.54324 -0.880077 -0.873306 1.71535 0.0719198 1.56981)
(1.88731 -0.447002 -0.509238 0.904234 0.0310242 0.894355)
(1.25259 -0.276784 -0.356968 0.590023 0.016582 0.621833)
(0.979446 -0.206235 -0.288962 0.458981 0.0113164 0.49957)
(0.840437 -0.17107 -0.252897 0.393139 0.00833971 0.432864)
(0.752756 -0.149739 -0.227163 0.351247 0.0062108 0.385441)
(0.676606 -0.133086 -0.201749 0.314808 0.00474174 0.340879)
(0.593715 -0.116874 -0.173551 0.275671 0.00392755 0.293797)
(0.493138 -0.0974496 -0.141497 0.228541 0.00320294 0.241383)
(0.406534 -0.0803836 -0.1152 0.18761 0.00273582 0.198971)
(0.34414 -0.0680509 -0.0963903 0.157817 0.00256904 0.169901)
(0.315915 -0.0631547 -0.0870136 0.144026 0.00286417 0.157765)
(0.319679 -0.0657654 -0.0860947 0.145323 0.00388539 0.160819)
(0.307265 -0.065436 -0.0811754 0.139468 0.0050415 0.155684)
(0.261673 -0.0576527 -0.0683316 0.118772 0.00544776 0.133821)
(0.176285 -0.0397149 -0.0458381 0.0803535 0.00382426 0.0918582)
(0.0831965 -0.0176073 -0.0216736 0.0381934 -4.76364e-05 0.0463494)
(0.0619153 -0.011541 -0.0156708 0.0292075 -0.00263383 0.0375416)
(0.0673683 -0.0117801 -0.016274 0.033278 -0.0050974 0.0431567)
(0.0869143 -0.0150773 -0.0203177 0.0447876 -0.00846743 0.0573852)
(0.123958 -0.0218121 -0.0286867 0.0660634 -0.0137646 0.0826334)
(0.191226 -0.0347546 -0.0448161 0.104446 -0.0222965 0.12649)
(0.305226 -0.0569904 -0.0736295 0.169282 -0.0357329 0.19805)
(0.479322 -0.0919313 -0.120148 0.266745 -0.0537424 0.302894)
(0.75031 -0.144788 -0.187832 0.427149 -0.0855576 0.467119)
(0.928015 -0.19143 -0.213397 0.53957 -0.111578 0.587008)
(0.864731 -0.158896 -0.174889 0.532645 -0.109107 0.551801)
(0.791739 -0.140942 -0.146867 0.492185 -0.0773553 0.511256)
(0.684102 -0.144106 -0.101677 0.425229 -0.0154309 0.474619)
(0.579889 -0.13177 -0.0628672 0.350851 0.00561446 0.392275)
(0.66774 -0.0826855 -0.0372765 0.316995 -0.0281792 0.346655)
(0.527471 -0.0055135 -0.0162443 0.229107 -0.0197266 0.228018)
(0.403948 -0.0171582 -0.0206366 0.182859 0.00265185 0.170079)
(0.0227999 -0.00139588 -0.00141989 0.00613491 -0.00118276 0.00747689)
(0.00820686 -0.00125938 -0.000136189 0.00461237 -0.000364716 0.00461928)
(0.0123209 -0.0020071 -0.000998579 0.00780131 -0.000441606 0.00769533)
(0.0209147 -0.00381276 -0.00251899 0.0135863 -0.000656541 0.0134595)
(0.036337 -0.00698536 -0.00523746 0.0231695 -0.00108942 0.023278)
(0.0645182 -0.0131634 -0.0102874 0.0401752 -0.00173352 0.0408516)
(0.113515 -0.0245597 -0.0194807 0.0689886 -0.00270242 0.0707133)
(0.200256 -0.0457678 -0.0360629 0.118367 -0.00400291 0.121993)
(0.352274 -0.0846565 -0.0656011 0.2029 -0.00541878 0.209559)
(0.609829 -0.153868 -0.116944 0.344147 -0.00547147 0.354591)
(1.01548 -0.269555 -0.200931 0.567768 -0.000726873 0.57832)
(1.5882 -0.443942 -0.323776 0.888256 0.0121757 0.885545)
(2.29197 -0.669189 -0.47837 1.29055 0.032373 1.25145)
(3.09325 -0.93139 -0.654912 1.7515 0.0537638 1.65745)
(4.01989 -1.22742 -0.857996 2.26579 0.0692417 2.12693)
(5.16619 -1.57299 -1.10647 2.85762 0.0676215 2.72101)
(6.72442 -2.00971 -1.44576 3.59431 0.0364846 3.55574)
(8.93742 -2.59439 -1.93006 4.57453 -0.0214838 4.75102)
(11.979 -3.37477 -2.59363 5.89169 -0.0970148 6.37715)
(15.9192 -4.36926 -3.42715 7.56549 -0.203876 8.417)
(20.8716 -5.56283 -4.40598 9.56867 -0.361239 10.7955)
(26.9053 -6.8977 -5.49178 11.8257 -0.573181 13.3694)
(33.5399 -8.2553 -6.55499 14.1407 -0.742778 15.7282)
(37.8512 -9.04748 -7.09287 15.4596 -0.730557 16.6808)
(36.9896 -8.7274 -6.70754 14.9011 -0.548189 15.4728)
(31.9774 -7.61277 -5.75291 13.1133 -0.288434 12.8394)
(23.3992 -5.77149 -4.44574 10.2004 -0.0413773 9.27579)
(14.6044 -3.78048 -3.12775 6.81019 0.0803256 5.98939)
(9.4612 -2.42288 -2.27127 4.44252 0.0785988 4.12288)
(7.10441 -1.72884 -1.83815 3.27215 0.0637267 3.26249)
(5.92535 -1.39386 -1.61291 2.71384 0.0575928 2.83543)
(5.25122 -1.20984 -1.48386 2.41111 0.0507358 2.58922)
(4.8506 -1.09743 -1.40006 2.23282 0.0401578 2.42215)
(4.63401 -1.03333 -1.33838 2.13472 0.0285797 2.29572)
(4.53475 -1.00697 -1.28547 2.08999 0.0220134 2.19354)
(4.37786 -0.980093 -1.20829 2.02182 0.0200667 2.05884)
(4.2123 -0.952996 -1.13609 1.94536 0.0212527 1.93534)
(4.02362 -0.915925 -1.06411 1.84916 0.0244414 1.81748)
(3.89507 -0.891213 -1.00963 1.77456 0.0296212 1.73834)
(3.91465 -0.905838 -0.992561 1.7687 0.0401265 1.73608)
(3.80412 -0.898062 -0.947552 1.70936 0.0541192 1.68593)
(3.52441 -0.851023 -0.871717 1.57832 0.0668281 1.57534)
(2.94295 -0.734281 -0.729058 1.32474 0.0773746 1.33635)
(2.0227 -0.526621 -0.510357 0.924802 0.0700485 0.945024)
(1.44135 -0.388905 -0.375266 0.666227 0.0595371 0.696382)
(1.11345 -0.304421 -0.302787 0.516511 0.053267 0.560901)
(0.878721 -0.239702 -0.251279 0.406527 0.047251 0.467258)
(0.606748 -0.162929 -0.184643 0.280653 0.0357629 0.347188)
(0.382497 -0.0960357 -0.124297 0.178742 0.0179556 0.242479)
(0.274388 -0.0583599 -0.0911028 0.131642 -0.000978259 0.195995)
(0.315576 -0.0617866 -0.0997455 0.154707 -0.0131893 0.234408)
(0.405425 -0.0805724 -0.118288 0.205842 -0.0263176 0.301316)
(0.449369 -0.102169 -0.111368 0.232549 -0.0352225 0.338127)
(0.483934 -0.106929 -0.0711162 0.230972 -0.0449268 0.325385)
(0.609009 -0.0959206 -0.0754949 0.29091 -0.0572021 0.357158)
(0.729856 -0.091919 -0.0824746 0.376764 -0.0285771 0.404802)
(0.479845 -0.0697708 -0.00598577 0.339357 0.0307019 0.33901)
(0.363423 -0.0432004 0.0222786 0.247336 0.0180902 0.258825)
(0.353704 -0.00670302 0.0116856 0.207775 0.0155038 0.198662)
(0.343374 -0.0153167 -0.0109747 0.167279 0.010657 0.150097)
(0.0386122 -0.00490259 -0.0047794 0.0140793 -0.00123427 0.0169234)
(0.032846 -0.00531824 -0.0039787 0.0196982 -0.000925834 0.0208025)
(0.0640183 -0.0135108 -0.0106379 0.0403708 -0.0016353 0.0408249)
(0.118946 -0.0275969 -0.0225639 0.074881 -0.00232821 0.0758185)
(0.206981 -0.0508184 -0.0426428 0.126865 -0.00305551 0.128518)
(0.360473 -0.0926839 -0.0774402 0.214196 -0.00302038 0.218372)
(0.609268 -0.163373 -0.134269 0.35195 -0.00229323 0.359002)
(1.01888 -0.28217 -0.225728 0.568996 4.11784e-05 0.582446)
(1.68211 -0.47866 -0.369939 0.910313 0.00506502 0.933793)
(2.7142 -0.794051 -0.591262 1.43288 0.0211369 1.46973)
(4.15042 -1.25257 -0.901227 2.15938 0.0581963 2.2077)
(5.92074 -1.85088 -1.28383 3.07752 0.1165 3.09339)
(7.69119 -2.48317 -1.66164 4.04013 0.170263 3.93858)
(9.20423 -3.0516 -1.97693 4.92086 0.203209 4.60297)
(10.5643 -3.56827 -2.26706 5.74364 0.234533 5.18603)
(11.8542 -4.03759 -2.56756 6.52163 0.271197 5.80611)
(13.5355 -4.54795 -3.01173 7.41728 0.299754 6.73569)
(16.3102 -5.28009 -3.74155 8.6333 0.323025 8.27198)
(19.7496 -6.14769 -4.62789 9.9918 0.338633 10.1628)
(23.5634 -7.12286 -5.51588 11.4931 0.297403 12.2473)
(27.429 -8.077 -6.2191 12.9597 0.130665 14.2392)
(31.5016 -8.9389 -6.73514 14.3619 -0.201218 16.086)
(36.2177 -9.72475 -7.19683 15.8649 -0.632511 17.8376)
(41.0337 -10.3016 -7.58903 17.1812 -0.973779 19.0757)
(43.3292 -10.343 -7.58451 17.4718 -1.0521 18.991)
(41.8346 -9.98355 -7.11936 16.7525 -0.880018 17.5723)
(36.8687 -9.22471 -6.32165 15.3825 -0.648925 15.1613)
(29.9675 -7.89209 -5.43011 13.3944 -0.446322 12.3227)
(23.5662 -6.35692 -4.65997 10.8938 -0.203562 9.83437)
(19.2554 -5.09946 -4.13803 8.81903 -0.0216729 8.21265)
(16.3826 -4.25316 -3.74598 7.44017 0.0769701 7.19685)
(14.2333 -3.67724 -3.41717 6.48482 0.120748 6.49281)
(12.5443 -3.24586 -3.14361 5.76449 0.125837 5.94276)
(11.3365 -2.93404 -2.93693 5.25795 0.102526 5.528)
(10.7377 -2.77454 -2.82029 5.02198 0.0696464 5.29612)
(10.5835 -2.74891 -2.75031 4.99881 0.0386941 5.16438)
(10.7598 -2.83062 -2.70685 5.12773 0.0129837 5.11172)
(11.0832 -2.95263 -2.6703 5.29959 -0.00571696 5.10211)
(11.3726 -3.07172 -2.62827 5.43456 -0.0125277 5.08876)
(11.7016 -3.18429 -2.60835 5.55538 -0.00618162 5.10199)
(11.9789 -3.27766 -2.58308 5.62853 0.018923 5.09203)
(11.9286 -3.26594 -2.51902 5.53126 0.0528033 4.97062)
(11.7526 -3.20166 -2.46694 5.36025 0.103921 4.8577)
(10.3528 -2.89741 -2.20453 4.74301 0.165512 4.31574)
(8.26967 -2.44654 -1.78606 3.8799 0.186685 3.51388)
(6.53121 -2.01731 -1.4328 3.13351 0.192635 2.84268)
(5.2771 -1.6612 -1.18726 2.55177 0.203672 2.36221)
(4.15145 -1.31793 -0.989671 2.00892 0.217092 1.94447)
(3.04429 -0.977184 -0.78474 1.4949 0.211557 1.51683)
(2.09121 -0.683566 -0.579314 1.0563 0.180985 1.11913)
(1.46324 -0.478589 -0.437337 0.756725 0.144188 0.847505)
(1.06822 -0.32537 -0.344799 0.546028 0.100778 0.65261)
(0.857312 -0.220235 -0.283668 0.419521 0.0555935 0.524578)
(0.81237 -0.151959 -0.248122 0.365435 0.00634045 0.471244)
(0.964943 -0.113192 -0.250854 0.412939 -0.0400977 0.47315)
(1.22297 -0.0861373 -0.229584 0.511495 -0.0692043 0.493504)
(0.694949 -0.0629371 -0.0857634 0.388073 0.00245256 0.362239)
(0.270041 -0.0255873 -0.0229747 0.24575 0.0396079 0.230591)
(0.27163 0.000917453 -0.00250737 0.215505 0.0421873 0.179307)
(0.30461 -0.0105128 -0.00876228 0.156222 0.0151381 0.137165)
(0.0968149 -0.0172041 -0.0105595 0.0501302 -0.0183768 0.0562267)
(0.135355 -0.0356885 -0.0187469 0.0821728 -0.00673688 0.0846699)
(0.283664 -0.0882641 -0.0544559 0.175844 0.00462848 0.167587)
(0.541782 -0.173024 -0.113897 0.330008 0.0134848 0.316292)
(0.887472 -0.295146 -0.199408 0.536729 0.0353279 0.502022)
(1.43157 -0.483685 -0.328017 0.848795 0.0628548 0.791313)
(2.13638 -0.732798 -0.494323 1.25092 0.0984714 1.16218)
(3.12892 -1.07785 -0.712299 1.79046 0.141272 1.66898)
(4.48928 -1.53681 -0.989331 2.48197 0.18464 2.34132)
(6.53673 -2.20204 -1.38114 3.46136 0.22157 3.31558)
(8.72144 -2.90174 -1.80737 4.46068 0.236058 4.367)
(10.6028 -3.53144 -2.19093 5.36886 0.236633 5.34346)
(12.0322 -4.06384 -2.49757 6.17216 0.24434 6.2029)
(13.3991 -4.60189 -2.78268 7.01494 0.265515 6.98739)
(14.9654 -5.16633 -3.10547 7.94714 0.283665 7.69425)
(16.4884 -5.7114 -3.47834 8.87231 0.306957 8.33769)
(17.8924 -6.24512 -3.92994 9.78068 0.372065 9.04575)
(19.4575 -6.77292 -4.47805 10.6624 0.490495 9.89138)
(21.3837 -7.33101 -5.00329 11.4716 0.638593 10.8246)
(23.2869 -7.83376 -5.28867 12.0696 0.746655 11.6184)
(24.9327 -8.20242 -5.29135 12.4884 0.73386 12.2374)
(26.4394 -8.41726 -5.13452 12.7931 0.55321 12.8421)
(28.1505 -8.51646 -4.95213 13.1162 0.20004 13.5938)
(30.6008 -8.59148 -4.93009 13.625 -0.253945 14.5489)
(33.4029 -8.59282 -5.16043 14.1937 -0.690631 15.3813)
(34.7757 -8.48855 -5.44566 14.4605 -0.995777 15.6165)
(33.6122 -8.3494 -5.65296 14.3062 -1.08591 15.1179)
(31.114 -8.12972 -5.65744 13.8692 -0.974332 14.0914)
(29.3325 -7.89415 -5.54591 13.3849 -0.724591 13.0314)
(28.1131 -7.54798 -5.39142 12.7446 -0.459398 12.0489)
(26.4417 -7.01809 -5.1258 11.8474 -0.276631 11.0341)
(23.9619 -6.37209 -4.7327 10.7118 -0.150124 9.95391)
(21.0229 -5.68556 -4.28645 9.48749 -0.0545991 8.94736)
(18.2922 -5.04999 -3.89833 8.40347 0.0149966 8.16002)
(16.2814 -4.57478 -3.63789 7.62074 0.073114 7.61115)
(15.1005 -4.31622 -3.49675 7.19013 0.121413 7.25821)
(14.5584 -4.23999 -3.39213 7.03738 0.146228 7.01625)
(14.4789 -4.2874 -3.29306 7.07116 0.137853 6.86845)
(14.6273 -4.40161 -3.20467 7.18652 0.116911 6.80394)
(14.9839 -4.57785 -3.15594 7.38265 0.110554 6.83105)
(15.4995 -4.78005 -3.1636 7.62851 0.117351 6.91817)
(15.89 -4.9325 -3.1578 7.78893 0.12902 6.91774)
(16.1183 -4.98883 -3.12384 7.82998 0.125773 6.83118)
(16.0168 -4.93275 -3.01659 7.72018 0.115731 6.60286)
(14.8996 -4.64922 -2.66925 7.20572 0.108558 5.99091)
(12.7605 -4.11841 -2.1506 6.26824 0.115417 5.03333)
(10.2854 -3.47218 -1.63006 5.17891 0.136508 4.00401)
(7.97805 -2.80899 -1.23055 4.12195 0.161169 3.10031)
(5.98639 -2.19973 -0.941256 3.19676 0.190046 2.35979)
(4.42013 -1.6983 -0.736273 2.46946 0.213424 1.80363)
(3.25979 -1.30231 -0.590048 1.91312 0.222455 1.39882)
(2.40625 -0.960992 -0.503762 1.45434 0.208534 1.11692)
(1.82948 -0.684416 -0.462307 1.10221 0.165282 0.923557)
(1.60248 -0.495857 -0.484594 0.902223 0.110626 0.840338)
(1.71765 -0.316092 -0.531744 0.815975 0.00961191 0.813778)
(2.01882 -0.142741 -0.469737 0.78167 -0.0971077 0.772705)
(1.28259 -0.118718 -0.255064 0.503974 -0.0437321 0.469101)
(0.504329 -0.0936321 -0.110694 0.276802 0.0259053 0.239706)
(0.32699 -0.0100687 -0.0182285 0.197908 0.0320452 0.160029)
(0.294429 -0.0107535 -0.00913567 0.141466 0.0120341 0.124645)
(0.205441 -0.0609936 -0.0297445 0.113193 -0.0136129 0.0906966)
(0.577455 -0.105526 -0.0862881 0.244435 -0.0253719 0.254132)
(1.37797 -0.443058 -0.263923 0.667613 0.007946 0.661413)
(2.45359 -0.822996 -0.469117 1.22015 0.014765 1.18926)
(3.405 -1.12418 -0.749392 1.69662 0.0548459 1.67848)
(4.99056 -1.65409 -1.12339 2.51002 0.104368 2.43409)
(6.05686 -1.99304 -1.41761 3.06192 0.159423 2.94003)
(6.96869 -2.28743 -1.66305 3.53998 0.208438 3.3498)