/*--------------------------------*- C++ -*----------------------------------*\
| =========                 |                                                 |
| \\      /  F ield         | OpenFOAM: The Open Source CFD Toolbox           |
|  \\    /   O peration     | Version:  2.1.1                                 |
|   \\  /    A nd           | Web:      www.OpenFOAM.org                      |
|    \\/     M anipulation  |                                                 |
\*---------------------------------------------------------------------------*/
FoamFile
{
    version     2.0;
    format      ascii;
    class       volScalarField;
    location    "0.00145";
    object      TLS;
}
// * * * * * * * * * * * * * * * * * * * * * * * * * * * * * * * * * * * * * //

dimensions      [0 1 0 0 0 0 0];

internalField   nonuniform List<scalar> 
36520
(
0.000331888
0.000294176
0.000249551
0.000235792
0.000226387
0.000220323
0.000215442
0.000211493
0.000208158
0.000205399
0.000203183
0.000201353
0.000199838
0.000198431
0.000197153
0.000195902
0.000194813
0.000193997
0.000193671
0.000193992
0.000195108
0.000197153
0.000200271
0.000204541
0.000209762
0.000215088
0.000220111
0.000224582
0.000228572
0.000232304
0.000236119
0.000240268
0.00024508
0.00025033
0.000255791
0.000261251
0.000266408
0.000270863
0.000274095
0.000275412
0.000274205
0.000270029
0.000262856
0.000253378
0.000242583
0.000231368
0.000220575
0.000211017
0.00020358
0.000198379
0.000192203
0.000180653
0.000165755
0.000152627
0.000121103
7.83935e-05
7.08657e-05
3.60553e-05
3.32711e-05
3.58854e-05
0.000521433
0.000289823
0.000272721
0.000264265
0.000257562
0.000252466
0.000247489
0.000243346
0.000239765
0.000237156
0.000235223
0.00023362
0.00023162
0.000228982
0.000225628
0.000221998
0.000218604
0.00021586
0.000213877
0.000212482
0.00021116
0.000208696
0.000203268
0.000194097
0.000188786
0.000202525
0.000239741
0.000275494
0.000291497
0.000300213
0.000306955
0.000312843
0.000318204
0.000323358
0.000328017
0.000331434
0.000333531
0.000334999
0.000334749
0.000331182
0.000323344
0.000311571
0.000297078
0.000281127
0.000264285
0.000246721
0.000228468
0.000209407
0.000189894
0.000171957
0.000157054
0.000145749
0.000136017
0.000124425
0.000108796
0.00010238
0.000100662
8.10254e-05
3.13741e-05
5.29223e-05
0.000614871
0.000307335
0.000292543
0.000285456
0.000279317
0.000274002
0.000268376
0.000263342
0.000258512
0.000254209
0.000249582
0.000243816
0.000236232
0.000227085
0.000217027
0.000206678
0.000196296
0.00018606
0.000176519
0.000168331
0.000161712
0.000156398
0.000151735
0.000147143
0.000144303
0.000146782
0.000157013
0.000177013
0.000201854
0.000227381
0.000251829
0.000272701
0.000289978
0.000306014
0.000320217
0.000328903
0.000329755
0.000325218
0.000318311
0.000309446
0.000298803
0.00028639
0.000272199
0.000256299
0.000239016
0.000221141
0.000203531
0.000186922
0.000172029
0.000159523
0.000149433
0.000139093
0.000121672
0.000103306
9.22332e-05
7.87712e-05
7.71085e-05
9.1439e-05
4.20678e-05
5.52643e-05
0.000722252
0.000319791
0.00030521
0.000294895
0.000283425
0.000270457
0.00025683
0.000242289
0.000228039
0.000214332
0.000203056
0.000194493
0.000188196
0.000183073
0.0001784
0.000173839
0.000169309
0.000164823
0.000160455
0.000156265
0.00015236
0.000148803
0.000145489
0.000141915
0.000139401
0.000141637
0.000149819
0.000164477
0.000178699
0.000187772
0.000193544
0.000197522
0.000200383
0.000203056
0.000206944
0.000214413
0.000224545
0.000232209
0.000234442
0.000236683
0.000241047
0.000246192
0.000248301
0.000242919
0.00023084
0.000216906
0.000202496
0.000188377
0.000175289
0.000164141
0.000155109
0.00014253
0.000126625
0.000115758
9.62259e-05
7.27885e-05
6.20189e-05
7.76772e-05
5.72105e-05
5.68655e-05
0.000810332
0.000295931
0.000267453
0.000241504
0.000224924
0.00021314
0.000204946
0.000198283
0.000192754
0.00018796
0.000183704
0.000179788
0.000176092
0.000172385
0.000168372
0.000163917
0.0001591
0.00015411
0.000149221
0.000144579
0.000140337
0.000136696
0.000133808
0.000131646
0.000130721
0.000133602
0.000141555
0.000155228
0.000168324
0.000176185
0.000180601
0.000183289
0.000184881
0.000185524
0.000185455
0.000185539
0.000185477
0.000184901
0.000182793
0.00017879
0.000175007
0.000172264
0.000172364
0.000186023
0.000204257
0.000209635
0.000205461
0.000196609
0.00018543
0.000174672
0.000166127
0.000158895
0.000157117
0.000166754
0.000170399
0.000142573
6.75804e-05
7.95211e-05
6.0438e-05
5.60711e-05
0.000830116
0.000227648
0.000214542
0.000206977
0.000201493
0.000196115
0.000190653
0.000185092
0.000179563
0.000174269
0.000169347
0.000164917
0.000161227
0.000158265
0.000155673
0.000152868
0.00014946
0.00014548
0.000141276
0.000137192
0.000133339
0.000129795
0.00012665
0.000124714
0.000124496
0.00012669
0.000132892
0.000144282
0.000155745
0.000162845
0.000166973
0.000169688
0.000171562
0.000172457
0.000172096
0.000171188
0.000169834
0.000168263
0.00016616
0.000163057
0.000160237
0.000157727
0.000155615
0.000155588
0.00015648
0.000157276
0.000158039
0.000160792
0.000167834
0.000178312
0.000177094
0.000173444
0.000172436
0.000175492
0.000182645
0.000186801
0.000179481
9.64506e-05
4.19192e-05
5.80076e-05
0.000705672
0.000205303
0.000197586
0.000191695
0.000186937
0.000181651
0.000175878
0.000169822
0.000163685
0.000157832
0.000152626
0.000148194
0.000144999
0.000143077
0.000141949
0.000141339
0.000140534
0.000138178
0.000135641
0.000133435
0.000131862
0.000130624
0.000128862
0.000126094
0.000124243
0.000125468
0.000130071
0.000136439
0.000143271
0.000149134
0.000153224
0.000156262
0.000158862
0.000160909
0.000161827
0.000161603
0.000160162
0.000158029
0.000155938
0.000153375
0.000150858
0.000148832
0.000146194
0.000144782
0.000145804
0.00014751
0.000148884
0.000149702
0.000150501
0.000151924
0.000154454
0.000153845
0.000128943
0.000133137
0.000160626
0.000178377
0.000185841
8.82906e-05
3.37529e-05
5.95533e-05
0.000539329
0.000189194
0.000177803
0.000170464
0.000166468
0.000162445
0.000158633
0.000154591
0.000150403
0.000146005
0.000142868
0.000140969
0.000139954
0.000138933
0.000137334
0.000136369
0.000136076
0.000135641
0.000134554
0.000133254
0.000132356
0.000132106
0.000132452
0.00013244
0.000130246
0.000128401
0.000132123
0.00013924
0.000142001
0.000142676
0.00014371
0.000145782
0.000148516
0.000151016
0.000152926
0.000154711
0.000155754
0.000153922
0.00014397
0.000142199
0.00014046
0.000142545
0.000141009
0.000137493
0.000134864
0.000135001
0.00013603
0.000137066
0.000138383
0.00014026
0.000142924
0.000148608
0.000152453
0.000154249
0.000160347
0.000161827
0.000157767
5.95178e-05
3.29705e-05
6.0573e-05
0.000452764
0.000157611
0.000145934
0.000140839
0.00013908
0.000136472
0.000135398
0.000135095
0.000135348
0.000135194
0.000133966
0.000133929
0.000137079
0.000139686
0.000141562
0.000141181
0.000138879
0.000131135
0.000111761
8.54447e-05
6.69382e-05
6.25791e-05
6.55044e-05
7.73634e-05
9.38837e-05
0.000104268
0.000111756
0.000119682
0.000126745
0.000132717
0.000138635
0.000142556
0.000143058
0.000143973
0.000145076
0.000145519
0.000146292
0.00014684
0.000146781
0.000145778
0.000144098
0.000142068
0.000139176
0.000134975
0.000130172
0.000125717
0.000121839
0.000119098
0.000119112
0.000122515
0.000132167
0.000149662
0.000155138
0.000156016
0.000154506
0.000141217
0.000122542
4.14688e-05
3.32448e-05
6.16003e-05
0.000486857
0.000159762
0.000145791
0.000141271
0.000142939
0.000143202
0.000142933
0.000141828
0.000140522
0.000138457
0.000133546
0.0001269
0.000129179
0.000144613
0.000152447
0.00015449
0.00015442
0.000149725
0.0001313
9.57549e-05
6.51956e-05
5.24711e-05
5.26743e-05
6.09691e-05
8.18203e-05
9.82537e-05
0.000104718
0.00010901
0.000111436
0.000112667
0.000115275
0.000122959
0.000138022
0.000152045
0.000154093
0.000153953
0.000153579
0.000153033
0.000152296
0.000150216
0.000146969
0.000143506
0.000140493
0.000138244
0.000137081
0.000136145
0.000135262
0.000134533
0.000135223
0.00013861
0.000148858
0.000164326
0.000166364
0.000158872
0.000150288
0.000142035
0.000132591
4.72637e-05
3.96318e-05
6.22942e-05
0.000538907
0.000173224
0.000144155
0.000137025
0.000136316
0.000135606
0.000135996
0.00013753
0.000139788
0.000141648
0.000140162
0.000133287
0.000135845
0.000145353
0.000151924
0.000158346
0.000162432
0.000161888
0.000137423
8.12968e-05
5.03492e-05
4.00058e-05
3.98592e-05
4.44248e-05
6.18286e-05
9.26942e-05
0.000112427
0.00012534
0.000133178
0.000134831
0.00013504
0.000137365
0.000143913
0.000149752
0.000149126
0.000147746
0.000146777
0.00014854
0.000151859
0.000154168
0.000154347
0.000153485
0.000151932
0.000150538
0.000149049
0.00014722
0.000145045
0.00014296
0.000141577
0.000141814
0.000145202
0.000154195
0.000160678
0.000157889
0.000158417
0.000165415
0.000162559
4.26451e-05
3.584e-05
6.0756e-05
0.000504065
0.000174236
0.000159734
0.000151117
0.000146584
0.000141781
0.000139711
0.000138093
0.00013697
0.000136451
0.000136456
0.000136852
0.000139517
0.000144835
0.000150996
0.000155795
0.000158905
0.00016051
0.000160127
0.000157806
0.000138984
7.14392e-05
3.31988e-05
2.93951e-05
3.00471e-05
3.61552e-05
7.21803e-05
0.000155396
0.00015843
0.000156025
0.00014954
0.000145626
0.000144985
0.000147446
0.000147608
0.000139413
0.000137416
0.000143321
0.000153833
0.000155419
0.000154216
0.000152119
0.000129607
0.000122874
0.000122513
0.000129155
0.000144289
0.000143234
0.000140466
0.000143811
0.000149864
0.000150146
0.000148581
0.000148895
0.0001621
0.000172948
0.000163941
4.38796e-05
3.24344e-05
5.90049e-05
0.000494503
0.00016877
0.000157305
0.000151291
0.000148865
0.000145533
0.000143581
0.00014158
0.000139231
0.000137099
0.000135792
0.000135328
0.000136568
0.000138121
0.000136608
0.000132817
0.000132632
0.000139739
0.000154806
0.000160433
0.000160036
0.00012739
5.572e-05
3.02679e-05
2.72589e-05
2.74673e-05
3.2422e-05
7.09203e-05
0.000151746
0.000152785
0.000151274
0.000148424
0.000146611
0.000146942
0.000147954
0.000141461
0.000136529
0.000138639
0.000147496
0.000154142
0.000152355
0.000150525
0.000148378
0.000133849
0.000121023
0.000129665
0.000142922
0.000141099
0.000133803
0.000133787
0.000142812
0.000147172
0.000142718
0.0001509
0.000169821
0.000176043
0.00016167
4.36371e-05
3.25797e-05
5.87306e-05
0.000519587
0.000158244
0.000136024
0.00012917
0.000132236
0.000134803
0.000136422
0.000136963
0.000136849
0.000135617
0.000131942
0.000121047
9.73289e-05
7.15989e-05
5.44893e-05
4.90375e-05
5.15698e-05
6.83886e-05
0.00011692
0.000152104
0.000155908
0.000156583
0.000123285
4.5405e-05
2.77175e-05
2.66806e-05
2.71696e-05
3.37678e-05
8.48727e-05
0.000135884
0.00013503
0.000134723
0.000135514
0.000139208
0.000145377
0.000147647
0.000147255
0.000147476
0.000149848
0.000151428
0.000151348
0.000151083
0.000150627
0.00014892
0.000145645
0.000144596
0.000143514
0.000141557
0.000136522
0.000130259
0.000132325
0.000140613
0.000136703
0.000130129
0.000145853
0.000163691
0.000155658
4.44564e-05
3.51847e-05
5.94123e-05
0.000505969
0.000168263
0.00015356
0.000140107
0.000140268
0.000140422
0.000140565
0.00013928
0.000137998
0.000135091
0.000126924
0.000104561
6.55339e-05
3.74192e-05
2.83018e-05
2.76417e-05
3.02779e-05
4.30815e-05
8.88869e-05
0.00013456
0.000137745
0.000136987
0.000118507
8.22242e-05
4.7548e-05
2.97598e-05
2.70486e-05
2.77176e-05
3.43041e-05
8.19541e-05
0.000145856
0.000148017
0.000147205
0.00014518
0.000140526
0.000136028
0.000139235
0.000149936
0.00015708
0.000157009
0.000155698
0.000153916
0.000149776
0.000142336
0.000137593
0.000137768
0.000139948
0.000143464
0.000144899
0.000145444
0.000147475
0.000148683
0.000140875
0.000129533
0.000139363
0.000160516
0.000154143
5.13013e-05
3.70004e-05
6.00957e-05
0.000481376
0.000163981
0.000152105
0.000144583
0.000140208
0.000136761
0.000133773
0.000130676
0.000125837
0.000114414
8.86722e-05
5.76512e-05
4.20958e-05
4.18521e-05
5.48964e-05
0.000105943
0.000124086
0.000127825
0.000131874
0.000133383
0.000129212
0.000114927
9.3674e-05
7.42888e-05
5.79588e-05
4.4374e-05
3.88967e-05
3.98997e-05
5.15589e-05
0.00010053
0.000134787
0.000131356
0.000124542
0.000125049
0.000131241
0.000144399
0.000151375
0.000152433
0.000132929
0.000114389
0.000114817
0.000125823
0.000152693
0.000154609
0.000140959
0.000138137
0.000138903
0.000142368
0.00015423
0.000158784
0.000154893
0.000140612
0.000126321
0.000131569
0.000140814
0.000160773
0.000148738
5.27899e-05
3.7298e-05
6.01924e-05
0.000525296
0.000188027
0.000178028
0.000169904
0.000163336
0.000157206
0.000151315
0.000145663
0.000139551
0.000134695
0.000130928
0.000127858
0.000126283
0.000126864
0.00012935
0.000132075
0.000133593
0.000133927
0.000133379
0.000132601
0.000132136
0.000132201
0.000132856
0.000133437
0.000128611
0.0001139
0.000103759
0.000105702
0.000120042
0.000135633
0.000137678
0.000138859
0.000142427
0.000147485
0.000151916
0.000153857
0.000154188
0.000130328
0.000124604
0.000126453
0.000137584
0.000150034
0.000156749
0.000155465
0.000151755
0.000150313
0.000150678
0.000152042
0.000156016
0.000158174
0.000157074
0.000151997
0.000148846
0.000157599
0.000169758
0.000178027
0.00017904
6.7264e-05
3.36053e-05
5.87921e-05
0.00070867
0.000205373
0.000197674
0.000191668
0.000186853
0.000181678
0.000175993
0.000170066
0.00016412
0.000158873
0.000154358
0.000150821
0.000148606
0.000148
0.000149784
0.000149177
0.00014649
0.000143623
0.000140678
0.000138301
0.000136795
0.000135717
0.00013495
0.000134576
0.000134596
0.000135192
0.000136701
0.000138999
0.000141429
0.000143394
0.000145501
0.000148369
0.00015092
0.000153046
0.000154808
0.000155821
0.000154829
0.000152698
0.000152765
0.000154675
0.00015638
0.000156865
0.000155974
0.000155047
0.000154308
0.000154211
0.000153473
0.000149903
0.000145218
0.000142253
0.000141024
0.000143069
0.000148221
0.000155782
0.000165091
0.000172055
0.000185366
0.000105657
3.23437e-05
5.70515e-05
0.000795024
0.00024078
0.000223044
0.0002154
0.000210465
0.000205721
0.000200836
0.000195846
0.000190898
0.000186421
0.000182487
0.000179091
0.000176164
0.000173843
0.000175448
0.000172672
0.00016941
0.000166318
0.000163427
0.000160765
0.000158252
0.000155839
0.000153586
0.00015152
0.000149643
0.000147843
0.000146947
0.000147901
0.00015007
0.00015293
0.000156037
0.000158874
0.000161371
0.000163631
0.000165996
0.000169031
0.000172009
0.000173094
0.000172575
0.000170889
0.000168174
0.000163828
0.000160905
0.000158785
0.000157228
0.000156172
0.000153784
0.000151693
0.000150578
0.000145955
0.000137687
0.000135516
0.000134283
0.000148778
0.000164933
0.000171265
0.000180992
0.00015258
4.19763e-05
5.50223e-05
0.000762715
0.000319605
0.00029064
0.0002652
0.000248281
0.000235682
0.000227022
0.000219716
0.000213441
0.00020783
0.00020299
0.000199523
0.00019743
0.000195246
0.000195829
0.000193398
0.000191046
0.000188686
0.000186149
0.000183323
0.000180182
0.000176787
0.00017325
0.00016962
0.000165834
0.000161809
0.000158462
0.000157879
0.000159343
0.00016221
0.000165413
0.000168356
0.000171278
0.000174908
0.000180775
0.000191469
0.000203948
0.000206
0.000205065
0.000202566
0.000198315
0.000192745
0.000187886
0.000183202
0.000178443
0.000173341
0.000167706
0.000161559
0.000154612
0.000146323
0.00013154
0.000113237
0.000107578
0.000111325
0.000136736
0.000162548
0.000166821
0.000147977
7.72532e-05
5.3068e-05
0.000678739
0.000324054
0.00031417
0.000309614
0.000303339
0.000296908
0.000289475
0.000282329
0.000274702
0.000266158
0.000256655
0.000247237
0.000239464
0.000233258
0.00022867
0.000222017
0.000214871
0.000207904
0.000201801
0.000196736
0.000192394
0.000188434
0.000184566
0.000180589
0.000176282
0.000171417
0.000167424
0.00016614
0.000167445
0.000170785
0.000175346
0.000181892
0.00019298
0.000210902
0.00023196
0.000244204
0.00024288
0.000235644
0.000227047
0.000218291
0.000209692
0.000201399
0.00019351
0.000185955
0.000178569
0.000171342
0.000164201
0.000156984
0.000149571
0.000142265
0.000133806
0.000122266
0.000105449
9.41054e-05
8.83763e-05
9.90996e-05
0.000112993
0.000133883
8.49544e-05
5.17338e-05
0.000597597
0.000308537
0.000297362
0.000293668
0.000289461
0.000286249
0.000282107
0.000279398
0.000277192
0.000276614
0.000276369
0.000275486
0.000272324
0.000267292
0.000261484
0.000256265
0.000252308
0.000249273
0.000245981
0.000240275
0.000230098
0.000215929
0.000201597
0.000190433
0.000183155
0.000178253
0.000175655
0.000176836
0.000184027
0.000200727
0.000230096
0.000266257
0.00028916
0.000291837
0.000283245
0.000271064
0.00025854
0.000246697
0.00023547
0.000224838
0.000214755
0.000205194
0.000196081
0.000187168
0.000178306
0.000169629
0.000161176
0.000152918
0.000145116
0.000138066
0.00013181
0.000127018
0.000122696
0.000109939
9.81297e-05
9.7451e-05
8.95578e-05
0.00011842
5.51944e-05
5.15292e-05
0.000501402
0.000292
0.000276326
0.000270608
0.000265446
0.000261794
0.000257883
0.000255137
0.000252925
0.000251919
0.000251362
0.00025062
0.000248522
0.00024515
0.000241175
0.000237658
0.000235263
0.000234208
0.000234562
0.000236316
0.000239808
0.000245515
0.000254537
0.000266789
0.000279127
0.000282377
0.000286862
0.000297274
0.000310105
0.000320383
0.000327426
0.000331982
0.000334543
0.000335069
0.00033318
0.000328347
0.000320175
0.000309298
0.000296679
0.000282247
0.000266152
0.000248736
0.000230393
0.000211614
0.000193621
0.000177583
0.000163901
0.000152254
0.00014314
0.000136042
0.000131081
0.000128523
0.000129001
0.00012956
0.000126726
0.000111406
0.000104669
9.85004e-05
3.66038e-05
4.78566e-05
0.000313218
0.000283956
0.00025025
0.000239432
0.000231828
0.000226867
0.000222875
0.000219652
0.000217019
0.000214887
0.000213233
0.000211903
0.000210771
0.000209702
0.000208672
0.000207733
0.000207024
0.000206687
0.000206847
0.000207575
0.000208925
0.000210941
0.000213653
0.000217081
0.000221181
0.000225804
0.000230456
0.000235002
0.000239492
0.000244009
0.000248637
0.000253368
0.000258075
0.000262689
0.000267081
0.000270992
0.000274123
0.000276037
0.000276451
0.000275255
0.000272523
0.000268582
0.00026412
0.000259959
0.00025617
0.000251838
0.000245702
0.000240123
0.000235738
0.000231331
0.000223313
0.000208242
0.00018845
0.00017087
0.000159189
0.000153331
9.0168e-05
3.1207e-05
2.90248e-05
3.29307e-05
0.000325327
0.0002885
0.000251998
0.000239909
0.000231578
0.000226729
0.000222654
0.000219741
0.000217319
0.000215376
0.000213859
0.000212541
0.000211512
0.000210526
0.00020976
0.000209109
0.000208811
0.000208843
0.000209349
0.000210312
0.000211752
0.000213639
0.000215968
0.000218729
0.000221931
0.000225558
0.000229622
0.000234093
0.000238991
0.000244301
0.000250097
0.000256218
0.000262353
0.00026838
0.000274176
0.00027951
0.000284015
0.000287114
0.000288228
0.00028689
0.000283056
0.000277266
0.000270543
0.000264148
0.000258985
0.000255145
0.000252624
0.000251291
0.000248835
0.000239991
0.0002206
0.00019542
0.000172334
0.000156258
0.000148317
0.000146359
0.00012246
5.05058e-05
3.01467e-05
3.18406e-05
0.000525831
0.000297136
0.000279365
0.000272471
0.000267551
0.00026481
0.000262023
0.000260904
0.000259628
0.00025957
0.000259374
0.000259325
0.000258175
0.000256717
0.000254576
0.000253503
0.000253357
0.000254775
0.000257442
0.000261103
0.000265459
0.000269966
0.000275109
0.000280884
0.000287247
0.000294065
0.000300674
0.000306545
0.000311164
0.000315008
0.000318888
0.000322454
0.000325611
0.000328489
0.000331314
0.000333144
0.000331593
0.000324838
0.000314273
0.000300691
0.00028505
0.000268051
0.000250289
0.000232339
0.000214909
0.000198692
0.000184107
0.000173962
0.000166805
0.000161917
0.000159431
0.000158356
0.000155436
0.000148947
0.000142464
0.000129846
0.000107182
9.37016e-05
3.79607e-05
4.53401e-05
0.000639807
0.000316967
0.000303031
0.000298461
0.000295236
0.000293845
0.000292153
0.000292747
0.000292828
0.00029529
0.000297088
0.000298893
0.000297994
0.000295355
0.000291244
0.000288597
0.000286763
0.000285393
0.000282417
0.000276391
0.000267724
0.000259138
0.00025179
0.000245837
0.000241198
0.000237214
0.000234371
0.000233967
0.000234076
0.000234205
0.000236421
0.000241181
0.000249559
0.000260395
0.000267452
0.000266244
0.000259224
0.00025074
0.000241532
0.000232042
0.00022239
0.00021255
0.000202499
0.000192404
0.000182562
0.000173383
0.000165213
0.000158235
0.000152462
0.000147834
0.000145482
0.000145203
0.000146099
0.000145922
0.0001359
0.000108174
9.85803e-05
0.000112826
5.98857e-05
4.78798e-05
0.00073481
0.000336203
0.000324752
0.000322264
0.00031949
0.000317599
0.000312921
0.000306279
0.000294247
0.000277969
0.000260787
0.000245558
0.000234087
0.000225505
0.000218869
0.000213468
0.000209196
0.000205785
0.000202928
0.00020019
0.000197113
0.000194989
0.000193677
0.000192553
0.000191316
0.000190152
0.00018925
0.00018879
0.000188636
0.000188485
0.000187562
0.000186469
0.000186422
0.000189067
0.000196037
0.000203792
0.00020755
0.000207204
0.000203668
0.000198831
0.000193199
0.00018717
0.000180951
0.000174632
0.000168392
0.000162296
0.000156447
0.000150908
0.000145575
0.000140626
0.000136138
0.000131286
0.000123043
0.000117984
0.000100541
9.7265e-05
9.7171e-05
0.000123541
9.81724e-05
4.72716e-05
0.000808066
0.000348158
0.000324967
0.000296017
0.000266931
0.000245075
0.000232559
0.000224619
0.000219781
0.000216435
0.000213947
0.000211594
0.000208988
0.000206048
0.000202851
0.000199386
0.000195627
0.000191583
0.00018738
0.000183166
0.000179299
0.000176494
0.00017442
0.000172815
0.000171576
0.000170674
0.000170145
0.000169964
0.000170116
0.00017047
0.000170761
0.000170651
0.000170389
0.000170876
0.000172202
0.000173021
0.000173561
0.000174177
0.000174302
0.000174888
0.000175444
0.000175755
0.000175691
0.000173429
0.000168869
0.000163336
0.000156699
0.000145072
0.00013001
0.00012049
0.000113064
0.000105073
0.000102468
0.000104712
0.000116985
0.000142558
0.000157084
0.000161476
7.65317e-05
5.11517e-05
0.00087583
0.000258855
0.000214057
0.000199036
0.000193908
0.00019175
0.000191503
0.00019235
0.000193746
0.000195596
0.000197362
0.000198082
0.000197089
0.000194178
0.000190078
0.000185565
0.000180879
0.000176087
0.000171338
0.000166805
0.000162733
0.000159639
0.000157328
0.000155573
0.000154297
0.000153427
0.000152937
0.000152731
0.000152834
0.00015323
0.00015386
0.000154607
0.00015526
0.000155981
0.000156812
0.000157383
0.000157449
0.000157388
0.000156843
0.000156178
0.000155215
0.00015375
0.000151903
0.0001508
0.000153104
0.000154231
0.000147907
0.000143606
0.000140035
0.000133416
0.00012649
0.000119677
0.00011148
0.000114813
0.000135492
0.000152263
0.000161408
0.000159432
4.51639e-05
5.39507e-05
0.000863687
0.000186817
0.000177745
0.00017347
0.00017128
0.000170273
0.000170219
0.000170699
0.00017127
0.000172241
0.000173758
0.000175462
0.000176496
0.000175445
0.000172562
0.000169071
0.000165363
0.000161467
0.000157594
0.000153919
0.000150667
0.000148182
0.000146376
0.000145027
0.000144097
0.000143529
0.000143215
0.000143007
0.000142879
0.000142903
0.000143162
0.000143672
0.00014423
0.000144652
0.000144726
0.000144372
0.000143448
0.000142469
0.000140892
0.000139187
0.000137554
0.000135802
0.000134506
0.000133311
0.000132149
0.000132173
0.000137671
0.000147243
0.000149753
0.000147569
0.000143715
0.000139656
0.00013629
0.000140151
0.000152051
0.000159626
0.000167626
0.000129507
3.01265e-05
5.47662e-05
0.000664255
0.000176685
0.000167661
0.000163377
0.000160044
0.000157114
0.000154627
0.000152597
0.000150742
0.00014915
0.000148022
0.00014746
0.000148667
0.000150616
0.000151514
0.000151466
0.000150978
0.000149781
0.000147868
0.000145538
0.00014324
0.000141164
0.000139654
0.000138667
0.000138121
0.000137923
0.000137955
0.000138056
0.000138112
0.00013815
0.000138231
0.00013845
0.000138883
0.000139543
0.00014019
0.000140451
0.000140072
0.000139145
0.000137638
0.000135322
0.000132633
0.000129633
0.000126548
0.000123999
0.000122409
0.00012183
0.000122208
0.000124405
0.000128242
0.000132198
0.000135344
0.000138909
0.000144029
0.000151195
0.000157564
0.000162388
0.000168279
7.32101e-05
2.91315e-05
5.72583e-05
0.000466658
0.000167129
0.000155521
0.000149717
0.000145512
0.000141527
0.000137858
0.000134487
0.000132411
0.000130801
0.000129221
0.000128
0.000127583
0.000128527
0.000130678
0.000133123
0.000135789
0.000138243
0.000139997
0.000140979
0.000141173
0.000140364
0.000139347
0.000138719
0.00013847
0.000138529
0.000138868
0.000139387
0.00013985
0.00014005
0.000139899
0.000139542
0.000139315
0.000139429
0.000139849
0.000139974
0.000140035
0.00014047
0.00014069
0.000140274
0.000139684
0.000139333
0.000139135
0.000138956
0.00013838
0.000137302
0.000136259
0.000135228
0.000133266
0.000130188
0.00012751
0.000126227
0.000127202
0.000132436
0.000144621
0.00015515
0.000146096
5.1548e-05
3.30391e-05
6.01731e-05
0.00039329
0.000138427
0.000128804
0.00012486
0.000122763
0.00012043
0.000119433
0.000118411
0.000117907
0.000118568
0.000120036
0.000119966
0.000119307
0.000119925
0.000121766
0.000120904
0.000121085
0.000123659
0.0001268
0.000129392
0.000131604
0.000133831
0.000135042
0.000132766
0.000128635
0.000125331
0.000124187
0.000125453
0.000127432
0.000128125
0.000128403
0.000129741
0.000133002
0.000138223
0.000141959
0.000142587
0.000142843
0.00014264
0.000141108
0.000137709
0.000132253
0.000125163
0.000116664
0.000107428
9.96595e-05
9.52819e-05
9.3807e-05
9.37008e-05
9.476e-05
9.83947e-05
0.000106937
0.000125571
0.000138478
0.00013582
0.000129042
0.000120289
0.000101684
4.12811e-05
3.95866e-05
6.29188e-05
0.000444936
0.000158026
0.000130839
0.000127924
0.000127327
0.000124465
0.000118856
0.000106444
8.65166e-05
7.59485e-05
7.44734e-05
7.15062e-05
6.91e-05
7.40368e-05
8.89679e-05
0.000103708
0.000104783
0.000102464
9.3039e-05
7.85592e-05
7.89839e-05
0.000106172
0.000134924
0.000138797
0.000139841
0.000140809
0.000142366
0.000144274
0.000145759
0.000146548
0.000147185
0.000147665
0.000148631
0.000150113
0.000150926
0.00015121
0.000150557
0.000147748
0.000144433
0.000142358
0.00014131
0.000140384
0.000138314
0.000134095
0.000127857
0.000119991
0.00011288
0.000110423
0.000111413
0.000115274
0.000123669
0.000140824
0.000148811
0.00014983
0.000149916
0.000144739
0.000129128
4.86781e-05
4.25544e-05
6.3369e-05
0.000494119
0.000179925
0.000137883
0.000132287
0.000132047
0.000131498
0.000128368
0.000116741
9.53104e-05
7.14133e-05
4.85547e-05
3.48994e-05
3.22932e-05
3.33671e-05
3.46589e-05
3.34594e-05
2.84888e-05
2.48011e-05
2.44138e-05
2.50154e-05
3.2461e-05
9.23585e-05
0.000133433
0.000129931
0.000134275
0.00013785
0.000137651
0.000137825
0.000140272
0.000145384
0.000149264
0.000149467
0.000139436
0.000139339
0.000140952
0.000143118
0.00014866
0.000145946
0.000143132
0.000144637
0.000145513
0.000145215
0.000143686
0.00014072
0.000135075
0.000127785
0.000125807
0.000127438
0.000132691
0.000142986
0.000157559
0.000162796
0.000157569
0.000148171
0.000158238
0.000182307
0.000173448
5.04636e-05
4.07563e-05
6.31084e-05
0.000500068
0.000152671
0.000132609
0.000127175
0.000130555
0.000133071
0.000135457
0.000136523
0.000132136
0.000119871
0.000101417
8.86789e-05
9.05886e-05
9.75672e-05
9.68678e-05
7.59154e-05
4.83534e-05
3.35278e-05
2.96185e-05
2.96974e-05
3.55918e-05
5.40407e-05
7.19869e-05
9.28549e-05
0.000124004
0.000139656
0.000140798
0.000141465
0.000142887
0.000145383
0.000148661
0.000150026
0.000149317
0.000141676
0.000140248
0.000147456
0.0001555
0.000155328
0.000150129
0.00014894
0.000149294
0.00014998
0.000150503
0.000151108
0.00015065
0.000148107
0.000141028
0.000135587
0.000136719
0.000142669
0.000153279
0.000155817
0.000138886
0.000127402
0.000145498
0.000182589
0.000178004
5.04858e-05
4.06259e-05
6.30834e-05
0.000494264
0.000153763
0.000144483
0.000138928
0.000140733
0.000140747
0.000141393
0.000140874
0.00013916
0.000136746
0.000135848
0.000136445
0.000138327
0.000140369
0.000140103
0.000134743
0.000119374
9.51755e-05
6.98584e-05
4.78187e-05
3.83467e-05
3.77196e-05
4.21424e-05
6.3582e-05
0.000123061
0.000151122
0.000153192
0.00015432
0.000155032
0.000155215
0.000155119
0.000154746
0.00015409
0.000153562
0.000152734
0.000151508
0.000150841
0.000151623
0.000152788
0.000153185
0.000152732
0.000152231
0.000151927
0.000152006
0.000151906
0.00015107
0.000149384
0.000145785
0.000142725
0.000143802
0.000148589
0.000151974
0.000146885
0.00014506
0.000153813
0.000174052
0.000167912
4.92114e-05
3.9069e-05
6.19313e-05
0.000442705
0.000163739
0.000155625
0.000150717
0.000151936
0.000150342
0.000149862
0.000148872
0.000147585
0.000145749
0.000143597
0.000142656
0.000143926
0.000147027
0.000149539
0.000150061
0.000147459
0.000138841
0.00011121
7.17874e-05
5.37299e-05
5.32369e-05
6.35753e-05
0.000103287
0.000146343
0.000151983
0.000153505
0.000154345
0.000154727
0.000154905
0.000154879
0.000154443
0.000152183
0.000147837
0.000144248
0.000141698
0.000139992
0.00014561
0.000153193
0.000151796
0.000148966
0.000146983
0.000145143
0.000143749
0.000143404
0.000144177
0.000146206
0.000149199
0.000151234
0.000152062
0.000151013
0.000148389
0.00014672
0.000147854
0.000161569
0.00018365
0.000204288
4.602e-05
3.48826e-05
5.99411e-05
0.000408984
0.000188122
0.000185455
0.000177999
0.000171361
0.00016575
0.000161839
0.000158686
0.000155524
0.000152816
0.000151472
0.0001511
0.000152668
0.000155182
0.00015661
0.000156386
0.000153751
0.000148207
0.000137924
0.000122353
0.000116434
0.000120619
0.000132922
0.000138935
0.000139602
0.000139217
0.000140503
0.000143024
0.000143798
0.000141874
0.000133539
0.000136986
0.000147877
0.00014926
0.00014269
0.000128739
0.000129421
0.000143789
0.000151683
0.00015073
0.000143668
0.000125009
0.000123802
0.000122265
0.000124683
0.000135483
0.000149402
0.000152036
0.000153674
0.000155445
0.000153581
0.00014142
0.00012014
0.000141022
0.000185105
0.000197436
0.000199228
5.69764e-05
3.04992e-05
5.8451e-05
0.000473209
0.00019133
0.000181965
0.00017335
0.000166704
0.000161341
0.000157637
0.000154836
0.00015249
0.000150419
0.000148795
0.000148662
0.000149985
0.000151612
0.000151753
0.000150692
0.000148835
0.000145971
0.000141207
0.000137963
0.000138652
0.000137515
0.000137788
0.00013974
0.000141898
0.00014359
0.000144623
0.000144853
0.000143479
0.000139509
0.000139806
0.000143572
0.000148321
0.000148674
0.000145123
0.000144392
0.000146486
0.000149834
0.000150696
0.000149137
0.000144051
0.000138778
0.000139649
0.000140911
0.00014062
0.000141167
0.000142196
0.000143462
0.000142864
0.00013851
0.000134838