/*--------------------------------*- C++ -*----------------------------------*\
| =========                 |                                                 |
| \\      /  F ield         | OpenFOAM: The Open Source CFD Toolbox           |
|  \\    /   O peration     | Version:  2.1.1                                 |
|   \\  /    A nd           | Web:      www.OpenFOAM.org                      |
|    \\/     M anipulation  |                                                 |
\*---------------------------------------------------------------------------*/
FoamFile
{
    version     2.0;
    format      ascii;
    class       volVectorField;
    location    "0.00145";
    object      U;
}
// * * * * * * * * * * * * * * * * * * * * * * * * * * * * * * * * * * * * * //

dimensions      [0 1 -1 0 0 0 0];

internalField   nonuniform List<vector> 
36520
(
(-0.518255 -0.9593 -0.913269)
(-0.245523 -0.302886 -0.121032)
(-1.4522 -0.014047 0.157666)
(-1.85007 0.299836 0.117842)
(-2.27393 0.44884 0.0953097)
(-2.53317 0.572902 0.0772165)
(-2.78145 0.686693 0.0774)
(-3.0266 0.793884 0.0808824)
(-3.31006 0.904445 0.0939947)
(-3.64407 0.996703 0.103789)
(-3.99382 1.03286 0.103085)
(-4.32833 1.0318 0.0886891)
(-4.58337 0.98335 0.0687325)
(-4.77016 0.943004 0.0480044)
(-4.87749 0.939488 0.0400615)
(-5.01233 1.02504 0.0533487)
(-5.24257 1.18216 0.0879894)
(-5.66176 1.37362 0.135992)
(-6.27436 1.52456 0.183488)
(-7.05056 1.57801 0.218598)
(-7.92273 1.48543 0.228729)
(-8.79894 1.21378 0.214737)
(-9.51872 0.726536 0.148213)
(-9.88007 0.0733932 0.0335235)
(-9.75127 -0.612636 -0.0985426)
(-9.14203 -1.17275 -0.215471)
(-8.19389 -1.46289 -0.284504)
(-7.18866 -1.40267 -0.27441)
(-6.41641 -1.06713 -0.208036)
(-6.00883 -0.660837 -0.137453)
(-5.87323 -0.320408 -0.0889294)
(-5.8768 -0.0787964 -0.0628655)
(-5.92005 0.0854188 -0.052578)
(-5.96372 0.209399 -0.0466136)
(-5.99516 0.319495 -0.0390984)
(-6.02295 0.428901 -0.0321232)
(-6.05488 0.549866 -0.0237858)
(-6.10645 0.688665 -0.0171603)
(-6.18146 0.844284 -0.0133958)
(-6.28915 1.01931 -0.0133434)
(-6.42448 1.20468 -0.0161857)
(-6.57057 1.38294 -0.0170897)
(-6.74544 1.53326 -0.0024648)
(-6.9852 1.62207 0.0372248)
(-7.29453 1.60981 0.107911)
(-7.7058 1.50397 0.220211)
(-8.27259 1.28223 0.372666)
(-8.96734 0.86437 0.571098)
(-9.85941 0.251657 0.818782)
(-11.1172 -0.63481 1.20434)
(-13.0846 -1.98657 1.90145)
(-16.1647 -4.46079 2.38043)
(-20.0636 -10.2471 3.33096)
(-27.3922 -23.2721 4.07571)
(-40.2026 -34.0042 -0.664921)
(-45.6933 -30.0395 -7.40274)
(-47.5247 -27.9568 -9.89305)
(-32.9313 -20.9758 -11.234)
(-18.2936 -16.1897 -8.87023)
(5.49372 -14.7203 -7.24744)
(-2.22125 -0.875085 -0.762475)
(-2.78318 0.184266 0.0336115)
(-3.61881 0.260913 0.307389)
(-3.9919 0.572105 0.223924)
(-4.38925 0.593466 0.204024)
(-4.63035 0.740185 0.161126)
(-4.8762 0.797089 0.172659)
(-5.13349 0.897962 0.182829)
(-5.42594 0.987534 0.225522)
(-5.76996 1.06917 0.249517)
(-6.14017 1.09298 0.256169)
(-6.49014 1.08088 0.220417)
(-6.76751 1.00547 0.170454)
(-6.96223 0.94282 0.121319)
(-7.06771 0.908967 0.109692)
(-7.19551 0.980801 0.142504)
(-7.40922 1.12111 0.232274)
(-7.81304 1.30873 0.351804)
(-8.4054 1.45467 0.479169)
(-9.15678 1.51054 0.575714)
(-10.005 1.41896 0.618278)
(-10.8532 1.13942 0.587958)
(-11.5478 0.625197 0.41636)
(-11.8786 -0.0829511 0.111162)
(-11.707 -0.821726 -0.239428)
(-11.0656 -1.42426 -0.559655)
(-10.0804 -1.72602 -0.748283)
(-9.06948 -1.64404 -0.735483)
(-8.31448 -1.25529 -0.56102)
(-7.94214 -0.808856 -0.3718)
(-7.82729 -0.450746 -0.24221)
(-7.83663 -0.203748 -0.170239)
(-7.8697 -0.0399958 -0.133924)
(-7.89977 0.0828044 -0.106423)
(-7.91731 0.191891 -0.07317)
(-7.93487 0.300644 -0.0394526)
(-7.96015 0.420694 -0.00742869)
(-8.00566 0.555873 0.0218119)
(-8.07885 0.708296 0.0474547)
(-8.18591 0.870971 0.0700756)
(-8.31224 1.02308 0.100333)
(-8.42366 1.14629 0.153746)
(-8.5124 1.22473 0.242998)
(-8.5957 1.25873 0.361857)
(-8.68919 1.23564 0.496117)
(-8.86317 1.14825 0.664702)
(-9.13438 0.936459 0.901765)
(-9.52659 0.592424 1.273)
(-10.1137 0.114808 1.82657)
(-10.9776 -0.563372 2.59601)
(-12.1985 -1.50989 3.39673)
(-13.4878 -3.12487 4.38463)
(-12.2863 -6.35271 4.74479)
(-6.31068 -11.876 4.05888)
(0.877093 -18.2774 2.4485)
(7.29149 -24.3403 0.663636)
(-0.972977 -23.3292 -2.23918)
(1.19521 -18.6512 -9.43134)
(-12.9401 -15.7147 -9.35641)
(10.6782 -16.0729 -7.90679)
(-2.76728 -0.848139 -0.365102)
(-3.7721 0.268858 0.281173)
(-4.559 0.38431 0.489246)
(-4.92755 0.636363 0.368358)
(-5.22472 0.641273 0.345926)
(-5.44995 0.792759 0.264748)
(-5.66146 0.832104 0.294219)
(-5.88202 0.961893 0.303443)
(-6.1561 1.06743 0.375977)
(-6.48543 1.17269 0.409869)
(-6.85237 1.20995 0.411746)
(-7.19644 1.18297 0.343483)
(-7.45933 1.07913 0.252512)
(-7.62358 0.967631 0.168519)
(-7.70334 0.888518 0.144686)
(-7.79501 0.94763 0.201723)
(-7.96752 1.11945 0.352766)
(-8.32301 1.37204 0.553383)
(-8.86976 1.58939 0.753992)
(-9.57483 1.70135 0.908748)
(-10.386 1.63424 0.977328)
(-11.2223 1.35545 0.937911)
(-11.9276 0.77504 0.679014)
(-12.2651 -0.0699126 0.208956)
(-12.0812 -0.94539 -0.31654)
(-11.4259 -1.68188 -0.806849)
(-10.383 -2.06723 -1.11247)
(-9.29785 -1.95806 -1.0963)
(-8.52091 -1.46676 -0.842905)
(-8.18433 -0.933412 -0.576952)
(-8.11481 -0.53276 -0.40455)
(-8.15632 -0.273828 -0.316098)
(-8.20256 -0.108242 -0.273189)
(-8.23369 0.0136623 -0.241518)
(-8.24766 0.12822 -0.200864)
(-8.26414 0.247015 -0.15531)
(-8.28827 0.375403 -0.111484)
(-8.33437 0.520749 -0.0690993)
(-8.41402 0.688086 -0.035048)
(-8.53192 0.869328 -0.012087)
(-8.66928 1.0463 0.00589199)
(-8.78744 1.20535 0.0394033)
(-8.86869 1.33832 0.110719)
(-8.92629 1.45341 0.234678)
(-8.97539 1.52126 0.397004)
(-9.0582 1.53327 0.631062)
(-9.19743 1.48863 0.969918)
(-9.3764 1.37565 1.50497)
(-9.5637 1.18812 2.30952)
(-9.60981 0.720422 3.38649)
(-9.15721 -0.371393 4.39415)
(-7.3828 -2.02245 4.7258)
(-2.71849 -4.54019 3.21592)
(2.94483 -6.8098 -0.237343)
(6.88044 -8.70377 -4.7271)
(12.3479 -8.49692 -5.83941)
(11.0128 -7.57237 -6.29125)
(13.3044 -12.798 -6.96319)
(-12.368 -13.1802 -11.8015)
(10.1081 -14.1139 -11.311)
(-2.92085 -0.848638 0.204365)
(-4.09825 0.376432 0.515914)
(-4.92607 0.480313 0.577977)
(-5.26496 0.711669 0.441365)
(-5.48213 0.755378 0.413235)
(-5.68132 0.873359 0.325219)
(-5.83463 0.923265 0.356766)
(-6.0327 1.04788 0.372758)
(-6.29226 1.1712 0.464718)
(-6.64678 1.29336 0.506429)
(-7.04844 1.33794 0.510713)
(-7.41136 1.28978 0.415083)
(-7.66319 1.14792 0.294094)
(-7.78137 0.993792 0.217285)
(-7.79876 0.880721 0.228988)
(-7.80233 0.930546 0.334112)
(-7.89007 1.15566 0.51858)
(-8.15184 1.48843 0.7416)
(-8.5949 1.7907 0.955851)
(-9.17661 1.97001 1.1194)
(-9.83902 1.96314 1.18664)
(-10.553 1.70223 1.13751)
(-11.1962 1.04079 0.841179)
(-11.5313 -0.0124779 0.257298)
(-11.4053 -1.13808 -0.383647)
(-10.8618 -2.0654 -0.957363)
(-9.86276 -2.55228 -1.32461)
(-8.75235 -2.38098 -1.30914)
(-7.99136 -1.69964 -1.01158)
(-7.72405 -1.00698 -0.708973)
(-7.72829 -0.526005 -0.525764)
(-7.81995 -0.232127 -0.438977)
(-7.9009 -0.0463254 -0.401552)
(-7.96144 0.0946494 -0.371024)
(-8.00811 0.234572 -0.327189)
(-8.05889 0.376211 -0.265796)
(-8.11207 0.523143 -0.199851)
(-8.17724 0.683412 -0.139067)
(-8.26932 0.858916 -0.0954304)
(-8.3959 1.03767 -0.0781562)
(-8.52337 1.19881 -0.0704335)
(-8.60106 1.33223 -0.0540445)
(-8.59466 1.45234 0.00476446)
(-8.49564 1.59882 0.112203)
(-8.27659 1.72857 0.2095)
(-7.94148 1.81093 0.372438)
(-7.42506 1.86404 0.687611)
(-6.72926 1.84976 1.2687)
(-5.94658 1.74334 2.15913)
(-5.01542 1.69668 3.19143)
(-3.19582 1.5895 3.95193)
(0.0864302 0.359768 4.25305)
(3.2282 -2.17186 3.12828)
(7.35191 -4.42923 0.453124)
(9.37272 -6.82957 -2.65108)
(13.2318 -6.45001 -4.0704)
(14.1301 -4.6388 -4.87943)
(15.4937 -7.25862 -4.12519)
(-9.37869 -9.69984 -9.51327)
(9.04431 -13.62 -13.3092)
(-2.90041 -0.462209 0.851553)
(-4.23847 0.503364 0.817362)
(-5.00039 0.547212 0.786722)
(-5.32662 0.760678 0.553817)
(-5.55383 0.816852 0.536351)
(-5.76272 0.915154 0.443926)
(-5.91523 0.993772 0.454433)
(-6.09209 1.16024 0.483944)
(-6.33705 1.34737 0.573914)
(-6.67043 1.5384 0.6211)
(-7.05453 1.60804 0.582102)
(-7.3851 1.52712 0.418924)
(-7.57691 1.32275 0.261953)
(-7.58673 1.07573 0.210801)
(-7.44485 0.905372 0.304955)
(-7.26196 0.942338 0.494595)
(-7.12525 1.23674 0.726827)
(-7.10231 1.67826 0.93493)
(-7.16931 2.10062 1.09132)
(-7.22687 2.33487 1.18632)
(-7.23546 2.40666 1.22034)
(-7.19614 2.18904 1.16646)
(-7.17142 1.4382 0.908991)
(-7.25569 0.13547 0.347357)
(-7.49552 -1.37123 -0.279993)
(-7.64522 -2.56538 -0.781458)
(-7.29615 -3.20707 -1.14251)
(-6.47918 -2.91882 -1.17901)
(-5.88955 -1.96901 -0.976342)
(-5.75769 -1.08149 -0.763827)
(-5.85298 -0.525205 -0.649725)
(-5.98569 -0.208551 -0.610716)
(-6.10248 -0.0178198 -0.606659)
(-6.22654 0.121738 -0.593143)
(-6.37912 0.268299 -0.563381)
(-6.56457 0.451831 -0.498381)
(-6.74809 0.647562 -0.424238)
(-6.94472 0.849458 -0.361429)
(-7.1602 1.06748 -0.329824)
(-7.40919 1.30836 -0.36238)
(-7.68492 1.55146 -0.431338)
(-7.94181 1.79877 -0.516214)
(-8.14356 2.09603 -0.595787)
(-8.25188 2.47211 -0.618379)
(-8.16274 2.7714 -0.662872)
(-7.93823 2.98503 -0.627521)
(-7.49588 3.1264 -0.399145)
(-6.75479 3.29708 0.0761547)
(-5.65741 3.65275 0.804902)
(-4.00356 4.1527 1.6417)
(-1.90562 4.44122 2.3885)
(0.798749 4.15331 2.95546)
(4.57346 2.00698 2.15694)
(9.04711 -1.84064 -0.8327)
(9.31572 -6.47721 -3.96674)
(11.2057 -7.96488 -5.72685)
(14.5133 -4.88084 -4.46351)
(15.1113 -5.66053 -3.55321)
(1.2973 -7.2247 -7.26858)
(8.97797 -13.1831 -14.2968)
(-3.24274 -0.178543 1.2125)
(-4.49647 0.671341 0.933977)
(-5.164 0.732879 0.829421)
(-5.43828 0.896341 0.569475)
(-5.59767 1.01145 0.545423)
(-5.75186 1.10059 0.451365)
(-5.83236 1.19644 0.464869)
(-5.91677 1.38746 0.507552)
(-6.05846 1.60778 0.60559)
(-6.29688 1.83845 0.620346)
(-6.57532 1.88341 0.516567)
(-6.73932 1.73494 0.266917)
(-6.67726 1.41875 0.0891911)
(-6.38883 1.08677 0.102704)
(-5.93769 0.849438 0.329673)
(-5.43762 0.846434 0.649855)
(-4.91084 1.19822 0.901305)
(-4.30208 1.75588 1.01314)
(-3.65748 2.31688 0.996417)
(-2.87286 2.71696 0.894433)
(-1.87893 2.91633 0.747347)
(-0.743332 2.84597 0.584931)
(0.414857 2.16475 0.353608)
(1.20863 0.699167 0.0299924)
(1.05015 -1.18039 -0.263007)
(0.210877 -2.9736 -0.355051)
(-0.775987 -4.07234 -0.365735)
(-0.952956 -3.74796 -0.532495)
(-0.753836 -2.44311 -0.701633)
(-0.834631 -1.30601 -0.733941)
(-1.03472 -0.677381 -0.751312)
(-1.1563 -0.371094 -0.767546)
(-1.19819 -0.215206 -0.75884)
(-1.25332 -0.108552 -0.706424)
(-1.35087 0.00352116 -0.635059)
(-1.58829 0.187439 -0.572261)
(-1.82218 0.405649 -0.529447)
(-2.10148 0.650997 -0.493257)
(-2.42292 0.930245 -0.501982)
(-2.8378 1.19045 -0.617425)
(-3.41725 1.42841 -0.799466)
(-4.04149 1.62693 -0.993437)
(-4.67794 1.85391 -1.12586)
(-5.29314 2.32199 -1.17177)
(-5.46529 2.7456 -1.26845)
(-5.53044 3.08147 -1.37708)
(-5.52161 3.51468 -1.44827)
(-5.39843 4.08534 -1.35627)
(-4.99603 4.87146 -1.1662)
(-4.20941 5.82275 -0.839953)
(-2.52608 6.27089 -0.463896)
(-0.485005 6.07155 -0.631656)
(2.95487 4.43796 -1.75654)
(7.55383 0.505668 -2.3999)
(5.97677 -3.69703 -3.2638)
(4.08188 -8.83654 -5.72875)
(2.28177 -10.1161 -4.88999)
(8.00463 -6.44057 -2.27812)
(3.6998 -6.63858 -5.51545)
(6.40345 -12.874 -11.8326)
(-3.58674 1.86263 2.02787)
(-4.60494 0.92277 1.12519)
(-5.1792 0.883276 0.987751)
(-5.34554 0.935678 0.706595)
(-5.37934 1.10577 0.672683)
(-5.35792 1.17899 0.538678)
(-5.2126 1.29262 0.505315)
(-5.00847 1.49844 0.507767)
(-4.82246 1.78581 0.560711)
(-4.69193 2.05705 0.536564)
(-4.5285 2.07254 0.328448)
(-4.18644 1.79737 -0.0217021)
(-3.6629 1.30594 -0.242421)
(-2.98269 0.796602 -0.0914561)
(-2.19769 0.396164 0.364652)
(-1.3837 0.281828 0.914287)
(-0.502206 0.655838 1.19307)
(0.52737 1.48365 1.10821)
(1.69142 2.23325 0.760673)
(3.045 2.77312 0.266326)
(4.6543 3.14022 -0.244248)
(6.37965 3.3614 -0.635005)
(8.32846 3.01796 -0.841998)
(10.16 1.71085 -0.788424)
(10.6018 -0.0997319 -0.664675)
(9.35016 -2.05578 -0.339542)
(7.18941 -3.69375 0.363042)
(5.88708 -3.87352 0.779606)
(5.59345 -2.69986 0.377726)
(5.20455 -1.37079 -0.280733)
(4.63451 -0.625069 -0.700518)
(4.15923 -0.259448 -0.943099)
(3.8883 -0.0639139 -1.06696)
(3.79709 0.069431 -1.02414)
(3.85597 0.167743 -0.860874)
(3.92223 0.248774 -0.654584)
(4.04812 0.336303 -0.464081)
(4.10982 0.47826 -0.300171)
(4.1105 0.673307 -0.195858)
(4.10879 0.866354 -0.227202)
(3.93158 1.01352 -0.336878)
(3.54026 1.2508 -0.587945)
(3.01703 1.39945 -0.939524)
(2.11121 1.5959 -1.40352)
(1.79585 1.91489 -1.96883)
(1.98757 2.32848 -2.46742)
(2.55528 2.89159 -3.00795)
(2.91276 3.27191 -3.29999)
(3.52211 3.79818 -3.36)
(3.83475 4.71363 -3.25019)
(4.69585 5.70925 -3.43061)
(5.97885 6.07235 -3.34282)
(7.41526 4.78989 -3.36023)
(7.18273 1.71048 -2.60967)
(5.37798 -2.26738 -2.80336)
(3.09396 -7.36072 -4.11329)
(-2.52409 -10.2511 -3.63176)
(-1.91003 -7.16171 -3.55857)
(6.53646 -6.94384 -6.55562)
(5.1746 -13.6143 -10.2235)
(-4.23822 1.29089 1.57998)
(-4.71702 0.801441 0.760027)
(-4.49869 1.06344 0.937353)
(-4.2592 1.15083 0.532297)
(-3.73327 1.29489 0.618414)
(-3.20313 1.29024 0.461264)
(-2.46905 1.3142 0.471185)
(-1.60412 1.47521 0.501914)
(-0.660707 1.76082 0.590277)
(0.292433 1.97143 0.489602)
(1.24859 1.85267 0.047709)
(2.33335 1.40071 -0.609439)
(3.40406 0.84395 -0.918576)
(4.51966 0.468516 -0.626662)
(5.69449 0.161144 0.200061)
(6.5366 -0.0725776 1.1101)
(7.31341 -0.0179178 1.58298)
(8.75642 0.45953 1.45481)
(10.9634 0.958298 0.822382)
(13.2986 1.34974 -0.0175568)
(15.1017 1.67192 -0.727668)
(16.1097 2.13432 -1.20749)
(16.7525 2.44028 -1.51042)
(17.4076 2.05516 -1.3551)
(17.6791 0.975844 -0.779577)
(16.685 -0.68653 -0.0716632)
(14.4703 -2.21242 0.518131)
(12.8895 -2.54413 0.90191)
(12.817 -2.08585 0.79931)
(12.7227 -1.33062 0.275046)
(12.1622 -0.877501 -0.194574)
(11.2715 -0.625182 -0.719571)
(10.3442 -0.423603 -1.06785)
(9.65176 -0.176074 -1.11146)
(9.31442 0.0751522 -1.05031)
(9.19649 0.261697 -0.907204)
(9.27975 0.388197 -0.643514)
(9.35792 0.535421 -0.344178)
(9.45246 0.662847 -0.110604)
(9.72527 0.743393 -0.0174468)
(9.92571 0.800882 -0.00315507)
(10.1728 0.860826 -0.0299648)
(10.4412 0.928913 -0.169753)
(10.4699 0.969676 -0.44297)
(10.1602 1.13328 -0.876904)
(9.56072 1.49871 -1.48833)
(8.98368 2.08008 -2.18142)
(8.41218 2.85642 -2.93472)
(8.22724 3.68626 -3.65837)
(8.48815 4.58136 -4.39776)
(9.39218 5.45836 -5.33986)
(10.4386 6.29057 -5.91628)
(11.1049 6.2213 -5.67937)
(12.3961 4.62865 -4.95259)
(13.4929 1.77088 -3.45962)
(11.6869 -2.66679 -1.81161)
(2.56782 -7.1433 -3.43978)
(3.25323 -7.97566 -5.81284)
(7.62001 -10.017 -6.71514)
(4.81587 -14.7036 -8.99288)
(-3.76195 18.131 4.15893)
(-4.52837 3.17443 0.874421)
(-2.99716 0.921387 1.06559)
(-1.9428 1.16439 0.434534)
(-0.315608 0.520437 0.567951)
(1.42751 0.176688 0.412886)
(2.9726 -0.0198307 0.391382)
(4.43019 -0.101286 0.362118)
(5.90328 -0.141204 0.345657)
(7.64701 -0.117504 0.26114)
(9.34608 -0.0418355 0.0502522)
(10.1171 0.203462 -0.339547)
(9.55814 0.414975 -0.728257)
(8.64025 0.512394 -0.843913)
(8.72598 0.48389 -0.383278)
(10.3191 0.515734 0.428319)
(12.7988 0.639528 0.796104)
(15.8256 0.601175 0.548368)
(18.6013 0.491426 0.0242724)
(20.2429 0.39198 -0.46537)
(20.8082 0.39235 -0.757316)
(20.8291 0.423695 -0.899066)
(20.4918 0.449204 -1.00926)
(19.6385 0.282473 -0.961277)
(19.015 -0.137665 -0.558966)
(18.7241 -0.50878 0.062078)
(18.7685 -0.704806 0.46486)
(19.1121 -0.635831 0.488489)
(19.7557 -0.4653 0.312956)
(20.1351 -0.338443 0.243018)
(20.122 -0.249023 0.268932)
(19.6772 -0.169988 0.270888)
(18.3948 0.00151992 0.0935032)
(16.6829 0.253394 -0.365083)
(15.5502 0.420704 -0.825916)
(15.1084 0.367018 -0.925477)
(15.0365 0.236727 -0.718026)
(15.113 0.144494 -0.267145)
(15.3143 0.194238 0.0494681)
(15.6985 0.188388 0.168346)
(16.2566 0.108045 0.193335)
(16.925 0.0446743 0.16617)
(17.6741 0.0230513 0.0739159)
(18.3136 0.0491745 -0.0360091)
(18.6312 0.110477 -0.173988)
(18.625 0.17894 -0.291575)
(18.4179 0.303485 -0.534187)
(18.0639 0.490967 -0.913138)
(17.7635 0.730527 -1.36248)
(17.488 1.10889 -1.95947)
(17.1232 1.66141 -2.8162)
(17.0238 2.57607 -3.86651)
(18.1318 3.41844 -4.91351)
(20.4342 2.75495 -5.07192)
(21.9149 1.84798 -3.54551)
(21.7894 -0.439211 -2.09119)
(16.787 -5.72276 -2.50894)
(15.288 -10.0837 -4.60361)
(9.0222 -11.288 -5.87732)
(5.05892 -14.7511 -7.17644)
(-2.41753 19.6534 7.18304)
(-3.43065 3.18685 1.99509)
(-1.14426 0.975448 0.987411)
(-0.136967 1.08427 0.087312)
(2.07267 0.763463 -0.0394818)
(4.15767 0.482505 -0.209096)
(6.4523 0.136824 -0.180754)
(8.75251 -0.11919 -0.059455)
(10.7122 -0.247749 0.147589)
(12.4962 -0.252738 0.324667)
(14.2234 -0.164079 0.37069)
(15.4687 -0.0721507 0.193656)
(15.4878 -0.066351 -0.0228782)
(14.3162 0.186175 -0.462304)
(13.3195 0.480677 -0.655174)
(13.6504 0.717824 -0.602632)
(15.737 0.731956 -0.643626)
(18.4159 0.759603 -0.696202)
(20.3565 0.714808 -0.556819)
(21.3175 0.454681 -0.337267)
(21.6589 0.11082 -0.238715)
(21.6922 -0.125279 -0.24282)
(21.5087 -0.212125 -0.292969)
(20.9155 -0.257036 -0.319285)
(20.1878 -0.285579 -0.3449)
(19.8652 -0.308934 -0.341206)
(19.9136 -0.276179 -0.29856)
(20.3498 -0.171769 -0.385158)
(20.9412 -0.106977 -0.383601)
(21.2819 -0.101764 -0.218066)
(21.348 -0.109764 -0.0418401)
(21.2747 -0.118954 0.138695)
(21.1136 -0.108441 0.259291)
(20.7811 -0.0322287 0.213078)
(19.8426 0.126561 -0.179759)
(18.4297 0.286529 -0.629847)
(17.6664 0.271631 -0.586429)
(17.6392 0.178078 -0.359646)
(18.0592 0.125177 -0.0114641)
(18.7169 0.0891091 0.168613)
(19.4259 0.0211336 0.175213)
(20.1426 -0.036154 0.12799)
(20.7576 -0.0447427 0.0672842)
(21.163 -0.0193653 0.0409962)
(21.2464 0.00549358 0.0383124)
(21.1791 0.00991824 0.0270439)
(21.0057 0.038527 -0.0575205)
(20.7775 0.103438 -0.281742)
(20.5718 0.180429 -0.532808)
(20.3587 0.27025 -0.796662)
(20.1802 0.476145 -1.29476)
(20.042 1.03191 -2.2151)
(20.6891 1.81769 -3.37411)
(21.9648 1.55152 -3.673)
(23.0508 0.694632 -2.52714)
(22.56 -0.667751 -2.04493)
(16.9505 -5.15939 -2.84229)
(16.13 -9.62376 -3.04897)
(10.0645 -11.2431 -4.01713)
(6.05682 -15.2226 -5.35148)
(-1.89072 11.6663 4.73821)
(-1.3699 0.540514 1.63431)
(2.59485 -0.118941 0.353849)
(3.32231 0.0147589 -0.216159)
(4.85973 0.0489229 -0.509946)
(5.94811 0.0819638 -0.722946)
(6.83699 0.156431 -0.743662)
(7.98023 0.245166 -0.574541)
(9.78271 0.36312 -0.328958)
(12.454 0.31846 -0.159839)
(15.9628 0.070286 0.0178948)
(18.2781 -0.0692979 0.274747)
(18.3532 -0.121807 0.447428)
(16.7837 0.0523637 0.595459)
(14.3677 0.326072 0.22779)
(14.265 0.441456 -0.603271)
(16.3769 0.424526 -1.51533)
(19.0731 0.271455 -1.67979)
(21.0011 0.16315 -1.1001)
(22.0931 0.064526 -0.45394)
(22.7036 -0.122734 -0.239265)
(23.0483 -0.228273 -0.216063)
(23.2215 -0.127744 -0.201058)
(23.2598 -0.10318 -0.225968)
(23.1292 -0.296187 -0.36565)
(22.3079 -0.42726 -0.604734)
(21.3449 -0.27726 -0.858648)
(21.1991 -0.102484 -1.0833)
(21.4487 0.0166291 -1.01625)
(21.8393 0.00832826 -0.525794)
(21.9125 -0.0313955 -0.137617)
(21.8331 -0.0446131 0.0838015)
(21.7273 -0.0319656 0.173322)
(21.5019 -0.0111041 0.146862)
(20.8724 -0.0520408 0.062437)
(19.2369 -0.136013 -0.0902307)
(17.6855 -0.120338 -0.273524)
(17.2922 -0.0192429 -0.32109)
(17.4339 0.0768211 -0.267816)
(18.1236 0.163436 -0.160849)
(19.031 0.174285 -0.0925527)
(19.9605 0.100478 -0.0580272)
(20.7371 0.0344714 -0.0278987)
(21.3595 0.0211471 0.00815322)
(21.6552 0.00565532 0.0552291)
(21.7003 -0.0266632 0.115178)
(21.6552 -0.0506908 0.142184)
(21.5728 -0.104032 0.101827)
(21.5214 -0.102373 0.0372462)
(21.5432 -0.0584978 0.0188926)
(21.7984 0.0401172 -0.0937598)
(22.0463 0.291456 -0.658109)
(22.4123 1.40028 -1.739)
(23.2445 1.71046 -1.7513)
(23.2735 1.20467 -1.28045)
(22.0999 0.692757 -1.48639)
(12.3205 -4.24552 -1.46471)
(14.8923 -9.66892 -2.29417)
(10.8635 -11.5988 -2.52912)
(4.77082 -15.194 -3.36535)
(-3.61477 2.10473 2.79931)
(-3.01046 -0.0968721 0.491145)
(-1.84334 0.243187 -0.324761)
(-1.85871 0.398584 -0.353043)
(-0.764336 0.530105 -0.407711)
(-0.00304374 0.572564 -0.408987)
(0.96486 0.747467 -0.315164)
(2.11224 1.18906 -0.112725)
(3.58625 1.63365 -0.00117374)
(5.35129 1.73727 -0.0669166)
(7.52711 1.29266 0.129556)
(9.53681 0.67457 0.784171)
(10.1343 0.147978 1.36387)
(10.2053 -0.0833291 1.41635)
(11.1943 0.132211 0.287646)
(13.5072 0.717183 -1.62457)
(15.832 1.11786 -2.73456)
(18.2801 1.08358 -2.82673)
(20.6162 0.651639 -2.2508)
(22.2454 0.326355 -1.34862)
(23.2712 0.445974 -0.434367)
(24.6745 0.295281 0.120939)
(25.9185 -0.293408 2.54027e-05)
(26.4121 -0.658438 -0.170086)
(26.4571 -0.87569 -0.317041)
(26.2006 -0.92375 -0.459531)
(25.4208 -0.84273 -0.672326)
(21.8599 -0.851874 -1.60199)
(20.3892 -0.709828 -2.12598)
(20.3884 -0.382301 -1.36601)
(20.106 -0.169821 -0.443588)
(19.6401 -0.126684 0.0369945)
(19.0534 -0.144364 0.279808)
(18.2701 -0.218395 0.429563)
(17.2109 -0.42026 0.511269)
(16.14 -0.624992 0.284123)
(15.6338 -0.530241 -0.102912)
(15.6405 -0.185183 -0.274494)
(15.9454 0.134399 -0.249006)
(16.4345 0.364871 -0.172528)
(16.6718 0.47066 -0.124421)
(16.9676 0.47325 -0.122551)
(17.1993 0.347126 -0.113403)
(17.4179 0.210665 -0.0592135)
(17.5879 0.11426 0.088671)
(17.6858 0.0620722 0.255565)
(17.6948 0.05778 0.31263)
(17.6041 0.047322 0.256646)
(17.6077 -0.00836245 0.234742)
(17.7293 0.0446883 0.333079)
(17.9335 0.316989 0.302005)
(17.7412 0.758713 -0.126479)
(17.9432 2.23564 -0.430507)
(19.6017 2.56777 -0.31357)
(21.4107 0.762962 0.115114)
(20.3742 -1.89026 -0.437446)
(5.01948 -5.35111 -0.729548)
(3.09547 -7.74154 -0.919404)
(8.78827 -13.1328 -0.844531)
(4.44569 -14.5411 -2.0345)
(-3.70264 2.33845 -3.41108)
(-3.78269 0.180394 -1.17486)
(-2.78933 0.673195 -0.149898)
(-2.84115 0.860974 -0.0884584)
(-1.57141 1.07225 0.23812)
(-0.693236 1.12282 0.613657)
(0.505107 1.30075 0.902096)
(1.98668 1.59903 1.07109)
(3.75765 1.90245 1.25154)
(5.77414 1.87272 1.55118)
(8.19459 1.35284 1.88294)
(10.3973 0.719016 1.93764)
(11.8454 0.10708 1.67008)
(13.7012 -0.133468 1.12014)
(16.2008 0.210458 0.115219)
(18.1697 0.743026 -1.19814)
(19.1881 1.32371 -2.60821)
(20.0016 1.62497 -3.29057)
(21.3622 1.31624 -2.9616)
(23.29 0.685955 -2.18331)
(25.1262 0.412512 -1.59286)
(26.9943 0.707011 -0.996884)
(28.2528 -0.000641226 -0.392389)
(28.4159 -0.785688 -0.315437)
(28.2171 -1.07538 -0.323745)
(27.8931 -1.2437 -0.34652)
(27.375 -1.35426 -0.336066)
(26.1183 -1.42445 -0.391645)
(22.2318 -0.743219 -0.976618)
(21.0557 -0.174027 -0.802443)
(20.3861 -0.0163144 -0.0488734)
(19.7018 -0.00430097 0.361123)
(19.0241 -0.0487309 0.48359)
(18.2753 -0.157936 0.390314)
(17.3899 -0.367555 0.0544937)
(16.3729 -0.643057 -0.423625)
(15.6133 -0.589165 -0.578675)
(15.4271 -0.245877 -0.456075)
(15.6395 0.0704709 -0.273771)
(16.1549 0.31166 -0.027656)
(16.4436 0.387623 0.198638)
(16.7353 0.334975 0.330683)
(16.9991 0.322228 0.361195)
(17.0946 0.268187 0.30021)
(17.1738 0.162393 0.309148)
(17.1747 0.112824 0.401358)
(16.9937 0.168257 0.611653)
(16.2862 0.340292 0.925492)
(14.6121 0.735172 1.32454)
(14.2855 1.13046 1.96232)
(14.5405 1.55842 2.88291)
(14.7609 2.34432 3.28456)
(16.0804 3.17246 3.61194)
(19.7607 2.49285 4.19092)
(22.1645 0.171059 3.68419)
(20.747 -2.22383 2.80633)
(5.67683 -5.51584 1.53058)
(5.07552 -7.37391 0.0430274)
(9.48875 -13.0328 0.334522)
(4.11619 -13.457 -0.0950265)
(-1.99396 12.0231 -5.07673)
(-2.11615 1.45503 -1.82662)
(0.821508 0.0741367 -0.278981)
(0.642889 0.219822 0.135696)
(1.32051 0.513773 0.364007)
(2.25321 0.733918 0.673368)
(3.57871 0.898937 0.956158)
(5.25659 1.00059 1.18801)
(7.32194 1.02829 1.38889)
(10.0412 0.819573 1.45871)
(13.5294 0.400751 1.3737)
(17.1869 0.121653 1.09426)
(19.8783 -0.32188 0.725349)
(21.4941 -0.687883 0.270732)
(22.8304 -0.621925 -0.126862)
(23.8737 -0.408287 -0.564185)
(24.4422 -0.0289169 -1.19796)
(24.6944 0.591287 -1.93526)
(25.0939 1.18891 -2.39723)
(25.7625 1.04595 -2.24406)
(27.1213 -0.00607203 -1.87139)
(28.2236 -0.179328 -1.85641)
(29.6885 0.241592 -1.11925)
(30.6899 -0.584457 -0.0762738)
(30.4552 -0.98613 0.0234209)
(30.0092 -1.15426 -0.0551364)
(29.3972 -1.26889 -0.123002)
(28.4986 -1.39049 -0.131832)
(26.5142 -1.30124 -0.0210527)
(23.5788 -0.47306 -0.317936)
(22.6166 -0.0908599 -0.077913)
(22.1667 0.0177653 0.229664)
(21.9303 0.0455618 0.319246)
(21.7353 0.0560975 0.289958)
(21.3381 0.0137158 0.181436)
(20.2388 -0.082938 0.00520962)
(17.9742 -0.100195 -0.113998)
(16.6609 -0.0142694 -0.127448)
(16.5118 0.0649543 -0.12777)
(16.7844 0.154999 -0.0584783)
(17.5123 0.150776 0.105427)
(18.5475 0.0754211 0.18163)
(19.5946 0.0177798 0.14635)
(20.3185 -0.0180189 0.106551)
(20.7416 -0.0404181 0.118944)
(20.9255 -0.0341024 0.238741)
(20.8561 -0.0288048 0.43147)
(20.6078 -0.00192053 0.905665)
(20.0801 0.0305083 1.26625)
(19.7453 0.141784 1.61701)
(19.5976 0.374971 2.44759)
(19.1303 1.12126 3.55025)
(18.4364 2.21637 3.842)
(19.3867 2.16143 3.94391)
(20.9552 0.914318 3.7238)
(20.119 0.0432626 2.6979)
(13.606 -4.31303 1.81685)
(15.5496 -8.89681 1.42148)
(11.2569 -11.5133 1.92506)
(5.06341 -13.8012 2.8186)
(-2.64617 19.5981 -6.76435)
(-3.98003 6.00538 -2.29995)
(-1.13422 2.25673 -0.761033)
(0.0290778 1.19133 0.466352)
(2.04737 0.63269 0.873172)
(3.84346 0.360767 1.16181)
(6.06063 0.232446 1.29774)
(8.74467 0.137543 1.37062)
(11.8025 0.0726628 1.47569)
(15.057 0.0418231 1.52869)
(17.7958 -0.31906 1.38444)
(19.5421 -1.1161 0.801445)
(20.9568 -1.59647 0.209713)
(22.2835 -1.36432 -0.073156)
(23.3685 -1.03426 -0.23475)
(24.4704 -0.705687 -0.415711)
(25.2191 -0.552065 -0.599058)
(25.6578 -0.352832 -0.883959)
(26.1939 0.135764 -1.26005)
(26.8963 0.537424 -1.26557)
(27.5048 0.0580953 -1.01863)
(27.8073 -0.627076 -1.08313)
(27.9302 -0.66911 -1.46743)
(28.4694 0.244164 -1.31646)
(30.929 0.941597 -0.933775)
(32.1063 -0.120083 -0.393984)
(31.6404 -1.00109 0.0226374)
(30.4955 -1.50646 0.392086)
(28.9693 -1.77467 0.755166)
(26.1218 -1.67989 1.13102)
(23.0219 -0.488156 0.853015)
(21.8298 -0.0144511 0.665187)
(21.0435 0.0890967 0.56033)
(20.2552 0.133955 0.469302)
(18.7242 0.189058 0.454894)
(16.6024 0.276004 0.630968)
(15.1972 0.201651 0.618904)
(14.6703 0.0393526 0.280963)
(14.573 0.112177 0.0394677)
(14.6562 0.250091 0.0444881)
(14.9648 0.27152 0.09159)
(15.53 0.180019 0.125964)
(16.0105 0.132582 0.235921)
(16.0846 0.138517 0.371467)
(16.2318 0.172184 0.589245)
(16.0963 0.266114 0.862212)
(15.9492 0.508702 1.53918)
(15.9362 0.867857 2.62381)
(16.1358 1.1729 3.46356)
(16.7008 1.49439 4.0689)
(17.8236 1.87182 5.01164)
(18.6358 2.42496 5.71627)
(18.5084 2.36951 5.70355)
(19.1762 1.58218 5.30592)
(19.4419 0.756727 4.27596)
(18.0612 -0.467714 3.23887)
(9.42328 -6.13005 1.98932)
(11.5713 -9.20469 2.37265)
(9.70272 -11.5602 3.63813)
(5.08622 -14.4329 4.88377)
(-3.90145 17.9686 -3.12229)
(-4.83018 5.28891 -0.86108)
(-2.99463 1.53826 -1.47192)
(-1.68718 0.653008 -0.783171)
(0.427151 0.0171663 -0.832417)
(2.45584 -0.216458 -0.73812)
(4.61185 -0.314633 -0.852507)
(6.995 -0.363333 -0.973148)
(9.85916 -0.473782 -0.964566)
(13.2288 -0.564534 -0.874317)
(16.9268 -0.570729 -0.761458)
(19.6363 -0.788702 -0.583062)
(20.7509 -1.02709 -0.500441)
(20.9047 -0.966852 -0.54725)
(20.7574 -0.738477 -0.694949)
(19.9218 -0.117477 -0.925926)
(18.0435 0.844254 -0.821978)
(17.1838 1.14517 -1.16646)
(17.647 0.524192 -1.62608)
(19.9006 0.34712 -1.94045)
(22.419 0.871537 -2.03422)
(24.616 0.900148 -1.95843)
(26.4045 -0.0494106 -1.85718)
(27.3807 -0.688332 -1.85886)
(27.6956 -0.835957 -1.60795)
(28.5089 -0.675539 -0.511985)
(28.7471 -1.03013 0.370796)
(28.0546 -1.22604 0.971371)
(26.1943 -0.868373 1.72936)
(22.9909 -0.0453902 2.49058)
(20.7178 0.324554 1.81291)
(19.5471 0.266004 1.02228)
(18.451 0.269972 0.789744)
(17.3007 0.371766 0.935592)
(15.8979 0.523422 1.20329)
(14.5222 0.52121 1.18549)
(13.5485 0.276565 0.858732)
(12.8811 0.202545 0.569076)
(12.3633 0.397153 0.470695)
(12.2467 0.504029 0.521136)
(12.1909 0.492642 0.656906)
(12.1421 0.447845 0.787847)
(11.9895 0.493013 0.909592)
(11.9032 0.600022 1.01823)
(11.6382 0.698539 1.12819)
(11.5474 0.887119 1.41328)
(11.7896 1.16122 1.91558)
(12.7862 1.47292 2.60187)
(13.8957 1.8034 3.01677)
(15.4093 2.09452 3.53696)
(16.7926 2.80402 4.66552)
(17.8168 3.5191 6.07973)
(19.0773 3.24245 6.84869)
(20.2555 1.98976 5.98285)
(19.6808 1.31332 4.36003)
(17.3629 -0.321244 3.24792)
(8.75097 -5.93396 3.34355)
(9.24286 -8.89955 4.04803)
(8.69365 -11.0867 5.48988)
(5.41671 -14.0452 6.77071)
(-4.44811 0.838417 -1.33085)
(-4.91276 0.489777 -0.695362)
(-4.67984 0.777323 -1.00105)
(-4.37364 0.828645 -0.732234)
(-3.75851 0.884938 -0.847826)
(-3.11088 0.90912 -0.814735)
(-2.25914 1.00669 -0.997219)
(-1.28631 1.21962 -1.20869)
(-0.0360554 1.46246 -1.43332)
(1.44562 1.55803 -1.57422)
(3.51115 1.10715 -1.51428)
(5.95411 0.124807 -1.0665)
(6.93324 -0.797012 -0.521541)
(6.15883 -1.27373 -0.260685)
(4.3674 -1.01857 0.211419)
(3.91476 0.0816931 0.850306)
(4.43472 1.09355 0.42348)
(5.62105 1.38245 -1.12044)
(7.55117 0.901669 -2.28149)
(10.076 0.00397998 -2.82213)
(12.7121 -0.861729 -3.07941)
(15.051 -1.46348 -3.17828)
(17.1251 -1.78395 -2.71152)
(19.0585 -1.79783 -1.99846)
(20.9884 -1.47851 -1.62295)
(22.4921 -0.983069 -0.74922)
(22.6352 -0.419887 0.39593)
(21.1678 0.386757 1.83849)
(17.5906 1.32787 3.29492)
(14.8216 1.3664 3.5942)
(13.8338 0.834837 2.61427)
(12.9261 0.435084 1.84188)
(12.066 0.170007 1.58284)
(11.3492 -0.073273 1.59339)
(10.8091 -0.349947 1.60524)
(10.4982 -0.521119 1.43403)
(10.2414 -0.327663 1.13596)
(10.1316 0.10312 0.921842)
(10.3078 0.338689 0.829188)
(10.5922 0.51251 0.83441)
(10.8127 0.653511 0.955755)
(10.9694 0.737628 1.1403)
(10.9298 0.797909 1.33267)
(10.8746 0.870458 1.66255)
(10.4693 1.10612 2.1277)
(10.0051 1.57553 2.68443)
(10.011 2.19075 3.38338)
(10.3731 2.88895 4.28819)
(10.8288 3.69335 4.97364)
(11.4611 4.43197 5.59764)
(12.8987 5.05481 6.68048)
(14.7105 5.41396 7.35569)
(16.8483 5.484 7.15088)
(18.9507 3.95194 6.16443)
(18.7085 0.845234 5.04993)
(15.4965 -3.40888 5.33583)
(3.81748 -7.47051 5.41517)
(2.88969 -7.78162 6.06737)
(8.05889 -9.43923 6.41087)
(6.38085 -13.2172 9.1006)
(-3.77237 1.7612 -1.79959)
(-4.90492 1.17406 -1.01135)
(-5.36339 0.900999 -0.970531)
(-5.5478 0.882566 -0.749747)
(-5.6054 0.86462 -0.764185)
(-5.58051 0.87206 -0.797836)