/*--------------------------------*- C++ -*----------------------------------*\
| =========                 |                                                 |
| \\      /  F ield         | OpenFOAM: The Open Source CFD Toolbox           |
|  \\    /   O peration     | Version:  2.1.1                                 |
|   \\  /    A nd           | Web:      www.OpenFOAM.org                      |
|    \\/     M anipulation  |                                                 |
\*---------------------------------------------------------------------------*/
FoamFile
{
    version     2.0;
    format      ascii;
    class       volVectorField;
    location    "0.00145";
    object      UFLUK;
}
// * * * * * * * * * * * * * * * * * * * * * * * * * * * * * * * * * * * * * //

dimensions      [0 1 -1 0 0 0 0];

internalField   nonuniform List<vector> 
36520
(
(-0.000125561 -0.913202 0.959424)
(-0.000160769 -0.120986 0.303088)
(8.209e-06 0.157758 0.014325)
(1.2724e-05 0.117975 -0.299492)
(1.75229e-05 0.0954929 -0.448427)
(1.94193e-05 0.0774503 -0.572431)
(2.20429e-05 0.0776862 -0.686153)
(2.61016e-05 0.0812272 -0.793262)
(3.29569e-05 0.0944079 -0.903714)
(4.40261e-05 0.104286 -0.995826)
(5.97401e-05 0.103691 -1.03179)
(8.22298e-05 0.0894326 -1.03048)
(0.000114722 0.069659 -0.981713)
(0.000161294 0.0491756 -0.940986)
(0.000226493 0.0415651 -0.937019)
(0.000314592 0.0552963 -1.02206)
(0.000426804 0.0905234 -1.1786)
(0.000556584 0.139269 -1.36944)
(0.000685677 0.187656 -1.51975)
(0.000783931 0.22374 -1.57261)
(0.000815805 0.234814 -1.47959)
(0.000753018 0.221598 -1.20778)
(0.000588271 0.155575 -0.720758)
(0.000327925 0.0410548 -0.0682456)
(-2.81137e-05 -0.0912283 0.616749)
(-0.000307204 -0.20884 1.17589)
(-0.000331953 -0.278667 1.46526)
(-0.000126282 -0.269211 1.4043)
(0.000200063 -0.203119 1.06795)
(0.000509821 -0.132338 0.660932)
(0.000721652 -0.0832029 0.319921)
(0.000786363 -0.0563012 0.0778393)
(0.000680201 -0.0451895 -0.0867415)
(0.000439607 -0.0386158 -0.21101)
(0.000113622 -0.0308812 -0.321302)
(-0.000249313 -0.024188 -0.430795)
(-0.00059111 -0.0166646 -0.551755)
(-0.000860286 -0.0113315 -0.690509)
(-0.00101623 -0.00920981 -0.846154)
(-0.00102478 -0.0110284 -1.02184)
(-0.000860452 -0.0172764 -1.22316)
(-0.000567893 -0.0236748 -1.43997)
(-0.000257693 -0.0161089 -1.61594)
(-0.000574934 0.0160249 -1.69636)
(-0.00371259 0.0606931 -1.62673)
(-0.0241517 -0.0891681 -1.5041)
(-0.0921494 -0.445771 -1.26649)
(-0.189032 -0.636251 -0.827358)
(-0.257232 -0.646479 -0.331676)
(-0.193497 -0.253619 -0.253424)
(-0.0584364 0.996484 0.355965)
(0.00201993 1.72113 2.38412)
(-0.585855 2.73934 7.65531)
(-4.03071 3.78105 21.7602)
(-4.54718 -1.9302 34.4238)
(-0.839361 -10.9258 31.0008)
(-2.15336 -12.8591 28.3893)
(-3.65834 -10.9602 21.6988)
(-1.28857 -8.03633 17.2603)
(-0.916649 -6.21781 14.7834)
(-7.96782e-05 -0.762276 0.875314)
(-9.24135e-05 0.0339406 -0.183912)
(1.63551e-05 0.307784 -0.260531)
(3.47276e-05 0.224377 -0.571725)
(3.81334e-05 0.20454 -0.59309)
(4.02187e-05 0.1617 -0.739824)
(5.09458e-05 0.173305 -0.796738)
(6.67712e-05 0.183563 -0.897616)
(9.12076e-05 0.226372 -0.98718)
(0.000123722 0.250516 -1.06879)
(0.000162703 0.257363 -1.09255)
(0.000209151 0.221855 -1.0804)
(0.000263443 0.172208 -1.00493)
(0.000325732 0.123467 -0.942236)
(0.000395358 0.112333 -0.908382)
(0.000470599 0.145725 -0.980302)
(0.000548417 0.236161 -1.1208)
(0.000614205 0.356399 -1.3087)
(0.000642917 0.484434 -1.45495)
(0.000601961 0.581454 -1.51113)
(0.000472568 0.624159 -1.41983)
(0.000274946 0.59365 -1.14054)
(5.57074e-05 0.421732 -0.626491)
(-0.000175173 0.11645 0.0814532)
(-0.00036685 -0.234161 0.819795)
(-0.000393578 -0.555193 1.42216)
(-0.000339552 -0.74464 1.72414)
(-0.000299693 -0.732135 1.6427)
(-0.000228809 -0.557755 1.25416)
(-0.000120202 -0.368593 0.80781)
(-2.97819e-05 -0.239106 0.449743)
(1.8938e-05 -0.167286 0.202711)
(1.9564e-05 -0.131171 0.0389015)
(-1.42769e-05 -0.103915 -0.0839451)
(-6.21355e-05 -0.0709514 -0.193048)
(-0.000120236 -0.037571 -0.301768)
(-0.000189074 -0.00594898 -0.421779)
(-0.000277669 0.022737 -0.557358)
(-0.000504116 0.0474962 -0.711552)
(-0.00475678 0.0695826 -0.877809)
(-0.0160415 0.103535 -1.03476)
(-0.0204149 0.159866 -1.16339)
(-0.00395375 0.239695 -1.25687)
(0.0168447 0.303057 -1.47702)
(0.00569338 0.374837 -1.7103)
(0.000617422 0.500653 -1.74936)
(-0.00555948 0.652199 -1.61352)
(-0.0867644 0.74786 -1.24617)
(-0.493143 0.812084 -0.608115)
(-0.695053 1.53986 -0.35595)
(-0.727571 2.3612 0.177469)
(-0.696861 3.12081 1.42093)
(-0.64625 3.21821 4.15963)
(-0.681477 2.37114 9.10195)
(-0.157195 -0.104472 15.5797)
(0.41258 -2.66316 27.216)
(-0.783915 -4.59154 26.5033)
(-2.81378 -9.36158 21.5283)
(-1.70939 -9.53074 16.6785)
(-1.19306 -7.7763 16.9782)
(-4.5831e-05 -0.364743 0.848273)
(-5.2106e-05 0.28156 -0.268735)
(-1.18951e-05 0.489684 -0.38421)
(-3.25817e-06 0.368813 -0.636307)
(-5.47507e-06 0.346404 -0.641261)
(-6.44139e-06 0.265249 -0.792798)
(-2.03485e-06 0.294763 -0.832212)
(6.23415e-06 0.304035 -0.962086)
(1.94849e-05 0.37665 -1.06767)
(3.46749e-05 0.410638 -1.17297)
(4.82769e-05 0.412631 -1.21027)
(5.78017e-05 0.344509 -1.18335)
(6.03815e-05 0.253728 -1.0796)
(5.17175e-05 0.16999 -0.968221)
(2.52592e-05 0.146498 -0.889277)
(-1.9815e-05 0.203966 -0.948613)
(-6.90275e-05 0.355558 -1.12074)
(-0.000101115 0.556842 -1.37373)
(-0.000117408 0.75793 -1.59251)
(-0.000137569 0.911574 -1.71157)
(-0.00017843 0.973412 -1.6699)
(-0.000216343 0.914209 -1.46155)
(-0.000251966 0.616803 -1.02051)
(-0.000490406 0.103766 -0.336534)
(-0.000718296 -0.44379 0.455402)
(-0.000429671 -0.930387 1.21472)
(8.33664e-05 -1.20628 1.71743)
(0.000145583 -1.15089 1.75059)
(5.21103e-05 -0.874804 1.34193)
(3.24623e-05 -0.600946 0.838679)
(2.25146e-05 -0.424683 0.452659)
(1.06397e-05 -0.333954 0.202066)
(4.49331e-06 -0.28958 0.0417483)
(5.0537e-07 -0.256941 -0.0767043)
(-1.12116e-06 -0.215586 -0.188798)
(-1.00465e-05 -0.169329 -0.305242)
(-0.000125042 -0.124254 -0.429668)
(-0.000619747 -0.0798915 -0.569323)
(-0.00164368 -0.0434999 -0.731928)
(-0.0027441 -0.0184449 -0.913238)
(-0.00333683 0.000515909 -1.09388)
(-0.00694429 0.0317917 -1.25641)
(-0.117381 0.0821835 -1.38405)
(-0.38279 0.1679 -1.53201)
(-0.433324 0.311406 -1.78154)
(-0.0950765 0.494906 -2.03155)
(0.115988 0.610844 -2.07062)
(0.0646161 0.94942 -2.07349)
(-0.489121 1.31535 -1.78847)
(-1.28967 2.10514 -1.0227)
(-1.63353 2.74344 0.00489866)
(-2.03054 2.9881 1.03123)
(-1.92547 1.05473 3.19147)
(-1.57875 -2.62736 5.3792)
(-0.762393 -7.09645 7.28914)
(-0.195119 -8.05279 6.57063)
(0.243576 -8.26558 5.48356)
(-3.98339 -7.94445 12.0494)
(-2.43384 -11.9173 13.4262)
(-0.715078 -11.2425 15.1836)
(-5.16107e-05 0.204699 0.848585)
(-5.10906e-05 0.516277 -0.376529)
(-2.3065e-05 0.578396 -0.480469)
(-1.98102e-05 0.441825 -0.711822)
(-2.28976e-05 0.413734 -0.755531)
(-3.08531e-05 0.325723 -0.873604)
(-4.10649e-05 0.357269 -0.923735)
(-2.91641e-05 0.373291 -1.04865)
(-6.10626e-06 0.465303 -1.17247)
(-7.54869e-08 0.507102 -1.29553)
(-1.03356e-07 0.511558 -1.34162)
(-1.44011e-07 0.41637 -1.29554)
(-2.02386e-07 0.296391 -1.15628)
(-2.84115e-07 0.221342 -1.00563)
(-3.99013e-07 0.235581 -0.898114)
(-6.0263e-07 0.34342 -0.960753)
(-1.06515e-06 0.525363 -1.22651)
(-0.00119587 0.729055 -1.66907)
(-0.00881834 0.870237 -2.25888)
(-0.026541 0.859581 -3.01541)
(-0.0445644 0.691952 -3.72633)
(-0.0522396 0.446813 -4.03949)
(-0.0417414 0.0171591 -3.75584)
(-0.0241502 -0.64117 -2.90639)
(-0.0159227 -1.28073 -1.75504)
(-0.016712 -1.71646 -0.398474)
(-0.00725311 -1.86664 0.762728)
(0.00212676 -1.65885 1.22322)
(0.00027653 -1.23499 0.92498)
(-0.00121287 -0.871074 0.424997)
(-6.99044e-05 -0.659187 0.045775)
(0.00054756 -0.556082 -0.187428)
(0.000684488 -0.507121 -0.329561)
(0.000721122 -0.465102 -0.429205)
(0.000968864 -0.408702 -0.526118)
(0.00156387 -0.334875 -0.625474)
(0.0022605 -0.260315 -0.742836)
(0.00257989 -0.195479 -0.890215)
(0.00215949 -0.150067 -1.06452)
(0.000978006 -0.130798 -1.24546)
(-0.000179125 -0.121883 -1.41426)
(-0.000274346 -0.105074 -1.56492)
(-0.0137663 -0.0559811 -1.7137)
(-0.0952929 0.0205651 -1.89234)
(-0.301244 -0.0323875 -1.92)
(-0.164786 -0.114797 -1.78422)
(-0.0464934 0.0408954 -1.82691)
(-0.0262596 0.436113 -1.78688)
(-0.0583326 1.07975 -1.64473)
(-0.25745 1.80587 -1.55589)
(-0.848361 2.28299 -1.40386)
(-1.20035 2.10852 -0.0616074)
(-2.28584 1.42003 3.30489)
(-2.43598 1.09898 6.16589)
(-2.39007 -1.9376 8.14995)
(-0.959336 -5.90878 7.07498)
(0.0807126 -6.63225 4.03297)
(-0.500075 -5.9007 6.64307)
(-2.20325 -9.61223 9.75293)
(-0.596933 -13.8965 12.7738)
(-6.49939e-05 0.852058 0.462017)
(-6.55476e-05 0.817965 -0.503569)
(-2.79587e-05 0.787415 -0.548138)
(-2.05673e-06 0.554434 -0.763447)
(-5.07578e-05 0.536501 -0.823905)
(-0.000188802 0.442773 -0.930919)
(-0.000348501 0.451515 -1.0222)
(-0.000568898 0.478852 -1.20762)
(-0.00104951 0.565536 -1.4258)
(-0.00180933 0.606616 -1.67139)
(-0.00240693 0.55582 -1.83264)
(-0.00232626 0.364071 -1.90884)
(-0.00202215 0.150658 -1.94017)
(-0.00228162 0.00537606 -2.01802)
(-0.00459528 -0.00931319 -2.22008)
(-0.0123122 0.0495619 -2.70334)
(-0.0248295 0.111347 -3.5523)
(-0.0434345 0.107995 -4.64439)
(-0.0747208 0.0301972 -5.77547)
(-0.121865 -0.121976 -6.75262)
(-0.169667 -0.335108 -7.56273)
(-0.190206 -0.62139 -8.0102)
(-0.155196 -1.06062 -7.72825)
(-0.0867017 -1.75184 -6.52545)
(-0.0117268 -2.43062 -4.65923)
(0.0381394 -2.72335 -2.64183)
(0.038163 -2.62739 -0.870603)
(0.00946718 -2.28248 -0.0153498)
(-0.0089038 -1.80939 -0.234128)
(-0.0384868 -1.37635 -0.777201)
(-0.038395 -1.15167 -1.15431)
(-0.0167259 -1.07641 -1.35582)
(0.00580296 -1.05179 -1.4578)
(0.0238924 -1.0146 -1.50985)
(0.0316312 -0.958285 -1.55689)
(0.0294652 -0.861024 -1.61871)
(0.0244795 -0.754776 -1.70603)
(0.0218632 -0.664375 -1.8269)
(0.0188443 -0.617347 -2.00905)
(0.0136449 -0.648279 -2.25852)
(0.00485745 -0.709103 -2.48567)
(-0.00339816 -0.767635 -2.66611)
(-0.00837325 -0.79868 -2.81641)
(-0.00671113 -0.757008 -2.98451)
(-0.00554501 -0.788325 -3.23043)
(-0.0130097 -0.807144 -3.45601)
(-0.0244749 -0.782872 -3.52836)
(-0.0159147 -0.545762 -3.4627)
(-0.0364989 -0.000957977 -3.64085)
(-0.213121 0.637828 -3.98682)
(-0.659387 1.24483 -4.07751)
(-0.629713 1.79504 -3.058)
(-0.347971 1.9657 -0.122263)
(-0.093872 -0.150145 3.56121)
(-0.315518 -3.23869 8.08358)
(-1.27001 -5.22826 9.21782)
(-0.551154 -4.73711 6.35139)
(-0.53136 -4.90389 5.81859)
(-1.80023 -7.37336 7.10973)
(-1.00099 -14.696 12.481)
(-8.94339e-05 1.2121 0.174017)
(-0.000528221 0.930599 -0.689846)
(-0.00169852 0.818516 -0.78826)
(-0.00348253 0.545393 -1.02046)
(-0.00624827 0.507659 -1.21898)
(-0.00869374 0.400008 -1.41368)
(-0.010249 0.39475 -1.64793)
(-0.0130086 0.404607 -2.03384)
(-0.0192855 0.452652 -2.51557)
(-0.0281694 0.388248 -3.0929)
(-0.0395025 0.15632 -3.57055)
(-0.0530279 -0.272898 -3.88628)
(-0.0711736 -0.680212 -4.00428)
(-0.0921807 -0.837915 -4.08165)
(-0.116176 -0.806395 -4.24907)
(-0.192473 -0.793806 -4.65396)
(-0.347491 -0.797029 -5.5393)
(-0.555371 -0.909711 -6.78752)
(-0.705202 -1.23393 -8.1447)
(-0.93344 -1.86977 -9.31067)
(-1.44236 -3.07912 -9.96966)
(-1.97751 -5.26262 -9.39323)
(-1.39238 -7.87962 -6.84989)
(-0.415717 -9.31536 -3.84972)
(0.0905214 -9.61465 -1.24503)
(0.36208 -9.1866 1.01972)
(0.478135 -8.17829 2.53381)
(0.60865 -6.34254 1.00173)
(0.0219775 -3.68849 -1.72967)
(-0.0555765 -3.17224 -2.48875)
(-0.278425 -2.76626 -2.98155)
(-0.409239 -2.2852 -3.31398)
(-0.324248 -2.11127 -3.39938)
(-0.151745 -2.03192 -3.41561)
(-0.00781911 -1.9452 -3.45103)
(0.0928455 -1.8259 -3.54074)
(0.147986 -1.75153 -3.65926)
(0.140754 -1.63456 -3.82263)
(0.111424 -1.59858 -4.0402)
(0.0769436 -1.73603 -4.29067)
(0.037735 -1.92361 -4.47495)
(-0.00571483 -2.0698 -4.5731)
(-0.023301 -1.99026 -4.60895)
(0.00696538 -1.82583 -4.6597)
(0.0275677 -1.81283 -4.75534)
(0.023404 -1.89499 -4.87336)
(-0.000155688 -1.9374 -5.14005)
(-0.00730742 -1.76994 -5.4838)
(-0.00240141 -1.53631 -6.02392)
(-0.122608 -1.1772 -6.84438)
(-0.717286 -0.872552 -7.18116)
(-1.08741 -1.05113 -6.93549)
(-0.282975 -2.18034 -5.77655)
(-0.0429573 -2.57285 -1.91642)
(0.595137 -2.07849 3.14977)
(0.0376707 -4.36126 9.55763)
(-0.356631 -4.18693 11.3551)
(-1.50574 -2.25866 6.49112)
(-1.15756 -5.98976 6.11518)
(-1.40609 -12.1174 12.9064)
(-0.0234945 2.02801 -1.87231)
(-0.0552479 1.12982 -0.995523)
(-0.10774 1.02798 -1.09799)
(-0.144134 0.835598 -1.32473)
(-0.172089 0.956465 -1.61183)
(-0.231391 1.14728 -1.64268)
(-0.350225 1.54153 -1.34901)
(-0.552544 1.89429 -1.58031)
(-0.934691 2.34884 -1.90813)
(-1.79901 2.68761 -2.24228)
(-3.04614 2.69039 -2.37596)
(-4.20321 2.55474 -2.25738)
(-4.69948 2.86669 -1.9958)
(-0.186201 -5.45295 -2.11415)
(-0.0522471 -5.43488 -1.81454)
(-0.0859725 -4.89674 -2.76912)
(-0.290612 -2.31122 -6.20947)
(-0.616479 -1.34756 -8.24161)
(-0.759894 -1.75336 -9.76662)
(-0.708983 -2.67471 -10.9609)
(-0.673793 -4.44107 -11.47)
(-0.83446 -8.22467 -9.33201)
(-0.669184 -10.7647 -3.76393)
(-0.280521 -11.0864 -0.509132)
(-0.0474646 -11.0164 1.58864)
(0.122729 -10.4893 3.38283)
(0.257624 -9.37141 4.84806)
(0.525476 -8.32926 4.62598)
(0.699418 -6.51362 -1.58075)
(-0.0303861 -3.05983 -5.26762)
(-0.176127 -3.62708 -5.42756)
(-0.472194 -3.29422 -5.6484)
(-0.704415 -2.19655 -5.89892)
(-0.579059 -1.61926 -5.89923)
(-0.435025 -1.37646 -5.88654)
(-0.796956 -2.00346 -5.73161)
(-0.721487 -5.83194 -2.05698)
(-0.462204 -4.96552 -3.76813)
(-0.120214 -2.46447 -5.86708)
(-0.0218774 -1.66637 -6.34187)
(0.13612 -1.3828 -6.56544)
(0.118885 -1.54931 -6.74846)
(-0.276658 -2.29949 -6.75174)
(-0.206084 -2.53116 -6.6747)
(0.124506 -2.7518 -6.54057)
(0.230885 -3.14078 -6.49139)
(0.089307 -3.6751 -6.67923)
(-0.0511017 -3.95708 -6.69715)
(-0.0471161 -3.98188 -6.81241)
(-0.033752 -3.78322 -7.30054)
(-0.685179 -3.88075 -7.89954)
(-2.4984 -3.58923 -6.51117)
(-2.21972 -3.81768 -4.83344)
(1.32274 -1.42815 -1.34994)
(1.45448 -1.51844 2.43473)
(1.32027 -2.56508 7.09971)
(-2.04582 -3.35467 10.1477)
(-1.29561 -3.59932 7.0826)
(-0.624604 -7.32158 6.33148)
(-1.3531 -10.3917 13.5247)
(-0.0822616 1.58732 -1.2826)
(-0.24974 0.847938 -0.756753)
(-0.383492 1.39545 -0.948336)
(-0.199654 1.58744 -0.958335)
(0.0669863 2.08945 -0.996267)
(0.465269 2.21597 -0.735244)
(0.00662626 -2.23119 -0.648434)
(0.0015687 -2.74244 -0.696558)
(0.00187515 -3.22817 -0.827261)
(0.00228972 -4.07232 -1.08635)
(0.00265695 -5.15498 -0.96266)
(0.00289963 -6.26839 -0.166376)
(-0.00196733 -6.9397 0.683517)
(-0.0153912 -7.04196 1.1674)
(-0.016929 -6.62801 1.55628)
(-0.00454121 -6.11633 1.81487)
(-0.0145536 -6.05806 1.61062)
(-0.219658 -6.56012 -1.94275)
(-0.333204 -0.599132 -9.06316)
(-0.157153 -1.02056 -9.8134)
(-0.0719269 -1.75804 -10.3576)
(-0.0368807 -2.6784 -10.9712)
(-0.0130127 -5.28289 -10.8195)
(-0.0309161 -10.2833 -4.46588)
(-0.0314312 -10.1282 0.21669)
(0.0186682 -9.43961 2.36849)
(0.133949 -8.81605 3.76433)
(0.378501 -8.40325 2.36393)
(0.349891 -2.92365 -6.15388)
(-0.141679 -0.465102 -7.31655)
(-0.24088 -0.819379 -7.40297)
(-0.285104 -0.830738 -7.25834)
(-0.627432 0.0735716 -6.95928)
(-0.810891 -0.284879 -6.89697)
(0.0289896 -1.26198 -6.96808)
(0.592271 -1.97021 -6.89835)
(-0.635011 -1.81777 -6.88999)
(-6.00884 -1.4717 -5.491)
(-5.33013 -1.7988 -5.82077)
(-0.240593 -1.56814 -7.10226)
(2.10724 -0.582532 -7.19981)
(1.90041 -0.284149 -7.31073)
(-0.341468 -0.952021 -7.41796)
(-0.797316 -1.22736 -7.33181)
(-0.318734 -1.52562 -7.22018)
(-0.02396 -2.00356 -7.08829)
(-0.0977323 -2.42919 -7.07738)
(-0.128151 -2.84689 -7.25688)
(-0.0449612 -3.35521 -7.51765)
(0.092084 -3.88952 -7.91005)
(0.460624 -4.21462 -8.2378)
(0.708032 -2.98733 -6.68925)
(-0.0129414 -4.42017 -4.11337)
(0.0530506 -4.02209 -2.52056)
(0.66533 -3.75244 0.417737)
(-0.590549 -3.70686 1.59675)
(-2.772 -3.74636 6.95891)
(-1.75717 -5.98048 7.8964)
(-0.880316 -7.37741 9.50102)
(-0.969334 -8.62388 14.1925)
(0.000828107 3.3845 -18.4248)
(0.00138847 -0.263718 -3.66592)
(0.00214502 -0.815522 -1.71388)
(0.00286251 -2.10878 -2.22652)
(0.0033724 -2.43139 -1.78162)
(0.00408309 -3.23559 -1.69468)
(0.00448082 -3.63709 -1.65127)
(0.00482157 -3.96626 -1.68975)
(0.00270233 -4.22685 -1.75688)
(-0.0043999 -4.5498 -1.88887)
(-0.000104668 -5.01053 -2.06441)
(0.00842168 -5.61358 -2.39867)
(0.00956152 -6.12113 -2.69158)
(0.00610834 -6.30375 -2.84083)
(-0.00978189 -5.97304 -2.88165)
(-0.151475 -5.33775 -3.03828)
(-0.400324 -5.09052 -3.28247)
(-0.63641 -5.42705 -3.26839)
(-0.569781 -6.06473 -3.1603)
(-0.277368 -6.72813 -3.07349)
(-0.0876937 -7.19283 -3.13973)
(-0.00449742 -7.4325 -3.35076)
(0.0930497 -7.59245 -3.56143)
(0.21889 -7.53821 -3.57926)
(0.172969 -7.26521 -3.06024)
(0.086331 -6.79728 -2.68175)
(0.0645771 -6.53164 -2.54075)
(0.0585278 -6.57585 -2.62784)
(0.0514799 -6.78024 -2.77032)
(0.049429 -6.895 -2.85895)
(0.0458392 -6.94031 -2.90931)
(0.0290725 -7.01175 -2.92885)
(0.00982075 -7.16225 -2.98847)
(-0.00769814 -7.40587 -3.08397)
(-0.0566215 -7.54223 -3.15825)
(-0.0570712 -7.34429 -3.11517)
(0.00501445 -6.92234 -3.03649)
(0.00171067 -6.35372 -2.94781)
(-0.0448033 -6.0801 -2.7162)
(-0.0692514 -5.87672 -2.74341)
(-0.0575089 -5.79367 -2.6754)
(-0.0442017 -5.77029 -2.61652)
(-0.0363465 -5.84574 -2.50942)
(-0.0258732 -5.93691 -2.43925)
(-0.0158436 -6.01705 -2.40221)
(-0.0116981 -5.99896 -2.35648)
(-0.00961006 -6.00576 -2.33178)
(-0.00144266 -6.06596 -2.33968)
(0.01134 -6.13741 -2.38174)
(0.0254863 -6.3154 -2.55497)
(0.0359599 -6.7176 -2.89837)
(0.0237497 -7.29965 -3.6284)
(0.00297061 -7.91778 -4.3404)
(-0.00348483 -7.77672 -3.61387)
(-0.00972862 -6.01664 -2.68921)
(-0.0325469 -4.30499 -0.409165)
(-1.30805 -4.12642 5.05092)
(-1.85634 -5.32632 9.73016)
(-1.28602 -6.51044 11.082)
(-1.2462 -7.36736 14.4925)
(0.00065198 6.47431 -19.8068)
(0.00110897 1.0101 -3.43562)
(0.00183677 -0.846461 -1.41338)
(0.00226827 -2.24922 -1.6286)
(0.00256185 -2.70542 -1.39345)
(0.000808986 -3.15621 -1.17536)
(-0.00227989 -3.34586 -0.876482)
(-0.00339243 -3.4089 -0.656879)
(-0.00568038 -3.37009 -0.559983)
(-0.0128902 -3.34372 -0.582518)
(-0.0164447 -3.46173 -0.705828)
(-0.000610952 -3.85056 -0.850775)
(0.0157004 -4.2935 -0.911185)
(0.018406 -4.86675 -1.20446)
(0.00719402 -5.09733 -1.53682)
(-0.0157845 -5.07163 -1.80308)
(-0.128157 -5.19233 -1.76108)
(-0.411246 -5.37982 -1.65936)
(-0.874917 -5.35677 -1.65787)
(-0.790362 -5.23313 -1.83368)
(-0.289627 -5.31015 -1.64518)
(-0.0689759 -5.46131 -1.49706)
(0.0662304 -5.63475 -1.50771)
(0.201695 -5.74522 -1.58299)
(0.24749 -5.87593 -1.46226)
(0.0900806 -5.9794 -1.27471)
(0.0325114 -6.01654 -1.302)
(0.0213378 -6.18875 -1.41322)
(0.0162528 -6.31681 -1.48492)
(0.0185322 -6.32826 -1.50843)
(0.0319009 -6.35256 -1.53061)
(0.0513893 -6.36133 -1.54911)
(0.0569482 -6.38866 -1.56745)
(0.0362446 -6.5275 -1.63605)
(0.0101786 -6.90596 -1.77465)
(-0.00709489 -7.17603 -1.89002)
(-0.0398502 -6.84875 -1.83495)
(-0.063985 -6.3409 -1.69622)
(-0.070451 -5.77454 -1.57512)
(-0.0787972 -5.44804 -1.47822)
(-0.0662408 -5.3422 -1.37797)
(-0.036902 -5.31921 -1.3118)
(-0.0124203 -5.33197 -1.30335)
(-0.000415979 -5.31799 -1.32537)
(0.00316878 -5.26861 -1.33453)
(0.00375566 -5.20422 -1.30659)
(0.00403773 -5.162 -1.2809)
(0.00602228 -5.20477 -1.27348)
(0.0098867 -5.21669 -1.26478)
(0.0150782 -5.17771 -1.25278)
(0.0176393 -5.30445 -1.34168)
(0.0103713 -5.77987 -1.77167)
(-0.00280711 -6.46641 -2.43281)
(-0.0100109 -6.35442 -2.0722)
(-0.00917869 -4.86506 -1.15517)
(-0.0161067 -4.02539 0.245714)
(-0.78412 -4.27486 4.83437)
(-1.31604 -3.78259 9.41586)
(-1.12013 -4.65123 11.1597)
(-1.24654 -5.60048 15.328)
(0.000187529 4.17636 -11.7759)
(0.000303131 0.89678 -0.710509)
(0.000705514 -1.68349 -0.284407)
(0.00093546 -2.90695 -0.529594)
(0.00104078 -3.53974 -0.622657)
(0.00113637 -4.0554 -0.707078)
(0.00119475 -4.29137 -0.814553)
(0.00122832 -4.27519 -0.92123)
(0.00019035 -4.15653 -1.05306)
(-0.00687986 -4.12799 -1.02894)
(-0.0130847 -4.14366 -0.825539)
(-0.00125327 -4.15732 -0.752912)
(0.00639513 -4.21878 -0.759959)
(0.00606703 -4.11911 -0.970152)
(0.00184833 -4.38343 -1.25926)
(0.000418641 -5.14403 -1.36493)
(-1.55097 -2.07755 4.15519)
(-5.02379 -1.94271 2.55892)
(-5.55276 -3.29278 0.863265)
(-3.41802 -4.69512 0.0398621)
(-0.738822 -5.25302 -0.569618)
(-0.117428 -5.38159 -0.734012)
(0.07012 -5.38457 -1.43774)
(0.248574 -5.14965 -2.44706)
(0.473632 -4.56987 -3.57061)
(0.23965 -5.6345 -2.44128)
(0.0652555 -6.50165 -1.22078)
(0.0311459 -6.92391 -1.2159)
(0.0153093 -7.03636 -1.365)
(0.00651548 -6.73903 -1.37393)
(0.00884507 -6.55012 -1.36673)
(0.018401 -6.52343 -1.40875)
(0.02394 -6.61547 -1.49014)
(0.015834 -6.80153 -1.56115)
(0.00317256 -6.99511 -1.53655)
(-0.0100797 -7.1245 -1.48218)
(-0.0330175 -7.10967 -1.58048)
(0.0478967 -6.93773 -1.52217)
(0.11536 -6.81228 -0.540906)
(0.0107495 -6.53745 -0.52621)
(-0.0310318 -6.33142 -0.955289)
(-0.0193127 -6.19458 -1.20344)
(-0.00826458 -6.08279 -1.41329)
(-0.00315532 -6.01298 -1.43528)
(-0.00211248 -5.92229 -1.41532)
(-0.00268472 -5.79487 -1.35041)
(-0.00312747 -5.66672 -1.26493)
(-0.00242425 -5.54986 -1.16018)
(-0.000105964 -5.37554 -1.09392)
(0.00486297 -5.05531 -1.03716)
(0.0128713 -4.73357 -1.01459)
(0.0141888 -4.77444 -1.13115)
(0.00143924 -5.21179 -2.07655)
(-0.00850816 -4.6692 -2.24972)
(-0.000404607 -3.78061 -1.65662)
(-0.00333707 -3.65511 -1.11987)
(-1.15984 -3.0603 3.91575)
(-1.40281 -3.24959 9.48652)
(-1.23141 -3.25732 11.4056)
(-0.90547 -2.7495 15.492)
(-0.20933 3.17566 -2.37785)
(-1.00768 0.706571 -0.516322)
(-0.829134 -0.421617 -1.59171)
(-0.0989831 -1.94123 -1.51125)
(0.0784485 -2.36455 -1.76178)
(0.169331 -2.6103 -2.29644)
(0.0129571 -2.72689 -2.77009)
(0.000386334 -3.09696 -3.16586)
(-0.0105809 -3.51845 -3.57142)
(-0.0315424 -4.11281 -3.59958)
(-0.0226369 -4.33829 -3.15582)
(-0.00382413 -3.96734 -2.62698)
(0.00427726 -3.44307 -2.24099)
(0.00334363 -3.21515 -2.10928)
(-0.00349416 -3.93069 -2.6525)
(-0.0779458 -1.54702 -5.44056)
(-0.13154 -2.57346 -5.93292)
(-0.539415 -2.82622 -6.07592)
(-0.457567 -4.43634 4.02981)
(-0.30333 -3.07948 4.71704)
(-1.02697 -2.12907 4.62885)
(-4.46344 -1.43516 3.66745)
(-6.56282 -2.42215 1.35072)
(-0.341929 -4.41697 -2.87888)
(0.432074 -4.49779 -2.99266)
(0.723314 -4.81723 -3.09138)
(0.986148 -5.35819 -3.22709)
(1.03834 -6.89502 -2.72266)
(0.0215649 -8.3444 -1.37812)
(-0.0802527 -7.81144 -1.90809)
(-0.0991767 -7.12483 -2.26671)
(-0.0146334 -6.80704 -2.5153)
(0.108731 -6.63976 -2.79821)
(0.151627 -6.5374 -2.92743)
(-1.03257 -6.64994 -2.20488)
(-7.88897 -4.54548 -1.73972)
(-0.196025 -3.48074 -5.89971)
(6.51456 -3.98786 -3.69502)
(2.56624 -6.59557 -2.0183)
(0.164165 -6.70994 -2.0131)
(-0.228615 -6.44066 -2.68288)
(-6.35613 -4.2851 -3.15678)
(-9.32364 -0.338784 -2.00197)
(-2.37589 -3.88755 -5.37674)
(1.51744 -3.3256 -5.67097)
(4.79013 -4.40192 -3.36431)
(2.75359 -5.89683 0.24593)
(-0.611287 -5.92539 0.999209)
(0.0128873 -5.72725 0.42775)
(1.15261 -5.12207 0.133128)
(0.587829 -4.55374 0.135751)
(-0.440571 -4.01774 -1.71043)
(-0.596067 -1.99002 -4.23166)
(-0.112874 -1.8972 -3.91708)
(0.299791 -2.00337 -1.21646)
(-0.036382 -2.5937 1.21256)
(-3.3921 -1.18767 5.1685)
(-2.05323 -1.58493 7.57608)
(-1.30681 -1.67946 12.9945)
(-0.45139 -1.27817 15.0707)
(-0.43308 -2.95439 -2.24147)
(-1.18352 -0.703101 -0.115783)
(-1.57115 0.377798 -0.0829882)
(-0.256832 -1.86721 -1.02049)
(-0.197803 -1.85727 -1.11672)
(-0.490896 -1.30747 -2.57731)
(-0.68363 -1.02245 -3.24402)
(-0.556061 -2.0207 -2.89666)
(-0.199598 -2.68675 -2.05175)
(0.0301558 -2.76423 -0.989187)
(0.0252239 -2.72572 0.152992)
(0.00394402 -3.00871 0.983515)
(-0.0169175 -3.65462 0.761634)
(-0.0775536 -3.62032 -2.12745)
(-0.0872073 -1.7768 -4.669)
(-0.058116 -2.54621 -5.14333)
(-0.00189763 -3.89665 -5.67801)
(0.153301 -4.52994 -6.08973)
(0.78143 -4.67337 -5.75146)
(-0.148241 -6.24628 1.82583)
(-2.16581 -4.6649 3.04671)
(-3.67425 -2.71543 3.00457)
(-3.73084 -1.99036 3.70169)
(-2.28612 -3.82262 3.73604)
(-0.498829 -5.34057 1.19488)
(1.30942 -4.92562 -1.37239)
(2.46436 -4.10812 -2.73983)
(3.9834 -3.64432 -3.39485)
(3.96597 -7.11677 -0.895459)
(0.0215569 -7.48485 2.62902)
(-0.0282178 -6.89978 2.63567)
(-0.0350297 -6.63514 2.71798)
(0.017929 -6.66182 2.74506)
(0.0942529 -6.90886 2.67968)
(-0.670908 -7.32566 2.62462)
(-6.32241 -4.68714 5.38036)
(-4.12419 -1.89573 7.24108)
(6.85917 -4.07785 4.08606)
(3.93784 -6.63112 0.039296)
(0.750239 -6.68971 0.868008)
(-0.198962 -6.4315 0.893201)
(-0.3646 -6.09067 1.73212)
(-2.24928 -3.54516 4.83076)
(-3.75823 -3.33462 4.6959)
(-0.457216 -3.82121 5.0566)
(4.14482 -4.75354 3.01228)
(2.35663 -5.77975 0.433411)
(-1.26679 -5.39391 0.400574)
(-1.62961 -4.44489 -0.869871)
(0.542152 -2.53014 -3.06265)
(0.554942 -0.744444 -3.07264)
(-0.861806 0.292269 -2.91045)
(-0.778956 2.22367 -4.54789)
(0.334149 4.52739 -4.08593)
(0.666072 1.60366 -1.00316)
(-0.0915915 0.379131 2.68576)
(-3.46423 1.0096 5.65106)
(-2.05055 -0.648735 7.54867)
(-1.16218 -0.650051 13.1523)
(-0.627517 0.805869 13.5976)
(-8.88665e-05 -5.68329 -11.9042)
(-0.000156281 -2.70966 -1.26461)
(-0.00175123 -2.51492 0.348046)
(-0.00231784 -2.76238 0.291656)
(-0.00188294 -2.51481 -0.0205926)
(-0.00342132 -2.37536 -0.2198)
(-0.0053758 -2.32339 -0.355341)
(-0.00888956 -2.37542 -0.428055)
(-0.0166768 -2.4591 -0.430948)
(-0.0317342 -2.65151 -0.199084)
(-0.0516139 -2.95401 0.262842)
(-0.0773915 -3.38394 0.565852)
(-0.104858 -3.79554 0.892703)
(-0.150018 -4.22306 0.665044)
(-0.146059 -4.46348 -0.483105)
(-0.0369633 -4.84894 -1.08416)
(0.271566 -5.41235 -1.84763)
(1.11764 -6.13426 -2.48001)
(2.83003 -6.46216 -2.18449)
(3.79576 -5.89515 -1.42806)
(-1.588 -5.36128 -2.824)
(-3.11065 0.333281 3.56997)
(-3.88452 0.537751 2.90304)
(-4.40901 0.236806 3.69742)
(-2.26975 -3.32993 3.47813)
(0.000334979 -4.55479 2.33123)
(1.71863 -5.03167 0.986772)
(2.56967 -5.36375 0.115342)
(2.54957 -5.824 -0.538032)
(0.197142 -7.05874 1.41621)
(-0.000689216 -7.01734 1.40457)
(0.00206752 -6.87006 1.35463)
(0.00766409 -6.89056 1.36001)
(0.0151047 -6.99771 1.36246)
(0.0158163 -7.16732 1.39409)
(0.00476978 -7.36686 1.46758)
(-0.0213365 -7.36271 1.48274)
(-0.0742038 -7.01732 1.75655)
(-0.0512589 -6.64982 1.92746)
(-0.108612 -6.53823 1.15928)
(-0.0619862 -6.24263 1.08799)
(-0.0145503 -6.08733 1.10637)
(-0.0108518 -6.07287 1.13752)
(-0.013648 -6.04892 1.19822)
(-0.00713087 -5.95015 1.22402)
(-0.00104502 -5.73653 1.15678)
(-0.000736787 -5.4252 1.08607)
(-0.00633834 -4.77026 1.00644)
(-0.0146763 -4.09444 0.901686)
(-0.00588242 -3.22617 0.676412)
(0.00995097 -1.70276 0.295438)
(-0.00266838 0.215251 -0.604007)
(-0.0428046 1.25023 -1.83358)
(-0.0124101 1.77466 -1.88241)
(0.0153673 1.73171 -0.633615)
(-0.00190709 0.807647 0.28234)
(-0.929428 0.265639 4.59879)
(-1.39843 0.393363 9.08742)
(-1.16198 1.02519 11.72)
(-0.207866 3.74732 13.5807)
(-0.00015664 -7.43206 -19.4555)
(-0.00163259 -3.03429 -5.82247)
(-0.0264473 -2.09285 -1.93771)
(-0.115115 -1.70004 -0.740138)
(-0.416336 -1.58918 -0.808619)
(-1.30363 0.286893 -2.71792)
(-1.66258 0.906644 -2.7685)
(-1.63376 0.851119 -2.80867)
(-0.452698 -1.62333 -0.287267)
(-0.185644 -1.61365 0.28825)
(-0.169042 -1.70557 0.68219)
(-0.320739 -2.21733 1.3095)
(-0.699196 -2.84408 1.77874)
(-0.517216 -3.39846 1.94313)
(-0.16144 -4.04666 1.8174)
(0.0948566 -4.78919 1.64405)
(0.286706 -5.48259 1.60641)
(0.537476 -6.17185 1.50346)
(0.777006 -6.79345 1.05812)
(0.57999 -6.94615 0.663259)
(-0.0632392 -6.83186 1.03221)
(-0.709042 -7.01114 1.25943)
(-2.75035 -7.005 1.40297)
(-2.97872 -1.12272 5.12063)
(-1.55403 0.0705476 4.40526)
(-1.74214 -2.09751 4.91405)
(-0.359944 -4.62729 3.3348)
(1.03873 -4.94234 2.67707)
(2.84593 -4.97265 2.63583)
(4.8124 -4.7443 2.67334)
(0.530993 -6.20086 1.94066)
(0.00927809 -6.6257 1.52068)
(-0.00107977 -6.87548 1.40877)
(-0.015641 -7.07118 1.34934)
(-0.0454729 -7.08614 1.25462)
(-0.0410859 -6.7069 1.13888)
(0.312219 -6.40465 1.24263)
(3.05213 -5.82399 2.37335)
(1.23918 -3.65133 -5.40127)
(-0.231357 -1.88604 -6.18945)
(-0.31577 -3.22825 -5.46071)
(-0.413411 -5.99291 -1.64952)
(-0.41093 -5.80259 1.20074)
(-0.313527 -5.51747 1.13863)
(-0.117348 -5.17084 0.763934)
(0.0573429 -4.68934 0.53669)
(0.12946 -3.72799 0.235704)
(0.100859 -2.2968 -0.112147)
(0.0286594 -0.996875 -0.245145)
(0.0152758 0.0933048 -0.598953)
(0.00271213 1.50471 -1.2174)
(-0.0565506 2.7244 -2.01108)
(-0.129344 3.23206 -2.10211)
(-0.0489136 3.22716 -1.2818)
(0.0216268 2.42283 -0.462992)
(-0.00325697 1.50164 0.777005)
(-1.26479 0.676026 6.35902)
(-1.47309 1.56626 9.39355)
(-1.17413 2.84369 11.6826)
(-0.539973 5.6608 14.0601)
(-0.000242687 -3.8413 -17.7285)
(-0.000360261 -1.79584 -4.92951)
(-0.0214671 -2.97202 -0.941132)
(-0.152236 -2.87846 0.238777)
(-0.21525 -3.44233 1.12343)
(-0.175536 -3.7281 1.53257)
(-0.232957 -4.14929 1.86425)
(-0.395684 -4.52929 2.21901)
(-0.782087 -4.82821 2.4777)
(-1.35295 -5.03921 2.52949)
(-1.49515 -5.22948 2.49231)
(-0.671222 -5.43492 2.77078)
(-0.111403 -5.78718 3.18074)
(0.122693 -6.3429 3.65155)
(0.286471 -6.67232 4.67223)
(0.316383 -5.93164 5.96454)
(0.0633011 -2.11712 6.90631)
(-0.000562281 -0.576407 6.79119)
(-0.0891763 -2.84261 7.43078)
(-1.0304 -8.74482 4.00254)
(-1.72408 -9.30999 2.69204)
(-1.22981 -9.48194 2.27025)
(-0.420213 -9.44479 3.09516)
(-0.190903 -9.39804 3.66476)
(-0.286417 -8.82457 3.94663)
(-0.412174 -6.22841 5.34757)
(-0.151112 -2.48136 7.39246)
(0.485992 -1.44719 7.77474)
(2.1043 -2.24476 6.97252)
(3.40975 -4.26369 3.62323)
(0.463669 -5.77734 2.49447)
(-0.107813 -6.57245 2.54082)
(-0.0669188 -6.71323 2.50785)
(0.0396593 -6.38156 2.35944)
(0.152608 -5.83822 2.17503)
(0.251254 -5.53043 2.23677)
(0.243597 -5.48777 2.75586)
(-4.50237 -0.873283 -5.91556)
(-5.23755 1.32687 -5.61644)
(-3.29451 1.78107 -6.06109)
(3.15377 2.42306 -5.75971)
(8.1923 1.89538 -2.17762)
(8.0926 1.54039 0.871008)
(-3.94056 2.79865 3.55715)
(-4.12803 3.91965 2.42807)
(-1.11475 5.04115 2.05726)
(1.35812 5.04382 1.66726)
(3.31079 0.0339775 0.556977)
(3.00034 1.18988 0.393914)
(-0.362349 4.16477 0.76641)
(-3.72402 5.46721 -2.09101)
(-3.27348 6.80318 -3.86245)
(-2.65898 6.1206 -2.70987)
(0.0310967 4.11716 -1.16298)
(0.0347409 2.62695 -0.65527)
(-0.0206845 1.61817 0.969508)
(-1.50675 2.23553 6.38771)
(-1.5283 3.38045 9.18063)
(-1.13308 4.75919 11.3543)
(-0.76413 7.43766 13.6462)
(-0.00820927 -1.31952 -0.837068)
(-0.00648942 -0.586073 -0.492478)