/*--------------------------------*- C++ -*----------------------------------*\
| =========                 |                                                 |
| \\      /  F ield         | OpenFOAM: The Open Source CFD Toolbox           |
|  \\    /   O peration     | Version:  2.1.1                                 |
|   \\  /    A nd           | Web:      www.OpenFOAM.org                      |
|    \\/     M anipulation  |                                                 |
\*---------------------------------------------------------------------------*/
FoamFile
{
    version     2.0;
    format      ascii;
    class       volScalarField;
    location    "0.0014";
    object      alpha1;
}
// * * * * * * * * * * * * * * * * * * * * * * * * * * * * * * * * * * * * * //

dimensions      [0 0 0 0 0 0 0];

internalField   nonuniform List<scalar> 
36520
(
-3.33464e-12
-2.43594e-13
-3.23262e-13
-3.91922e-13
-5.0819e-13
-6.33467e-13
-7.68244e-13
-9.15068e-13
-1.08226e-12
-1.28065e-12
-1.5309e-12
-1.84815e-12
-2.28106e-12
-2.89102e-12
-3.77716e-12
-5.05034e-12
-6.83517e-12
-9.2048e-12
-1.21347e-11
-1.54378e-11
-1.8748e-11
-2.152e-11
-2.23059e-11
-2.11523e-11
-1.90985e-11
-1.73747e-11
-1.66946e-11
-1.72494e-11
-1.9149e-11
-2.23615e-11
-2.69488e-11
-3.26915e-11
-3.89684e-11
-4.4857e-11
-4.92909e-11
-5.13297e-11
-5.03091e-11
-4.59773e-11
-3.85703e-11
-2.88332e-11
-1.8214e-11
-8.75601e-12
-2.41343e-12
-1.89779e-18
1.11642e-11
3.9306e-11
1.38088e-10
8.59354e-10
2.63934e-09
3.60222e-09
3.54831e-09
3.23315e-09
1.82716e-09
-1.23755e-12
-8.04242e-09
-2.43862e-08
-2.73492e-08
-3.42864e-08
2.19932e-07
-8.60094e-06
-5.65837e-12
-3.4142e-12
-3.55571e-12
-3.95223e-12
-4.47768e-12
-4.9483e-12
-5.50416e-12
-6.19098e-12
-7.06711e-12
-8.19095e-12
-9.61749e-12
-1.13821e-11
-1.36793e-11
-1.67127e-11
-2.08342e-11
-2.62889e-11
-3.32921e-11
-4.16296e-11
-5.07149e-11
-5.94128e-11
-6.61228e-11
-6.84811e-11
-6.64847e-11
-6.19826e-11
-5.46451e-11
-4.5563e-11
-3.67561e-11
-2.98105e-11
-2.54874e-11
-2.38827e-11
-2.39945e-11
-2.51866e-11
-2.66877e-11
-2.78301e-11
-2.81046e-11
-2.70771e-11
-2.43867e-11
-1.97292e-11
-1.27984e-11
-2.98143e-12
1.58033e-11
2.50816e-10
8.99714e-10
1.42613e-09
1.38132e-09
6.326e-10
1.38106e-10
3.04947e-10
1.77153e-09
1.15022e-08
3.75535e-08
5.75695e-08
4.17503e-08
8.85827e-09
-2.88914e-10
-2.35705e-08
-6.01431e-09
6.84719e-07
7.3542e-05
0.000419858
-9.59925e-12
-7.81124e-12
-7.61793e-12
-7.66846e-12
-7.72069e-12
-7.5991e-12
-7.53073e-12
-7.56383e-12
-7.81e-12
-8.34989e-12
-9.257e-12
-1.04677e-11
-1.20349e-11
-1.38228e-11
-1.56915e-11
-1.69182e-11
-1.64252e-11
-1.30463e-11
-7.17747e-12
-2.09696e-12
-4.93971e-13
-5.21262e-16
-5.61919e-15
1.47359e-12
9.05847e-13
8.45697e-14
-6.5295e-16
-2.58361e-16
4.96433e-13
5.19995e-13
2.02775e-13
4.88119e-14
2.03739e-15
-3.13384e-20
4.3248e-20
-1.49733e-18
-8.83809e-19
1.06895e-12
2.88164e-11
1.16646e-10
2.82427e-10
5.1845e-10
9.68886e-10
3.53543e-09
2.3166e-08
1.0707e-07
2.14375e-07
2.42454e-07
2.63962e-07
6.02207e-07
3.25559e-06
1.57551e-05
4.16037e-05
6.25333e-05
1.60432e-05
1.32122e-07
-1.49568e-08
9.06548e-09
0.000118871
0.0159088
-1.19813e-11
-9.05899e-12
-8.2732e-12
-7.56527e-12
-6.85227e-12
-5.8753e-12
-4.42352e-12
-2.05018e-12
-8.06405e-21
4.14653e-20
6.6289e-20
1.755e-19
4.07125e-19
1.07841e-18
2.08933e-18
2.5271e-18
2.77002e-17
5.38779e-17
6.33527e-11
3.36489e-10
9.88205e-10
1.94342e-09
3.59928e-09
6.04263e-09
7.37354e-09
6.48086e-09
6.03938e-09
6.25897e-09
7.02645e-09
8.05677e-09
9.14263e-09
1.0152e-08
1.09536e-08
1.1348e-08
1.1347e-08
1.10765e-08
1.01109e-08
8.4194e-09
6.59497e-09
4.9721e-09
3.97849e-09
3.58604e-09
3.47548e-09
7.50336e-09
3.33887e-08
1.41895e-07
4.14643e-07
8.43731e-07
1.37153e-06
2.46693e-06
1.14848e-05
9.37819e-05
0.000440472
0.000890222
0.00138247
0.00104642
0.000239381
1.6981e-05
2.91868e-05
0.140499
-9.38464e-12
-4.77691e-12
-1.44331e-12
-4.65232e-19
9.86714e-19
1.55515e-12
1.40176e-11
2.9689e-11
4.95606e-11
7.84009e-11
1.09982e-10
1.35135e-10
1.47405e-10
1.44332e-10
1.22924e-10
9.08154e-11
7.57233e-10
4.41372e-09
1.7107e-08
4.89309e-08
1.01975e-07
1.54455e-07
1.94738e-07
2.57106e-07
3.17806e-07
3.32879e-07
3.22351e-07
3.18438e-07
3.24298e-07
3.60486e-07
4.16781e-07
4.67379e-07
4.88347e-07
4.84415e-07
4.44409e-07
3.7244e-07
3.09125e-07
2.45745e-07
1.84668e-07
1.31838e-07
9.91664e-08
8.50641e-08
8.34297e-08
9.57644e-08
1.2349e-07
1.75654e-07
2.99034e-07
5.38451e-07
9.09188e-07
1.74271e-06
7.26333e-06
4.16492e-05
0.000235455
0.00119814
0.00395566
0.00643163
0.00604481
0.00249461
0.00344799
0.637195
-4.38851e-12
6.88213e-13
5.91748e-11
2.0366e-10
4.24332e-10
8.48853e-10
1.30912e-09
1.7714e-09
2.27675e-09
2.97747e-09
3.82993e-09
6.14811e-09
1.23354e-08
2.56673e-08
5.58403e-08
1.27135e-07
3.11906e-07
7.92849e-07
1.95165e-06
4.23958e-06
7.11395e-06
8.45522e-06
6.28316e-06
3.27554e-06
2.2583e-06
2.43145e-06
2.55403e-06
2.69118e-06
2.80592e-06
2.98623e-06
3.42591e-06
4.15956e-06
4.99771e-06
5.53636e-06
5.62114e-06
5.29692e-06
4.65287e-06
4.08828e-06
3.36864e-06
2.62118e-06
2.05312e-06
1.81667e-06
1.81988e-06
1.82396e-06
1.65487e-06
1.61848e-06
1.85242e-06
2.51356e-06
3.6829e-06
6.5258e-06
1.9267e-05
6.82443e-05
0.000211647
0.000655117
0.00252753
0.0107747
0.0268901
0.0337762
0.0587939
0.927215
2.58623e-10
1.60709e-09
4.116e-09
8.76326e-09
1.40733e-08
1.97823e-08
2.90545e-08
4.44044e-08
7.10959e-08
1.15625e-07
1.64757e-07
2.25489e-07
3.27681e-07
5.04866e-07
8.57486e-07
1.72267e-06
3.8073e-06
7.6398e-06
1.31312e-05
2.16591e-05
4.09986e-05
6.10681e-05
5.67624e-05
2.91852e-05
8.65496e-06
6.68042e-06
6.99256e-06
7.34013e-06
7.93127e-06
8.46815e-06
9.74095e-06
1.18103e-05
1.44552e-05
1.73296e-05
1.95817e-05
2.17258e-05
2.53546e-05
2.78774e-05
3.23643e-05
3.17604e-05
2.51253e-05
2.24059e-05
2.62298e-05
3.32602e-05
2.95646e-05
1.84695e-05
1.3057e-05
1.394e-05
2.07163e-05
3.70295e-05
0.000103401
0.000744221
0.00101777
0.00101781
0.00059311
0.000613784
0.00872684
0.107332
0.41473
0.964292
4.5264e-10
3.15364e-09
8.51239e-09
1.56466e-08
1.69816e-08
1.29348e-11
6.80414e-16
6.57268e-16
-2.45011e-14
2.28425e-12
8.85233e-11
5.1721e-06
9.68826e-06
1.08446e-05
1.25607e-05
2.12904e-05
4.24237e-05
7.15334e-05
0.000100172
0.000120502
0.00012866
0.000146838
0.000176898
0.000131501
4.44392e-05
1.90383e-05
2.04819e-05
2.41798e-05
2.62838e-05
2.76964e-05
2.90045e-05
3.1476e-05
3.68029e-05
4.41987e-05
4.60888e-05
4.53951e-05
6.72023e-05
0.000209594
0.000259545
0.000237384
0.000158703
0.000158005
0.000180263
0.000198158
0.000197782
0.000188977
0.000193199
0.000206208
0.000204506
0.000184536
0.000176797
0.000234459
0.000274753
0.000206998
0.000138392
0.000138379
0.00110264
0.0776375
0.776955
0.971396
3.8288e-16
2.90624e-16
2.542e-16
1.65558e-16
1.17454e-16
4.58254e-15
1.06488e-16
-3.12281e-16
2.20913e-06
6.42976e-06
2.12473e-11
1.78948e-09
1.22832e-05
4.10943e-05
0.000118663
0.000381367
0.00117788
0.00299431
0.00518304
0.00555925
0.00440683
0.00228688
0.00118509
0.000836198
0.000636351
0.00046282
0.000317461
0.000215142
0.00014109
9.83202e-05
9.38595e-05
0.000101345
0.000120315
0.000143382
0.000154943
0.000161208
0.000175458
0.000209318
0.000254418
0.000302223
0.000361666
0.000445881
0.000553022
0.000667029
0.000773584
0.000861305
0.000902634
0.000862946
0.000688985
0.000400089
0.000148185
0.000116838
0.00011685
0.000153857
0.000180149
0.000376137
0.00345673
0.0859034
0.783818
0.94906
2.87961e-15
2.40037e-15
-1.50574e-15
-2.81086e-13
-1.70152e-12
4.7407e-06
2.74801e-05
6.69789e-05
0.000148386
0.000257293
0.000232391
9.08912e-05
6.71566e-05
9.87519e-05
0.000171138
0.000348146
0.000931355
0.00285451
0.00723546
0.0100226
0.00888887
0.00510509
0.00230017
0.00152849
0.00134906
0.00127442
0.00122877
0.00116862
0.00102131
0.000724731
0.000342581
0.000125289
0.000109963
0.000135117
0.000191568
0.000253966
0.000317199
0.000402925
0.000513125
0.000624119
0.000717575
0.000786828
0.000822401
0.000848282
0.000870133
0.000891476
0.000882199
0.000794871
0.000576012
0.000254525
0.00010817
0.000142408
0.000289335
0.00050794
0.000528009
0.000604357
0.00423074
0.10954
0.823941
0.975705
2.46946e-13
2.87042e-15
-7.00466e-12
-8.85716e-14
-2.23269e-11
-3.8218e-12
-2.63123e-12
-9.8584e-15
4.87832e-07
2.1599e-05
7.03258e-06
1.4548e-06
9.01283e-06
2.00489e-05
5.0627e-05
0.000268311
0.00146146
0.00627941
0.0181852
0.0250685
0.0220014
0.0115071
0.00297271
0.000923122
0.000627916
0.000532349
0.000506793
0.000511915
0.000493124
0.000403209
0.000245238
0.000135407
0.0001271
0.000158761
0.000222844
0.000229916
0.000211153
0.000193744
0.000193341
0.000202157
0.000229586
0.000264486
0.000296723
0.000331502
0.000368674
0.000405609
0.000439787
0.000443799
0.000401173
0.000248538
0.000100375
0.000115336
0.000315683
0.00035545
0.0002471
0.00013716
0.00321641
0.131518
0.855971
0.988635
1.72987e-08
2.00781e-08
2.5059e-07
7.36303e-07
1.06017e-06
1.67876e-08
-2.76194e-15
-2.35836e-14
-1.60359e-14
1.25304e-06
3.34298e-06
6.09175e-06
7.24127e-06
7.2403e-06
1.34528e-05
4.05269e-05
0.000112911
0.000513258
0.00547385
0.0413725
0.0705386
0.0590178
0.0269927
0.00388115
7.39462e-05
4.81826e-05
4.87352e-05
9.84475e-05
0.000179485
0.000190836
0.000160715
8.70533e-05
5.37309e-05
0.000125967
0.000358486
0.000368956
0.000177472
6.70605e-05
6.13197e-05
6.13335e-05
0.000271124
0.000781389
0.000781356
0.000672672
0.000246514
0.000187337
0.000270796
0.000252635
0.000141427
7.68893e-05
8.76811e-05
0.000203644
0.000370986
0.00020401
6.32334e-05
6.31899e-05
0.00146939
0.0973444
0.845869
0.988643
2.24743e-08
1.75249e-07
9.98099e-07
2.00605e-06
3.75661e-06
6.61363e-06
1.1747e-05
1.85026e-05
1.77856e-05
9.20174e-06
1.33502e-05
4.24428e-05
9.40468e-05
0.000132418
0.000126767
7.70937e-05
8.90181e-05
0.000249335
0.00134316
0.0115172
0.075531
0.167697
0.142807
0.0559326
0.00608727
0.000124256
5.00382e-05
5.06633e-05
5.99068e-05
0.000110058
0.000138958
0.00011689
5.83551e-05
6.38785e-05
0.000343104
0.000381686
0.000337767
0.000157289
7.2987e-05
6.85773e-05
7.06458e-05
0.000143194
0.000667097
0.000708896
0.000298774
7.85054e-05
8.82809e-05
0.000204817
0.000470513
0.00031883
0.000261447
0.000425755
0.000364257
0.000124836
6.32888e-05
6.32328e-05
0.00153438
0.0967161
0.843543
0.988645
1.57161e-14
5.87467e-14
-4.18554e-15
7.37802e-06
1.35965e-05
2.34761e-05
4.10919e-05
7.23652e-05
0.000139524
0.00035945
0.00114834
0.00316712
0.00556586
0.005841
0.00417402
0.00135957
0.000181095
0.000145876
0.000161963
0.00147667
0.0265734
0.205965
0.318078
0.207934
0.0524682
0.00387175
0.000385306
0.00037932
0.000408365
0.000406179
0.000372309
0.000271902
0.000134136
9.5072e-05
0.000125012
0.000201991
0.000223423
0.000209229
0.000205912
0.000219129
0.000236431
0.00025868
0.000318148
0.000358984
0.000346664
0.000311315
0.000316822
0.00044174
0.00064704
0.000536104
0.000396284
0.000676562
0.000851044
0.000609541
0.000247644
0.000307451
0.0053224
0.149921
0.861883
0.988659
9.04025e-14
-3.03172e-13
5.15074e-06
1.9567e-05
4.54681e-05
9.28541e-05
0.000151717
0.000256212
0.000531686
0.00153561
0.00596877
0.0224382
0.0389457
0.0347089
0.0200736
0.00558184
0.000570617
0.000222994
0.000317129
0.00106893
0.00434217
0.0204071
0.0987369
0.180316
0.137614
0.0413556
0.00320566
0.00022789
0.0001606
0.000125246
0.000106736
0.000115184
0.000180234
0.000336984
0.000471091
0.000292785
6.17597e-05
5.93745e-05
8.40342e-05
0.000112611
0.000155671
0.000282424
0.000513989
0.000559821
0.00047699
0.000385053
0.000320481
0.000306693
0.000325349
0.000322295
0.00037415
0.000853176
0.00100995
0.000686606
0.000194395
0.000250074
0.0059599
0.11536
0.800561
0.988659
9.32843e-15
2.31747e-13
-2.89336e-14
1.67158e-05
6.27345e-05
0.000127254
0.000234605
0.000499727
0.00141394
0.00464726
0.00885003
0.00739648
0.00213423
9.11351e-06
3.96683e-06
6.62052e-06
1.80982e-05
0.00011873
0.000849751
0.00333033
0.00698472
0.0104184
0.0165741
0.0214858
0.0185844
0.00777202
0.000920721
0.000176689
0.000194345
0.000287083
0.000528216
0.00062674
0.000546559
0.00030616
8.22127e-05
3.57266e-05
9.20314e-05
0.000891047
0.00129471
0.00129457
0.000732232
0.000148922
0.000261335
0.000411263
0.000347419
0.00030892
0.000496389
0.000494174
0.000489023
0.000684843
0.000720656
0.000720519
0.000629053
0.000311702
6.62167e-05
9.86268e-05
0.00334727
0.119937
0.803361
0.988658
2.14377e-10
5.20888e-10
4.53027e-10
1.39447e-16
3.73574e-16
3.79312e-16
-4.98632e-17
-1.43583e-15
1.2995e-14
3.38858e-11
2.28991e-07
8.10891e-06
6.18794e-06
4.33476e-06
3.97281e-06
4.63173e-06
4.00841e-06
5.22156e-07
-1.45886e-11
-1.2082e-11
9.63007e-12
6.75325e-05
0.000333551
0.000611408
0.000553711
0.000227005
4.34382e-05
5.85694e-05
0.000142681
0.000176972
0.000163277
0.000126786
6.4404e-05
2.61707e-05
2.6174e-05
0.00010968
0.00067432
0.000947387
0.000751236
0.000415003
0.00015685
5.78726e-05
7.27146e-05
8.17733e-05
7.22255e-05
8.93737e-05
0.000183326
0.000292755
0.000215525
0.00021523
0.000245342
0.000193375
0.000110197
3.85839e-05
2.812e-05
4.58562e-05
0.00269435
0.1119
0.692441
0.985525
1.01513e-18
1.42622e-10
2.29454e-10
2.0692e-10
2.17343e-10
1.56379e-10
8.92453e-11
4.7652e-11
3.31608e-11
2.97099e-11
5.60872e-12
-1.43402e-12
-1.19941e-11
1.50641e-15
6.80888e-15
2.07297e-14
4.76442e-14
2.21133e-09
1.95534e-09
4.838e-09
1.293e-08
5.20122e-13
3.31976e-08
3.31336e-08
1.48378e-06
8.76074e-06
1.76939e-05
2.96748e-05
3.38731e-05
2.32516e-05
1.67601e-05
1.55618e-05
1.88649e-05
2.40775e-05
3.08031e-05
4.40022e-05
6.54333e-05
6.23295e-05
4.17484e-05
2.03384e-05
1.17238e-05
1.07734e-05
1.00115e-05
7.95331e-06
7.6656e-06
1.21755e-05
2.45967e-05
3.9892e-05
3.42393e-05
3.59286e-05
3.43227e-05
3.73918e-05
4.02143e-05
2.9914e-05
2.26309e-05
0.000143141
0.00789031
0.0756927
0.264868
0.961647
-1.35604e-10
-1.09754e-10
-7.90742e-11
-3.44988e-11
-9.49514e-12
2.61178e-18
2.03298e-18
-1.01352e-18
-5.63779e-18
-8.66981e-18
5.60614e-17
8.60306e-13
2.95101e-17
4.5539e-12
3.44335e-10
9.48096e-10
1.33729e-09
2.31051e-09
8.75175e-09
3.9271e-08
1.39492e-07
4.1494e-07
9.15615e-07
1.44113e-06
1.96976e-06
2.49103e-06
2.94814e-06
1.62713e-06
5.0559e-07
2.02921e-07
1.73374e-07
3.03066e-07
5.42344e-07
4.35972e-07
6.92254e-08
8.09868e-08
2.28928e-07
3.99318e-07
4.75765e-07
4.59762e-07
4.4316e-07
3.82156e-07
2.59576e-07
2.59581e-07
4.7834e-07
1.23919e-06
3.3793e-06
8.36574e-06
2.20333e-05
7.25293e-05
0.000168906
0.00023879
0.000247445
0.000118023
0.000159447
0.00138864
0.0113711
0.0186621
0.0387917
0.923719
-1.81695e-10
-2.00079e-10
-2.32723e-10
-2.62986e-10
-2.9972e-10
-3.39535e-10
-3.8602e-10
-4.35737e-10
-4.90745e-10
-5.46754e-10
-6.03836e-10
-6.5059e-10
-6.86108e-10
-6.79326e-10
-6.02573e-10
-4.23352e-10
-1.96414e-10
1.13843e-15
3.00586e-09
1.22675e-08
3.71596e-08
8.95249e-08
1.68109e-07
2.31437e-07
1.7341e-07
7.22398e-08
1.60715e-08
9.57261e-13
8.81782e-14
-1.90433e-13
-4.55238e-14
3.74084e-15
-2.81606e-14
1.97e-14
-2.90677e-15
-3.19286e-15
-3.02654e-15
1.76188e-13
3.637e-09
1.04612e-08
2.1699e-08
4.35059e-08
9.77425e-08
2.73336e-07
8.28423e-07
2.65945e-06
9.49609e-06
3.29895e-05
9.69444e-05
0.000229437
0.000404608
0.00048466
0.000517946
0.000507396
0.000446357
0.000781753
0.00162835
0.000793136
0.00177249
0.47512
-1.39659e-10
-1.71417e-10
-2.22969e-10
-2.7857e-10
-3.39245e-10
-4.06705e-10
-4.83396e-10
-5.70352e-10
-6.66787e-10
-7.65627e-10
-8.6081e-10
-9.46799e-10
-1.03214e-09
-1.12007e-09
-1.22086e-09
-1.32444e-09
-1.38329e-09
-1.27814e-09
-9.85513e-10
-5.35336e-10
-5.594e-16
3.66499e-10
9.93091e-10
1.24435e-09
2.29677e-10
9.9371e-14
-1.4344e-09
-1.99317e-09
-2.04913e-09
-1.99561e-09
-1.84079e-09
-1.60204e-09
-1.28826e-09
-9.18334e-10
-5.41488e-10
-2.31246e-10
-4.42739e-11
2.37179e-11
5.15314e-10
3.89534e-09
1.84377e-08
6.9803e-08
2.33928e-07
7.19405e-07
2.03615e-06
5.31304e-06
1.3814e-05
3.66497e-05
9.11579e-05
0.00021699
0.000374567
0.000475839
0.000420995
0.000334152
0.000293961
0.000160274
2.32539e-05
1.87457e-06
7.49042e-06
0.0527902
-5.86699e-11
-6.79755e-11
-9.10283e-11
-1.19934e-10
-1.53277e-10
-1.89727e-10
-2.31369e-10
-2.77566e-10
-3.28545e-10
-3.81997e-10
-4.3671e-10
-4.92106e-10
-5.53912e-10
-6.25602e-10
-7.13934e-10
-8.16619e-10
-9.30183e-10
-1.04326e-09
-1.14357e-09
-1.21161e-09
-1.23048e-09
-1.21567e-09
-1.21844e-09
-1.2737e-09
-1.41558e-09
-1.61874e-09
-1.79781e-09
-1.81048e-09
-1.76646e-09
-1.6597e-09
-1.47843e-09
-1.22543e-09
-9.22312e-10
-6.12075e-10
-3.5287e-10
-1.82594e-10
-3.25168e-11
1.17375e-10
1.68157e-09
6.90411e-09
2.46268e-08
9.01334e-08
3.21895e-07
1.06381e-06
3.03302e-06
6.89454e-06
1.23124e-05
1.86309e-05
3.00128e-05
5.63726e-05
9.96732e-05
0.000127009
0.000139477
0.000131975
4.60585e-05
7.1227e-06
1.43084e-06
9.83619e-07
1.61372e-05
0.00187398
-1.16174e-11
-1.09143e-11
-1.45799e-11
-1.98879e-11
-2.66261e-11
-3.41029e-11
-4.29211e-11
-5.25565e-11
-6.34258e-11
-7.5106e-11
-8.79311e-11
-1.01978e-10
-1.18411e-10
-1.37971e-10
-1.61842e-10
-1.90096e-10
-2.22898e-10
-2.59616e-10
-3.00082e-10
-3.43279e-10
-3.88797e-10
-4.34925e-10
-4.81959e-10
-5.23538e-10
-5.57337e-10
-5.79878e-10
-5.87715e-10
-5.85893e-10
-5.76662e-10
-5.5711e-10
-5.24814e-10
-4.8196e-10
-4.32391e-10
-3.78513e-10
-3.18589e-10
-2.50881e-10
-1.76486e-10
-1.01884e-10
-6.06775e-11
-3.49467e-11
-9.5233e-12
1.91027e-15
4.04757e-09
3.52657e-08
1.35358e-07
3.91121e-07
8.72596e-07
1.47228e-06
1.85468e-06
1.56888e-06
7.84189e-07
5.52296e-07
4.396e-07
4.05909e-07
3.16953e-07
1.12396e-06
2.38206e-05
7.29165e-05
7.4543e-05
3.14986e-05
-3.86501e-12
-3.62792e-13
-4.98988e-13
-7.09899e-13
-1.07524e-12
-1.53593e-12
-2.11465e-12
-2.76497e-12
-3.51022e-12
-4.33293e-12
-5.28131e-12
-6.3886e-12
-7.75903e-12
-9.47944e-12
-1.16347e-11
-1.42659e-11
-1.74059e-11
-2.11032e-11
-2.5471e-11
-3.06316e-11
-3.68188e-11
-4.40969e-11
-5.2617e-11
-5.96463e-11
-6.42049e-11
-6.66951e-11
-6.85123e-11
-7.12219e-11
-7.55353e-11
-8.13559e-11
-8.84539e-11
-9.69783e-11
-1.071e-10
-1.18587e-10
-1.29479e-10
-1.35863e-10
-1.32235e-10
-1.13031e-10
-7.71135e-11
-3.3214e-11
-7.64053e-12
-1.31127e-12
-1.50526e-12
-1.31159e-16
8.08831e-10
5.39984e-09
1.45265e-08
3.01389e-08
4.27011e-08
2.899e-08
7.89502e-09
1.225e-09
4.18784e-11
-7.50777e-11
-7.48438e-10
1.60777e-06
9.42051e-05
0.000640362
0.00102308
0.000813661
-1.25166e-12
-2.334e-13
-3.02836e-13
-3.60173e-13
-4.5948e-13
-5.73458e-13
-7.23488e-13
-8.97062e-13
-1.11387e-12
-1.36608e-12
-1.67783e-12
-2.05108e-12
-2.51747e-12
-3.09993e-12
-3.83624e-12
-4.76205e-12
-5.91761e-12
-7.33795e-12
-9.05491e-12
-1.10792e-11
-1.34016e-11
-1.59657e-11
-1.86523e-11
-2.12565e-11
-2.3478e-11
-2.4945e-11
-2.52925e-11
-2.43096e-11
-2.21155e-11
-1.93375e-11
-1.68277e-11
-1.50564e-11
-1.40356e-11
-1.37273e-11
-1.40968e-11
-1.4995e-11
-1.57175e-11
-1.54098e-11
-1.3751e-11
-1.08769e-11
-7.68655e-12
-5.40646e-12
-4.52014e-12
-4.52981e-12
-3.87348e-12
-6.56192e-13
-1.05275e-14
-1.86881e-14
-2.3578e-14
1.91025e-14
8.21388e-12
4.92836e-11
1.63816e-10
2.87816e-10
1.7331e-10
2.16407e-08
1.55232e-06
7.59364e-05
0.000626829
0.00140236
-3.46667e-12
-4.57063e-12
-5.65274e-12
-7.24561e-12
-9.2336e-12
-1.14364e-11
-1.41156e-11
-1.71079e-11
-2.06919e-11
-2.46582e-11
-2.93325e-11
-3.45112e-11
-4.0593e-11
-4.75367e-11
-5.54782e-11
-6.43435e-11
-7.38137e-11
-8.3383e-11
-9.21533e-11
-9.88032e-11
-1.01813e-10
-9.93264e-11
-8.98772e-11
-7.25874e-11
-4.78055e-11
-1.75743e-11
1.592e-11
1.74592e-10
4.78176e-10
7.3298e-10
8.70086e-10
9.07431e-10
8.60087e-10
6.26805e-10
3.3623e-10
1.43585e-10
4.90062e-11
1.94241e-11
1.7704e-11
5.29164e-11
9.20028e-11
9.62722e-11
7.32433e-11
5.10069e-11
3.43014e-11
2.62349e-11
2.66055e-11
6.14657e-11
1.3139e-10
2.24412e-10
3.26027e-10
5.78224e-10
2.17461e-09
9.7312e-09
2.95165e-08
5.46524e-08
6.88505e-07
7.5375e-05
0.00149397
0.00543816
-6.45299e-12
-1.51812e-11
-2.07502e-11
-2.75065e-11
-3.51763e-11
-4.35821e-11
-5.27191e-11
-6.23928e-11
-7.24903e-11
-8.24162e-11
-9.19138e-11
-1.00001e-10
-1.06648e-10
-1.10826e-10
-1.11724e-10
-1.08241e-10
-9.99553e-11
-8.61448e-11
-6.55414e-11
-3.95076e-11
-8.31246e-12
3.42657e-11
2.30106e-10
4.61433e-10
6.49784e-10
7.35379e-10
7.19525e-10
2.12727e-09
2.06499e-08
7.70661e-08
1.09027e-07
1.13036e-07
1.10468e-07
1.0791e-07
7.10279e-08
1.61741e-08
8.55531e-09
8.87339e-09
1.02784e-08
1.75854e-08
3.03546e-08
3.82274e-08
3.8045e-08
2.72566e-08
1.51111e-08
1.33378e-08
3.33179e-08
7.86412e-08
1.95004e-07
5.05074e-07
1.25687e-06
2.80745e-06
5.97292e-06
1.19318e-05
2.00618e-05
2.47058e-05
7.16931e-06
1.71114e-05
0.000181709
0.00476975
-3.51027e-11
-5.41975e-11
-7.53508e-11
-9.80366e-11
-1.20353e-10
-1.43264e-10
-1.64907e-10
-1.8663e-10
-2.06913e-10
-2.26391e-10
-2.43456e-10
-2.57549e-10
-2.67578e-10
-2.71182e-10
-2.65303e-10
-2.47364e-10
-2.16023e-10
-1.7319e-10
-1.25283e-10
-8.48565e-11
-4.45617e-11
-6.33787e-12
3.19926e-11
1.55192e-10
3.04808e-10
5.70939e-10
1.51912e-09
5.97136e-09
1.89145e-08
3.21028e-08
3.931e-08
3.94496e-08
4.00645e-08
3.81677e-08
3.26921e-08
2.86067e-08
3.48229e-08
6.22845e-08
1.38082e-07
2.79089e-07
3.85907e-07
4.36076e-07
4.49616e-07
4.63622e-07
5.74944e-07
7.97074e-07
1.46489e-06
3.49886e-06
1.09383e-05
3.95124e-05
0.000161558
0.000374329
0.000597847
0.000867159
0.00113068
0.000860874
0.000327077
9.03104e-05
0.000286086
0.0516343
-1.03224e-10
-1.45932e-10
-1.94055e-10
-2.37238e-10
-2.76065e-10
-3.1052e-10
-3.38026e-10
-3.62091e-10
-3.7574e-10
-3.7917e-10
-3.79326e-10
-3.70907e-10
-3.57819e-10
-3.4383e-10
-3.37486e-10
-3.26425e-10
-3.0131e-10
-2.54029e-10
-1.88018e-10
-1.16969e-10
-5.80894e-11
-1.43895e-11
5.25325e-12
8.24513e-11
2.80332e-10
6.46666e-10
1.38235e-09
2.60233e-09
4.09272e-09
5.95915e-09
9.12231e-09
9.99787e-09
8.46918e-09
9.07821e-09
1.26007e-08
1.7767e-08
2.50018e-08
3.71528e-08
7.24588e-08
1.60035e-07
3.42739e-07
4.18052e-07
5.48658e-07
1.04625e-06
2.57886e-06
1.22489e-05
9.44247e-05
0.00036112
0.000579585
0.000731719
0.000842409
0.000842448
0.000844768
0.000844749
0.000742717
0.00114749
0.00154627
0.000866141
0.0026212
0.440579
-1.11253e-10
-1.25256e-10
-1.21189e-10
-1.10412e-10
-1.03371e-10
-1.03012e-10
-7.86825e-11
-2.39298e-11
9.86384e-19
-1.45715e-18
-6.14754e-18
-3.11112e-17
-2.57565e-17
1.44033e-11
4.0179e-11
2.50508e-11
2.04815e-11
3.85928e-11
5.16116e-11
7.20564e-11
1.9834e-10
6.41545e-10
1.94462e-09
5.15292e-09
1.06559e-08
1.80932e-08
2.68157e-08
3.44412e-08
3.90213e-08
4.03143e-08
3.89473e-08
3.3637e-08
2.54821e-08
1.74176e-08
1.63405e-08
4.63042e-08
8.75131e-08
1.2138e-07
1.45483e-07
2.27332e-07
3.19584e-07
4.12212e-07
7.97974e-07
3.69994e-06
2.44296e-05
0.000125262
0.000221266
0.000221264
0.000264942
0.000327165
0.000480535
0.000624534
0.000527731
0.000217151
8.50695e-05
0.000196472
0.00198484
0.00353013
0.0179519
0.914819
-5.58024e-11
-6.91402e-12
2.93093e-17
6.41471e-17
1.47848e-16
8.39642e-10
3.17808e-09
5.99202e-09
9.20753e-09
1.49067e-08
2.5656e-08
4.53308e-08
7.76803e-08
1.23943e-07
1.69127e-07
1.92147e-07
1.95113e-07
1.81323e-07
1.69115e-07
1.59197e-07
1.56021e-07
1.72409e-07
2.03022e-07
2.39952e-07
2.89554e-07
3.58233e-07
4.4825e-07
5.62792e-07
7.09444e-07
8.81326e-07
1.03668e-06
1.1596e-06
1.2579e-06
1.28508e-06
1.24991e-06
1.24568e-06
1.39022e-06
1.49188e-06
1.36829e-06
1.05607e-06
8.16085e-07
6.44082e-07
8.20647e-07
2.84766e-06
1.14556e-05
2.80757e-05
4.12169e-05
3.45672e-05
4.49273e-05
6.15301e-05
9.85713e-05
0.00012742
9.56593e-05
1.85884e-05
9.5904e-08
1.78374e-05
0.00308485
0.0285793
0.167379
0.966961
7.21778e-10
1.08726e-08
3.74697e-08
8.21807e-08
1.19121e-07
1.20068e-07
1.2986e-07
1.72153e-07
2.50489e-07
4.12543e-07
6.75744e-07
9.7913e-07
1.35659e-06
1.84842e-06
2.43237e-06
2.94067e-06
3.0759e-06
2.92738e-06
2.97489e-06
3.07143e-06
3.0614e-06
2.98102e-06
3.00557e-06
3.21786e-06
3.62796e-06
4.20444e-06
4.89437e-06
5.63012e-06
6.46831e-06
7.62532e-06
9.088e-06
9.7747e-06
9.63544e-06
1.02017e-05
1.13304e-05
1.21088e-05
1.18789e-05
1.19406e-05
1.302e-05
1.41315e-05
1.40759e-05
1.2848e-05
1.02149e-05
7.86862e-06
8.15266e-06
8.24239e-06
1.26372e-05
2.81282e-05
4.06727e-05
4.99932e-05
4.45336e-05
2.48636e-05
9.76107e-06
1.42034e-06
9.14975e-07
3.11153e-05
0.00378734
0.138908
0.676642
0.9907
5.32341e-09
5.46887e-08
9.51379e-08
9.99626e-08
8.65754e-08
2.80049e-07
4.30797e-07
4.7984e-07
4.76867e-07
4.66731e-07
6.54857e-07
1.68466e-06
3.45034e-06
5.25241e-06
6.76574e-06
7.91963e-06
1.05494e-05
1.45874e-05
1.85359e-05
2.12829e-05
2.263e-05
2.26871e-05
2.23319e-05
2.17871e-05
2.13968e-05
2.16668e-05
2.32132e-05
2.68937e-05
3.34695e-05
4.21455e-05
4.99262e-05
5.65198e-05
6.5853e-05
7.98756e-05
9.57942e-05
0.000105281
0.000104499
0.000102718
9.98551e-05
9.2987e-05
8.33991e-05
8.07734e-05
8.63539e-05
0.000104413
0.000123707
0.000126001
0.000122554
0.000115042
0.000126329
0.000157284
0.000204822
0.000246469
0.000259678
0.000181498
4.04694e-05
6.11275e-05
0.00392518
0.27857
0.893258
0.993093
7.62416e-15
2.81211e-15
-1.14145e-16
-2.0682e-15
-2.77152e-15
-4.49283e-15
1.27723e-12
6.40526e-11
5.22828e-09
1.47801e-05
4.00229e-05
6.52595e-05
3.44254e-05
5.25292e-06
5.30137e-06
1.77823e-05
5.81911e-05
9.53821e-05
0.000124047
0.000150983
0.000208562
0.000290648
0.00037706
0.000452775
0.000493391
0.000475654
0.000436416
0.000433061
0.000442551
0.000422116
0.00035154
0.000253844
0.000199395
0.000197096
0.000211417
0.00024748
0.00032387
0.000445466
0.00062062
0.000855735
0.00116682
0.00156853
0.00201072
0.00235131
0.00251541
0.00257519
0.00255326
0.0023762
0.00194481
0.00129536
0.000710038
0.000641903
0.000720425
0.000802093
0.000643931
0.00084092
0.00546361
0.222853
0.887415
0.993098
3.09932e-14
8.31777e-16
-6.95148e-16
3.60566e-06
6.51054e-05
0.000295643
0.000955983
0.00147879
0.0013916
0.00135293
0.00122182
0.000825332
0.000728653
0.000956531
0.00136822
0.00160991
0.0020651
0.00234596
0.00102275
0.000222848
0.000180336
0.00018995
0.000194736
0.000197417
0.00019232
0.000188587
0.000180964
0.000177784
0.000179561
0.000181662
0.000181147
0.000177945
0.000179767
0.00019627
0.000246458
0.000342386
0.000450014
0.000540846
0.000608524
0.000668344
0.000753742
0.00089459
0.00111299
0.00144198
0.00181839
0.00202214
0.00203271
0.00190806
0.00158662
0.00107827
0.00074884
0.000754812
0.00074923
0.000651582
0.000391875
0.000710501
0.007655
0.172961
0.866207
0.993102
3.14007e-13
2.10872e-13
2.12105e-05
7.06818e-05
0.000163115
0.000400128
0.00116964
0.00329146
0.00919264
0.0218675
0.0299725
0.0300062
0.0328551
0.0590981
0.161126
0.227413
0.174532
0.0576132
0.00464257
0.000368877
0.000552994
0.000412543
0.000151039
0.000128543
0.000183512
0.000213875
0.000180422
9.27362e-05
3.24529e-05
2.89078e-05
0.0001193
0.000335273
0.000335274
0.000335277
0.00030732
0.000311254
0.000344532
0.000379308
0.000415242
0.000452565
0.000493553
0.000559246
0.000703193
0.000962897
0.00111289
0.00108445
0.000944695
0.000724617
0.000441836
0.000316067
0.000458599
0.000942659
0.000727486
0.000290889
8.8224e-05
0.000303612
0.00719429
0.149695
0.866802
0.993102
2.7588e-14
-4.62388e-14
4.70235e-07
1.08083e-06
4.73941e-07
1.63034e-12
1.62166e-05
0.00019708
0.000596702
0.00102301
0.00118771
0.0014197
0.00274848
0.00880869
0.0285821
0.0555959
0.0550042
0.0334705
0.0127698
0.00723631
0.00428999
0.00152731
0.000225541
8.40206e-05
0.000106958
0.000152815
0.000155468
0.000127072
6.82706e-05
3.44045e-05
3.51064e-05
0.000136857
0.000334726
0.000335279
0.000148118
9.06014e-05
0.000175778
0.0002427
0.000241677
0.000236001
0.000233621
0.000226335
0.000226111
0.000251221
0.00037502
0.000612891
0.000671443
0.000600674
0.000408597
0.000315976
0.000441215
0.00119179
0.000825441
0.000333907
8.82479e-05
0.000233749
0.00575471
0.116878
0.850134
0.993102
1.29273e-14
1.25384e-14
5.16449e-15
3.16927e-15
-7.58043e-15
-5.10101e-14
-4.15425e-14
-7.78768e-11
9.05431e-10
1.04365e-08
4.45273e-08
6.55458e-05
0.000178342
0.000435591
0.00109408
0.00257385
0.00658575
0.0161661
0.0259899
0.0240189
0.0127793
0.00260961
0.000200366
7.78247e-05
7.67557e-05
7.43471e-05
7.08815e-05
7.08803e-05
7.22788e-05
7.48251e-05
8.08721e-05
8.83642e-05
0.000110916
0.00015194
0.00018776
0.00020385
0.000211092
0.000222693
0.000234211
0.000235403
0.000229126
0.000211324
0.00020009
0.000201393
0.000217702
0.000285803
0.000397634
0.000418648
0.00037066
0.000274513
0.000290205
0.000412177
0.000507123
0.000432434
0.00020436
0.000391952
0.00575623
0.13308
0.856333
0.993099
1.17866e-07
2.58531e-07
8.43889e-07
5.84309e-07
7.8823e-07
1.06321e-06
1.40927e-06
9.55285e-07
2.01807e-08
4.14117e-10
1.04556e-08
9.9652e-06
1.79473e-05
4.42332e-05
0.000131456
0.000438438
0.001885
0.00594806
0.00766526
0.00593033
0.00213216
0.000204475
5.36473e-06
4.08869e-06
4.09227e-06
4.09019e-06
4.09257e-06
4.09945e-06
4.10159e-06
4.10906e-06
2.33981e-05
7.63375e-05
0.000145292
0.000205501
0.000232318
0.000224965
0.000147613
0.000106507
0.000123607
0.000129178
0.000135586
0.00015437
0.000156765
0.000148954
0.000130953
9.97748e-05
6.88872e-05
6.28004e-05
7.12429e-05
0.000111931
0.000217065
0.000438594
0.000623003
0.000534917
0.00018848
0.000169295
0.00250501
0.128469
0.848502
0.99309
9.45695e-07
2.79266e-06
3.24603e-06
3.38439e-06
3.44038e-06
3.6047e-06
3.03993e-06
2.54527e-06
2.06321e-06
1.89442e-06
2.30758e-06
3.26008e-06
5.12172e-06
1.37443e-05
4.10871e-05
0.000102206
0.000246113
0.00038606
0.000314533
0.000151182
7.76829e-05
9.09911e-05
0.000138556
0.000174838
0.000174178
0.000148414
9.30827e-05
8.66697e-05
0.000178955
0.000265887
0.000263961
0.000120002
6.81578e-05
0.000124111
0.000660364
0.000614256
0.000245459
9.42066e-05
9.76828e-05
0.000249073
0.00074576
0.000563278
0.000314128
0.000639204
0.000542762
0.000171711
6.29129e-05
6.28027e-05
7.0217e-05
0.000132465
0.000537382
0.00123873
0.000922702
0.000348617
3.9197e-05
2.05075e-05
0.000595609
0.0638297
0.771036
0.990329
6.22252e-08
1.79729e-14
5.21022e-13
-1.05051e-15
-8.59758e-16
5.12176e-15
3.7768e-15
-5.28336e-15
-2.04376e-14
4.7881e-07
1.52808e-06
1.47159e-06
1.30828e-06
5.89989e-07
5.90296e-07
5.68881e-06
2.8005e-05
1.19937e-05
4.73671e-06
4.78055e-06
4.84152e-06
9.6501e-06
1.04397e-05
1.02174e-05
1.3957e-05
2.06666e-05
3.1819e-05
6.49625e-05
0.000155242
0.000182784
0.00012677
6.36885e-05
7.93004e-05
0.000156009
0.000180297
0.000146709
9.40253e-05
8.72754e-05
0.00010753
0.00018933
0.000276878
0.000256146
0.000169806
0.000182138
0.000203848
0.000261371
0.000391626
0.000489542
0.000522588
0.000543419
0.000469926