/*--------------------------------*- C++ -*----------------------------------*\
| =========                 |                                                 |
| \\      /  F ield         | OpenFOAM: The Open Source CFD Toolbox           |
|  \\    /   O peration     | Version:  2.1.1                                 |
|   \\  /    A nd           | Web:      www.OpenFOAM.org                      |
|    \\/     M anipulation  |                                                 |
\*---------------------------------------------------------------------------*/
FoamFile
{
    version     2.0;
    format      ascii;
    class       volScalarField;
    location    "0.0014";
    object      criterion2;
}
// * * * * * * * * * * * * * * * * * * * * * * * * * * * * * * * * * * * * * //

dimensions      [1 2 -2 0 0 0 0];

internalField   nonuniform List<scalar> 
36520
(
4.14698e-09
7.09455e-09
1.09592e-08
1.2278e-08
1.32661e-08
1.39333e-08
1.44949e-08
1.49636e-08
1.53661e-08
1.56972e-08
1.59458e-08
1.61457e-08
1.63138e-08
1.65123e-08
1.67407e-08
1.70284e-08
1.73543e-08
1.77042e-08
1.80293e-08
1.82599e-08
1.82738e-08
1.79549e-08
1.73e-08
1.64218e-08
1.54886e-08
1.46914e-08
1.41021e-08
1.36815e-08
1.33436e-08
1.30434e-08
1.27539e-08
1.2474e-08
1.21925e-08
1.19208e-08
1.16677e-08
1.14546e-08
1.12977e-08
1.12189e-08
1.12227e-08
1.13307e-08
1.15625e-08
1.19122e-08
1.2411e-08
1.31083e-08
1.39637e-08
1.4943e-08
1.60626e-08
1.72769e-08
1.87044e-08
2.06731e-08
2.40028e-08
2.98153e-08
3.84109e-08
4.79905e-08
5.12013e-08
5.04173e-08
6.39202e-08
9.98097e-08
1.68015e-07
2.51994e-07
1.63529e-08
2.77047e-09
4.02368e-09
3.81032e-09
3.81763e-09
3.7501e-09
3.78489e-09
3.80328e-09
3.84285e-09
3.8456e-09
3.82267e-09
3.75575e-09
3.67963e-09
3.61223e-09
3.56042e-09
3.55117e-09
3.58453e-09
3.69439e-09
3.88409e-09
4.05858e-09
3.89243e-09
3.26612e-09
3.30519e-09
4.04838e-09
4.07414e-09
3.35285e-09
2.85761e-09
2.74072e-09
2.80922e-09
2.95013e-09
3.09887e-09
3.27283e-09
3.47147e-09
3.76124e-09
4.13623e-09
4.60639e-09
5.1499e-09
5.71932e-09
6.21284e-09
6.52447e-09
6.62251e-09
6.54516e-09
6.42585e-09
6.38028e-09
6.38748e-09
6.43476e-09
6.45023e-09
6.30277e-09
5.91017e-09
5.42438e-09
5.06215e-09
4.88814e-09
4.93721e-09
5.28255e-09
7.07026e-09
1.53253e-08
2.87781e-08
3.20817e-08
7.02513e-08
2.44649e-07
8.80271e-09
-1.51112e-09
-6.92426e-10
-7.35485e-10
-6.63491e-10
-6.14031e-10
-4.70478e-10
-3.19362e-10
-1.30473e-10
5.06129e-12
5.47555e-11
1.1579e-11
-4.80245e-11
-6.81688e-11
-2.23485e-11
1.03842e-10
2.72529e-10
4.65044e-10
6.79358e-10
9.01976e-10
1.08598e-09
1.19076e-09
9.07768e-10
4.32847e-10
8.27099e-11
-5.01208e-11
5.01154e-11
4.33303e-10
1.04931e-09
1.75806e-09
2.27781e-09
2.57012e-09
2.69916e-09
2.76624e-09
2.81988e-09
2.8874e-09
2.95148e-09
2.99804e-09
3.00772e-09
2.98457e-09
2.93709e-09
2.84233e-09
2.71777e-09
2.61399e-09
2.53979e-09
2.56264e-09
2.70994e-09
2.99749e-09
3.47224e-09
4.24757e-09
5.12512e-09
5.84509e-09
5.94222e-09
5.49836e-09
5.46925e-09
5.04249e-09
6.3783e-09
6.57248e-09
1.91953e-08
1.0608e-08
1.43759e-09
-3.32415e-09
-2.41193e-09
-2.15419e-09
-1.9541e-09
-1.74464e-09
-1.50824e-09
-1.2422e-09
-9.80796e-10
-7.71006e-10
-6.20358e-10
-5.06123e-10
-3.70906e-10
-1.50878e-10
2.17659e-10
8.16239e-10
1.72215e-09
2.97448e-09
4.51309e-09
6.09356e-09
7.30879e-09
7.70306e-09
6.12162e-09
3.57303e-09
1.55129e-09
4.59916e-10
-5.32597e-11
-2.53698e-10
-3.28797e-10
-3.43097e-10
-3.17132e-10
-2.52057e-10
-1.75975e-10
-9.87701e-11
-2.37705e-11
7.52247e-11
2.07314e-10
3.68462e-10
5.46829e-10
7.60095e-10
1.03183e-09
1.2648e-09
1.36207e-09
1.29596e-09
1.12396e-09
9.69852e-10
9.28551e-10
1.13826e-09
1.706e-09
2.77424e-09
4.40319e-09
5.90962e-09
5.3369e-09
4.08053e-09
2.80007e-09
2.92918e-09
3.83762e-09
1.03978e-08
4.52152e-09
1.66701e-09
-4.4162e-09
-3.33619e-09
-2.36688e-09
-1.8734e-09
-1.58288e-09
-1.3375e-09
-1.09735e-09
-8.04179e-10
-4.34641e-10
1.46714e-11
5.52078e-10
1.22294e-09
2.13423e-09
3.48527e-09
5.53508e-09
8.58826e-09
1.29488e-08
1.87001e-08
2.53583e-08
3.15302e-08
3.49027e-08
3.3818e-08
2.78994e-08
1.9363e-08
1.18075e-08
7.28274e-09
5.07043e-09
4.05414e-09
3.45856e-09
2.97733e-09
2.60344e-09
2.3848e-09
2.28742e-09
2.20432e-09
2.06683e-09
1.89861e-09
1.74748e-09
1.63104e-09
1.5872e-09
1.60088e-09
1.37424e-09
9.92987e-10
5.283e-10
6.32503e-10
9.06057e-10
9.72285e-10
9.31979e-10
9.32551e-10
1.17662e-09
1.75096e-09
2.78056e-09
4.23481e-09
5.34971e-09
3.23203e-09
1.17381e-09
7.01968e-10
7.01916e-10
2.25671e-09
9.72619e-10
8.85716e-10
2.45758e-10
-2.01266e-09
-1.54341e-09
-1.25386e-09
-9.65133e-10
-5.49149e-10
5.74191e-11
9.82732e-10
2.33749e-09
4.18125e-09
6.42536e-09
9.01353e-09
1.20543e-08
1.60128e-08
2.1492e-08
2.90142e-08
3.89995e-08
5.13074e-08
6.52697e-08
7.87475e-08
8.70744e-08
8.51964e-08
7.65455e-08
6.32454e-08
4.8928e-08
3.81949e-08
3.16831e-08
2.82929e-08
2.62757e-08
2.47131e-08
2.35415e-08
2.30535e-08
2.33474e-08
2.40046e-08
2.43902e-08
2.4031e-08
2.32935e-08
2.20575e-08
2.08451e-08
1.96808e-08
1.74456e-08
1.44673e-08
1.03445e-08
5.55925e-09
3.20651e-09
2.34658e-09
1.93259e-09
1.60924e-09
1.69843e-09
2.0468e-09
2.51507e-09
3.11763e-09
4.00532e-09
4.10147e-09
1.60647e-09
3.1322e-10
9.93258e-11
9.86971e-11
2.20566e-11
6.29227e-10
1.72643e-08
-1.31369e-09
-6.75955e-10
5.55502e-11
1.00446e-09
2.43707e-09
4.51579e-09
7.53394e-09
1.16881e-08
1.67186e-08
2.17707e-08
2.65272e-08
3.11188e-08
3.65563e-08
4.38675e-08
5.37088e-08
6.70499e-08
8.12011e-08
9.5698e-08
1.0941e-07
1.18175e-07
1.19058e-07
1.16487e-07
1.12408e-07
1.04677e-07
9.44955e-08
8.56594e-08
7.87978e-08
7.33605e-08
6.85831e-08
6.41327e-08
6.07914e-08
5.908e-08
5.89274e-08
5.99526e-08
6.13234e-08
6.28301e-08
6.34481e-08
6.19862e-08
5.94656e-08
5.58952e-08
5.05464e-08
4.39503e-08
3.41082e-08
2.59747e-08
2.09866e-08
1.73455e-08
1.35346e-08
9.46117e-09
6.22201e-09
4.55857e-09
2.38773e-09
2.26171e-09
2.64579e-09
4.36075e-09
5.03631e-09
5.18296e-10
3.11328e-11
2.69794e-12
4.32843e-10
2.39886e-08
4.81015e-11
1.39713e-09
3.40543e-09
5.9125e-09
9.55328e-09
1.40939e-08
2.00831e-08
2.6943e-08
3.4347e-08
4.02202e-08
4.50173e-08
4.97188e-08
5.52164e-08
6.17659e-08
6.94542e-08
7.74545e-08
8.45778e-08
9.16477e-08
9.96881e-08
1.08929e-07
1.15214e-07
1.15839e-07
1.21465e-07
1.30559e-07
1.30168e-07
1.25081e-07
1.1919e-07
1.12949e-07
1.06012e-07
9.88028e-08
9.18986e-08
8.62326e-08
8.2231e-08
8.06082e-08
8.0634e-08
7.95291e-08
6.93341e-08
6.65123e-08
6.76685e-08
7.15338e-08
6.81185e-08
6.18145e-08
5.42058e-08
4.59018e-08
3.79469e-08
3.05612e-08
2.41381e-08
1.91809e-08
1.55082e-08
1.25058e-08
9.55403e-09
8.33343e-09
9.10319e-09
1.08266e-08
9.86663e-09
3.19304e-09
1.49549e-11
-1.11367e-12
3.47619e-10
1.29294e-07
2.24346e-09
5.38561e-09
9.47375e-09
1.32001e-08
1.85282e-08
2.22299e-08
2.58441e-08
2.93245e-08
3.26345e-08
3.61903e-08
3.93552e-08
4.24722e-08
4.51828e-08
4.58398e-08
3.94208e-08
2.45935e-08
1.233e-08
7.68577e-09
7.85764e-09
1.10143e-08
2.26086e-08
4.03947e-08
5.21752e-08
6.14555e-08
7.14133e-08
8.18055e-08
9.05734e-08
9.77349e-08
1.01494e-07
9.91559e-08
9.39016e-08
8.74395e-08
8.11256e-08
7.66262e-08
7.37313e-08
7.1515e-08
6.89479e-08
6.60416e-08
6.29675e-08
5.91236e-08
5.38746e-08
4.7515e-08
4.09212e-08
3.45341e-08
2.86439e-08
2.3852e-08
2.03808e-08
1.87353e-08
1.90456e-08
1.9941e-08
1.8054e-08
1.86637e-08
1.93091e-08
1.82466e-08
1.07048e-08
1.13642e-09
-2.86013e-12
-8.13839e-12
3.21231e-10
2.20215e-07
1.21065e-09
4.07244e-09
6.61932e-09
9.48909e-09
1.19171e-08
1.3797e-08
1.53466e-08
1.63297e-08
1.70831e-08
1.99117e-08
2.52906e-08
2.81472e-08
2.99313e-08
3.14121e-08
3.05679e-08
2.25619e-08
1.0405e-08
4.27098e-09
3.25306e-09
4.07169e-09
8.1675e-09
1.95518e-08
2.91121e-08
3.33729e-08
3.61272e-08
3.83567e-08
4.10281e-08
4.63634e-08
5.84949e-08
8.18828e-08
1.01839e-07
1.00362e-07
9.19951e-08
8.11407e-08
7.22197e-08
6.58769e-08
6.03465e-08
5.52031e-08
5.11598e-08
4.82698e-08
4.61059e-08
4.44514e-08
4.23301e-08
3.94665e-08
3.56413e-08
3.17516e-08
2.87741e-08
2.7752e-08
2.90515e-08
2.65977e-08
2.18955e-08
1.99358e-08
1.73296e-08
1.67125e-08
1.09004e-08
1.15041e-09
-2.41451e-13
-6.13331e-12
3.42876e-10
1.1189e-07
2.96425e-10
5.20729e-09
8.77446e-09
1.09278e-08
1.28407e-08
1.47461e-08
1.74285e-08
2.12977e-08
2.51555e-08
2.92676e-08
3.17311e-08
3.35313e-08
3.64959e-08
4.0506e-08
3.74418e-08
1.83133e-08
4.83934e-09
1.59625e-09
1.24791e-09
1.55166e-09
3.39931e-09
1.60161e-08
4.37512e-08
5.69428e-08
6.4458e-08
6.87132e-08
7.08857e-08
7.41503e-08
8.21779e-08
9.71245e-08
1.09641e-07
1.0952e-07
1.01827e-07
8.95867e-08
8.3733e-08
8.18138e-08
8.19335e-08
8.22884e-08
8.25951e-08
8.14097e-08
7.91979e-08
7.64072e-08
7.24714e-08
6.74183e-08
6.13323e-08
5.42261e-08
4.72118e-08
4.07376e-08
3.67681e-08
3.1389e-08
2.3133e-08
1.74995e-08
1.84496e-08
2.05645e-08
1.42182e-08
1.17519e-09
-2.03118e-12
-5.3951e-12
2.87917e-10
2.76544e-08
8.93046e-10
2.82829e-09
4.86986e-09
6.77293e-09
1.01308e-08
1.33757e-08
1.77603e-08
2.29396e-08
2.78204e-08
3.12491e-08
3.32604e-08
3.5052e-08
3.82159e-08
4.30476e-08
4.85979e-08
5.20184e-08
3.99614e-08
6.43941e-09
7.81395e-10
5.48126e-10
6.70669e-10
1.45181e-09
1.33358e-08
9.87019e-08
1.06277e-07
1.11244e-07
1.08825e-07
1.02218e-07
1.02962e-07
1.0786e-07
1.17717e-07
1.2146e-07
1.0892e-07
8.20554e-08
7.59696e-08
8.68324e-08
9.5379e-08
9.54912e-08
9.58777e-08
7.77562e-08
5.11189e-08
5.06162e-08
5.33333e-08
7.3604e-08
7.27549e-08
6.00634e-08
5.18569e-08
4.54433e-08
3.42464e-08
2.1078e-08
1.21709e-08
1.00344e-08
1.62911e-08
2.24104e-08
1.49342e-08
2.17044e-09
2.35349e-12
-3.01784e-12
2.81152e-10
3.02928e-08
1.00063e-09
2.19691e-09
3.65006e-09
5.15897e-09
8.17512e-09
1.1546e-08
1.61142e-08
2.16399e-08
2.74583e-08
3.14243e-08
3.22951e-08
3.10105e-08
3.0356e-08
3.2644e-08
3.89918e-08
4.46314e-08
4.30301e-08
2.15316e-08
2.61233e-09
4.59022e-10
3.22754e-10
3.81108e-10
7.59668e-10
8.4832e-09
9.99902e-08
1.14403e-07
1.1807e-07
1.19117e-07
1.14264e-07
1.11871e-07
1.14983e-07
1.21723e-07
1.17283e-07
8.34916e-08
7.53843e-08
7.4485e-08
8.65534e-08
9.41565e-08
9.50742e-08
9.5117e-08
8.72072e-08
5.34088e-08
4.99367e-08
6.6525e-08
7.58339e-08
6.33781e-08
4.18724e-08
2.15164e-08
1.55537e-08
1.05796e-08
7.72006e-09
1.20029e-08
2.19149e-08
2.50615e-08
1.62762e-08
2.15864e-09
3.77759e-12
-8.2381e-13
2.7617e-10
1.11807e-07
6.3267e-10
5.21658e-09
7.43109e-09
7.94372e-09
9.97424e-09
1.24655e-08
1.54566e-08
1.80613e-08
1.76791e-08
1.12135e-08
4.89934e-09
2.75187e-09
2.65946e-09
3.94183e-09
1.18583e-08
3.1461e-08
3.71922e-08
4.14199e-08
1.76536e-08
9.2565e-10
2.47173e-10
2.44154e-10
3.16744e-10
8.03809e-10
1.43726e-08
8.11782e-08
8.63935e-08
8.68981e-08
8.85302e-08
9.1839e-08
1.004e-07
1.13301e-07
1.13585e-07
1.02894e-07
8.88214e-08
8.32268e-08
8.25572e-08
8.26377e-08
8.19771e-08
8.07175e-08
7.82522e-08
7.19622e-08
6.61237e-08
6.2611e-08
5.88732e-08
5.07967e-08
3.63965e-08
2.21483e-08
1.59016e-08
1.17637e-08
7.38031e-09
7.82213e-09
1.22341e-08
1.72984e-08
1.07717e-08
7.29312e-10
8.0098e-12
7.44203e-13
2.82255e-10
2.56791e-07
7.11397e-10
2.24485e-09
5.16167e-09
6.53745e-09
7.86206e-09
9.08605e-09
9.85886e-09
8.9468e-09
5.09162e-09
1.38182e-09
3.23513e-10
2.18641e-10
3.02944e-10
6.44488e-10
3.23647e-09
2.46713e-08
3.84834e-08
3.98014e-08
2.46181e-08
7.42085e-09
1.38817e-09
3.88622e-10
3.15243e-10
3.96816e-10
1.03259e-09
1.81418e-08
9.72715e-08
1.08782e-07
1.14372e-07
1.16028e-07
1.125e-07
1.00276e-07
8.01837e-08
6.65428e-08
7.44505e-08
9.15093e-08
8.96251e-08
8.56936e-08
8.15576e-08
7.56047e-08
6.34863e-08
4.81615e-08
4.23346e-08
4.07427e-08
3.84002e-08
3.42061e-08
2.77902e-08
2.10813e-08
1.60216e-08
1.18805e-08
6.78915e-09
7.03103e-09
1.0438e-08
1.59687e-08
1.06833e-08
7.3206e-10
1.51002e-11
1.90593e-13
3.04538e-10
1.88209e-07
1.23976e-09
3.10677e-09
6.21154e-09
9.03506e-09
1.11655e-08
1.26934e-08
1.24162e-08
8.15987e-09
3.03383e-09
1.67999e-09
2.46143e-09
1.0847e-08
5.10058e-08
5.42937e-08
5.85092e-08
6.47606e-08
6.59549e-08
3.94646e-08
1.40001e-08
6.61494e-09
4.32951e-09
2.61583e-09
2.02936e-09
2.49353e-09
7.16466e-09
5.58379e-08
1.06158e-07
1.04949e-07
9.4418e-08
7.36325e-08
6.45844e-08
6.46856e-08
7.54214e-08
9.07582e-08
9.22412e-08
8.34457e-08
4.04448e-08
3.03221e-08
2.89664e-08
3.90765e-08
5.99063e-08
4.81593e-08
3.70032e-08
3.38476e-08
3.00118e-08
2.16263e-08
1.84218e-08
1.55023e-08
1.11453e-08
9.62014e-09
9.21027e-09
1.09806e-08
1.58326e-08
1.90369e-08
1.255e-08
1.30815e-09
1.74211e-11
3.14644e-12
3.07084e-10
2.45653e-08
2.27702e-10
1.76075e-09
4.18666e-09
7.28163e-09
1.11897e-08
1.61267e-08
2.34567e-08
3.35115e-08
4.20616e-08
4.64845e-08
4.67283e-08
4.609e-08
4.66976e-08
5.06093e-08
5.90411e-08
7.16122e-08
8.64628e-08
1.00982e-07
1.1277e-07
1.20484e-07
1.16167e-07
9.1307e-08
7.2893e-08
7.62799e-08
1.01976e-07
1.24704e-07
1.22394e-07
1.08918e-07
1.00191e-07
9.58085e-08
9.36956e-08
9.49038e-08
9.48772e-08
9.16513e-08
8.07868e-08
4.7275e-08
3.83282e-08
4.32485e-08
5.49846e-08
6.67973e-08
6.84919e-08
6.0024e-08
5.10032e-08
4.24024e-08
3.36446e-08
2.50425e-08
1.87141e-08
1.69753e-08
1.48357e-08
1.35864e-08
1.42944e-08
1.71757e-08
2.01741e-08
1.87683e-08
1.4995e-08
2.12166e-09
2.83771e-11
4.86683e-12
3.87934e-10
1.79785e-08
-1.32795e-09
-7.9998e-10
-1.66038e-10
6.69463e-10
1.88175e-09
3.63736e-09
6.19763e-09
9.59597e-09
1.32168e-08
1.62082e-08
1.79939e-08
1.8985e-08
2.11926e-08
2.56688e-08
3.29934e-08
4.32054e-08
5.51725e-08
6.69334e-08
7.67791e-08
8.47883e-08
9.19136e-08
9.78976e-08
1.01306e-07
1.02338e-07
1.00367e-07
9.4926e-08
8.61796e-08
7.77978e-08
7.1603e-08
6.51028e-08
5.78069e-08
5.03409e-08
4.38821e-08
3.89788e-08
3.60966e-08
3.60179e-08
3.81116e-08
4.08078e-08
4.2206e-08
4.06726e-08
3.74508e-08
3.32401e-08
2.88565e-08
2.40872e-08
1.96034e-08
1.65593e-08
1.41011e-08
1.25717e-08
1.21732e-08
1.33033e-08
1.56402e-08
1.83737e-08
1.94026e-08
1.90859e-08
1.57634e-08
9.52963e-10
5.86528e-11
7.66929e-12
4.57254e-10
7.6953e-09
-2.12933e-09
-1.63815e-09
-1.38269e-09
-1.1441e-09
-8.59371e-10
-4.6382e-10
6.54516e-11
6.88507e-10
1.31651e-09
1.85687e-09
2.3072e-09
2.69351e-09
3.55513e-09
5.0825e-09
7.51298e-09
1.09186e-08
1.52269e-08
2.0147e-08
2.5396e-08
3.09978e-08
3.71991e-08
4.34151e-08
4.80656e-08
4.84466e-08
4.39539e-08
3.59731e-08
2.79394e-08
2.17817e-08
1.73484e-08
1.34836e-08
9.75184e-09
6.56685e-09
4.4669e-09
3.58142e-09
3.56447e-09
3.78495e-09
3.99178e-09
4.051e-09
3.94724e-09
3.96806e-09
4.60688e-09
4.67386e-09
4.39628e-09
4.02898e-09
4.03163e-09
4.85338e-09
5.94602e-09
7.1614e-09
8.34312e-09
9.71237e-09
1.19086e-08
1.44137e-08
1.78402e-08
1.66387e-08
6.23742e-09
5.57962e-10
2.52063e-10
4.00521e-11
5.42821e-10
3.68501e-09
-3.44087e-09
-2.50793e-09
-2.03765e-09
-1.74299e-09
-1.51851e-09
-1.29009e-09
-1.04866e-09
-8.23247e-10
-6.72968e-10
-6.19361e-10
-6.27428e-10
-6.3671e-10
-5.08057e-10
-1.91036e-10
3.28943e-10
1.02256e-09
1.90646e-09
3.01421e-09
4.40068e-09
6.13574e-09
8.28219e-09
1.0654e-08
1.27778e-08
1.25464e-08
1.00586e-08
6.77641e-09
4.1822e-09
2.56715e-09
1.60582e-09
9.00044e-10
3.49917e-10
2.37533e-11
-4.61365e-11
-4.66382e-12
7.51413e-11
1.96017e-10
3.48606e-10
5.15239e-10
6.70771e-10
8.1083e-10
9.79279e-10
1.23168e-09
1.61411e-09
2.14575e-09
2.89032e-09
3.92094e-09
5.2473e-09
6.69997e-09
7.86215e-09
9.00327e-09
1.08099e-08
1.09107e-08
1.04138e-08
9.83885e-09
6.97154e-09
3.38353e-09
6.1563e-09
2.15734e-09
7.14302e-10
8.86766e-09
-2.95905e-09
-2.39439e-09
-2.23281e-09
-1.98589e-09
-1.80348e-09
-1.51615e-09
-1.23258e-09
-9.80681e-10
-8.58886e-10
-8.55443e-10
-9.26942e-10
-9.77552e-10
-9.13304e-10
-7.2208e-10
-4.53846e-10
-1.79626e-10
9.8646e-11
3.79379e-10
6.74448e-10
9.84359e-10
1.33777e-09
1.72235e-09
2.02304e-09
1.79213e-09
1.16967e-09
5.43681e-10
1.55159e-10
-2.38184e-11
-6.47317e-11
2.53024e-12
2.75851e-10
6.50746e-10
7.53986e-10
6.70892e-10
6.06574e-10
5.83023e-10
5.95164e-10
6.33866e-10
7.09968e-10
8.34063e-10
1.02994e-09
1.35303e-09
1.83429e-09
2.50338e-09
3.48045e-09
4.88473e-09
6.73213e-09
8.78828e-09
1.03346e-08
1.05793e-08
1.02281e-08
1.02538e-08
9.59601e-09
7.9127e-09
6.75413e-09
4.66215e-09
8.36487e-09
5.82794e-09
2.37465e-09
1.12764e-08
-1.14466e-09
-8.86806e-10
-1.09435e-09
-1.00213e-09
-9.55491e-10
-7.73549e-10
-5.80855e-10
-3.62522e-10
-2.24519e-10
-2.0574e-10
-2.6582e-10
-2.89433e-10
-1.97846e-10
2.39491e-11
3.86841e-10
8.34079e-10
1.31049e-09
1.57718e-09
1.43908e-09
1.08132e-09
8.25275e-10
6.71045e-10
5.48623e-10
4.05021e-10
3.206e-10
4.35502e-10
1.00043e-09
1.95867e-09
2.77958e-09
3.09618e-09
2.91016e-09
2.41647e-09
1.89043e-09
1.44032e-09
1.1115e-09
8.95464e-10
7.86292e-10
7.61501e-10
8.13978e-10
9.41559e-10
1.16123e-09
1.51234e-09
2.03442e-09
2.79407e-09
3.92427e-09
5.53634e-09
7.62144e-09
9.97249e-09
1.19853e-08
1.25749e-08
1.21443e-08
1.10292e-08
9.33228e-09
7.6758e-09
5.43369e-09
3.19054e-09
3.95313e-09
1.32247e-08
8.40323e-08
1.86373e-08
3.16166e-09
3.68593e-09
3.20973e-09
3.13659e-09
2.99091e-09
2.99635e-09
2.96088e-09
2.96504e-09
2.94061e-09
2.88496e-09
2.82357e-09
2.77727e-09
2.75916e-09
2.7597e-09
2.79315e-09
2.86901e-09
3.04353e-09
3.35556e-09
3.88344e-09
4.68851e-09
5.63822e-09
6.03959e-09
6.05285e-09
5.90801e-09
5.75328e-09
5.55244e-09
5.43638e-09
5.37856e-09
5.38033e-09
5.34267e-09
5.26133e-09
5.10535e-09
4.90035e-09
4.68018e-09
4.51256e-09
4.34246e-09
4.15556e-09
3.92349e-09
3.66264e-09
3.38733e-09
3.13589e-09
2.96643e-09
2.86642e-09
2.93663e-09
3.3827e-09
4.395e-09
5.53325e-09
6.32481e-09
6.49026e-09
6.12531e-09
5.50672e-09
5.08868e-09
5.19023e-09
6.46498e-09
1.07188e-08
1.52166e-08
9.94044e-09
3.55602e-08
2.70076e-07
6.76844e-09
9.10617e-09
1.23049e-08
1.34135e-08
1.42632e-08
1.48344e-08
1.53103e-08
1.57009e-08
1.60167e-08
1.6261e-08
1.64407e-08
1.65919e-08
1.67466e-08
1.69302e-08
1.71388e-08
1.73581e-08
1.75657e-08
1.77459e-08
1.78789e-08
1.79476e-08
1.79316e-08
1.77965e-08
1.75286e-08
1.71106e-08
1.65819e-08
1.60143e-08
1.54603e-08
1.49488e-08
1.44789e-08
1.40479e-08
1.3641e-08
1.32617e-08
1.29129e-08
1.26055e-08
1.23497e-08
1.21823e-08
1.21182e-08
1.21838e-08
1.23878e-08
1.27285e-08
1.3184e-08
1.37525e-08
1.44712e-08
1.52651e-08
1.60836e-08
1.70925e-08
1.84579e-08
2.02197e-08
2.28757e-08
2.70058e-08
3.33426e-08
4.22633e-08
5.288e-08
5.96285e-08
5.81528e-08
5.83082e-08
7.54141e-08
6.88125e-08
7.23345e-08
9.39692e-08
5.82529e-09
8.80748e-09
1.22084e-08
1.34484e-08
1.43973e-08
1.49502e-08
1.5444e-08
1.57979e-08
1.6095e-08
1.63373e-08
1.65209e-08
1.67e-08
1.68495e-08
1.7022e-08
1.71665e-08
1.73119e-08
1.74057e-08
1.74658e-08
1.74627e-08
1.74032e-08
1.72811e-08
1.7103e-08
1.68718e-08
1.65942e-08
1.62713e-08
1.59133e-08
1.55198e-08
1.50982e-08
1.46623e-08
1.42387e-08
1.38173e-08
1.34064e-08
1.3013e-08
1.26605e-08
1.23632e-08
1.21353e-08
1.19831e-08
1.19414e-08
1.20454e-08
1.23297e-08
1.28132e-08
1.34618e-08
1.42381e-08
1.51182e-08
1.6065e-08
1.71204e-08
1.84875e-08
2.04472e-08
2.33175e-08
2.75227e-08
3.3524e-08
4.16584e-08
5.20799e-08
6.14732e-08
6.3678e-08
6.19314e-08
7.77672e-08
9.82787e-08
6.80966e-08
3.02238e-08
1.60114e-08
2.13154e-09
3.00407e-09
2.58269e-09
2.46708e-09
2.25817e-09
2.28674e-09
2.21875e-09
2.27049e-09
2.26435e-09
2.27617e-09
2.28127e-09
2.30367e-09
2.38484e-09
2.49544e-09
2.68077e-09
2.87714e-09
3.1324e-09
3.39027e-09
3.66545e-09
3.94205e-09
4.20628e-09
4.46006e-09
4.70779e-09
4.92956e-09
5.16388e-09
5.35664e-09
5.54679e-09
5.68804e-09
5.79454e-09
5.8186e-09
5.78998e-09
5.718e-09
5.65349e-09
5.59552e-09
5.50954e-09
5.3422e-09
5.06512e-09
4.71407e-09
4.35841e-09
4.07852e-09
3.87757e-09
3.70439e-09
3.50535e-09
3.29889e-09
3.18461e-09
3.1393e-09
3.14683e-09
3.1923e-09
3.30066e-09
3.49974e-09
3.85423e-09
4.43264e-09
5.33996e-09
7.08342e-09
1.11069e-08
1.68819e-08
1.18179e-08
5.35706e-09
1.85561e-08
7.52903e-09
-2.10505e-09
-1.44146e-09
-1.49283e-09
-1.33098e-09
-1.25403e-09
-9.93368e-10
-8.00967e-10
-5.09585e-10
-3.01931e-10
-1.2135e-10
1.19045e-11
1.83127e-10
5.00213e-10
9.03426e-10
1.47641e-09
2.05514e-09
2.65858e-09
3.11995e-09
3.40384e-09
3.48875e-09
3.41412e-09
3.22046e-09
2.96094e-09
2.62563e-09
2.28745e-09
1.91467e-09
1.63377e-09
1.51546e-09
1.52678e-09
1.63329e-09
1.78231e-09
1.8245e-09
1.67438e-09
1.42894e-09
1.21195e-09
1.03473e-09
9.13704e-10
8.50374e-10
8.4859e-10
9.11893e-10
1.0469e-09
1.27704e-09
1.63404e-09
2.12111e-09
2.73196e-09
3.48459e-09
4.40754e-09
4.93773e-09
5.07507e-09
5.04327e-09
4.91697e-09
4.76151e-09
4.57784e-09
4.16257e-09
3.4084e-09
2.71593e-09
3.69241e-09
6.29982e-09
2.91786e-08
3.32197e-09
-3.58704e-09
-2.66443e-09
-2.3427e-09
-1.9421e-09
-1.62417e-09
-1.23848e-09
-9.56632e-10
-7.3945e-10
-7.06963e-10
-7.45043e-10
-7.68866e-10
-7.34287e-10
-6.18964e-10
-4.72977e-10
-2.98367e-10
-1.3746e-10
2.22514e-11
1.70385e-10
3.16759e-10
4.57224e-10
5.87546e-10
6.9148e-10
7.75391e-10
8.21134e-10
8.33548e-10
7.91964e-10
7.13689e-10
6.17235e-10
5.17254e-10
3.90756e-10
2.8441e-10
2.45071e-10
2.67508e-10
3.09081e-10
3.67459e-10
4.33556e-10
5.16777e-10
6.29982e-10
7.92489e-10
1.01519e-09
1.32781e-09
1.78451e-09
2.46e-09
3.42014e-09
4.76446e-09
6.64894e-09
9.13525e-09
1.19809e-08
1.47685e-08
1.50963e-08
1.27088e-08
9.75274e-09
6.93901e-09
5.0541e-09
5.29069e-09
5.94647e-09
9.4884e-09
7.0993e-09
2.3521e-09
1.82799e-09
-3.97505e-09
-2.82319e-09
-2.28414e-09
-1.91352e-09
-1.61602e-09
-1.40602e-09
-1.2196e-09
-1.06142e-09
-9.31994e-10
-8.36361e-10
-7.20259e-10
-5.28576e-10
-1.92549e-10
3.24995e-10
1.10433e-09
2.23945e-09
3.84026e-09
5.94807e-09
8.33371e-09
1.08292e-08
1.30735e-08
1.47941e-08
1.59094e-08
1.63566e-08
1.61238e-08
1.51755e-08
1.35578e-08
1.14629e-08
9.21115e-09
7.09154e-09
5.05196e-09
3.31365e-09
2.11218e-09
1.38858e-09
9.80196e-10
7.88912e-10
7.69633e-10
8.79034e-10
1.04665e-09
1.2518e-09
1.50632e-09
1.89071e-09
2.51702e-09
3.45994e-09
4.75812e-09
6.07397e-09
6.53148e-09
7.86238e-09
1.06439e-08
1.33436e-08
1.52962e-08
1.50422e-08
1.39605e-08
1.35802e-08
8.82148e-09
5.35319e-09
7.19217e-09
2.02854e-09
8.11508e-10
5.74754e-09
-2.68414e-09
-1.76594e-09
-1.46923e-09
-1.33087e-09
-1.21761e-09
-1.10375e-09
-9.47849e-10
-7.33088e-10
-4.41925e-10
-3.60876e-11
5.94489e-10
1.67162e-09
3.47377e-09
6.31062e-09
1.0571e-08
1.66268e-08
2.44388e-08
3.34275e-08
4.2615e-08
5.1516e-08
5.94487e-08
6.57777e-08
7.0307e-08
7.27696e-08
7.32159e-08
7.16081e-08
6.81167e-08
6.28587e-08
5.62295e-08
4.88754e-08
4.14274e-08
3.43527e-08
2.822e-08
2.32082e-08
1.88805e-08
1.51332e-08
1.18017e-08
9.02484e-09
6.64895e-09
5.17793e-09
4.18303e-09
2.96897e-09
2.44205e-09
2.81463e-09
3.35551e-09
4.25987e-09
6.14794e-09
8.71592e-09
1.24378e-08
1.57061e-08
1.84642e-08
2.27285e-08
2.90274e-08
2.90819e-08
2.14e-08
5.20031e-09
2.35008e-09
1.76156e-10
6.63297e-10
2.14698e-08
-1.45218e-09
-1.18643e-09
-1.00573e-09
-8.44201e-10
-6.32025e-10
-3.30158e-10
1.70411e-10
9.91707e-10
2.30634e-09
4.24949e-09
7.00254e-09
1.09623e-08
1.64977e-08
2.39196e-08
3.34801e-08
4.55466e-08
5.98292e-08
7.42841e-08
8.78508e-08
1.0005e-07
1.10709e-07
1.19548e-07
1.26462e-07
1.31205e-07
1.33793e-07
1.34342e-07
1.33069e-07
1.29948e-07
1.24593e-07
1.17487e-07
1.0947e-07
1.01158e-07
9.29039e-08
8.61815e-08
8.08106e-08
7.63376e-08
7.15046e-08
6.66931e-08
5.93983e-08
5.03033e-08
3.99361e-08
2.912e-08
1.88744e-08
1.04433e-08
6.06653e-09
5.28846e-09
6.38794e-09
8.6449e-09
1.21489e-08
1.6227e-08
2.14066e-08
2.80697e-08
3.21453e-08
2.95516e-08
2.47174e-08
3.63244e-09
2.14675e-10
1.87874e-11
5.08631e-10
2.7802e-08
-8.8706e-10
-3.10014e-10
4.92942e-10
1.57091e-09
3.11833e-09
5.24093e-09
8.11982e-09
1.20452e-08
1.72518e-08
2.28072e-08
2.8522e-08
3.53057e-08
4.31223e-08
5.18941e-08
6.19638e-08
7.4319e-08
8.86714e-08
1.0294e-07
1.16602e-07
1.29013e-07
1.39917e-07
1.49034e-07
1.56287e-07
1.61546e-07
1.64928e-07
1.66675e-07
1.66916e-07
1.65503e-07
1.62605e-07
1.58214e-07
1.52602e-07
1.46186e-07
1.39229e-07
1.32634e-07
1.27498e-07
1.24106e-07
1.21655e-07
1.2002e-07
1.18586e-07
1.16385e-07
1.11561e-07
1.01497e-07
8.62696e-08
6.69287e-08
4.7408e-08
2.92953e-08
1.78641e-08
1.38564e-08
1.34309e-08
1.49397e-08
1.83803e-08
2.29193e-08
2.55247e-08
2.32133e-08
1.77502e-08
2.18727e-09
4.17156e-11
1.00374e-11
4.41693e-10
3.32133e-08
1.34022e-09
3.59908e-09
6.99764e-09
1.13117e-08
1.69851e-08
2.37326e-08
3.11127e-08
3.96967e-08
5.07894e-08
6.03415e-08
6.68436e-08
7.07445e-08
7.31793e-08
7.52191e-08
7.80096e-08
8.30145e-08
9.07799e-08
1.0118e-07
1.12871e-07
1.2422e-07
1.3463e-07
1.43814e-07
1.51515e-07
1.57387e-07
1.61322e-07
1.63504e-07
1.64124e-07
1.63184e-07
1.61151e-07
1.58544e-07
1.55122e-07
1.5013e-07
1.43769e-07
1.37176e-07
1.31891e-07
1.28825e-07
1.26732e-07
1.25426e-07
1.24943e-07
1.2407e-07
1.20311e-07
1.12731e-07
1.01334e-07
8.86831e-08
7.72133e-08
6.5809e-08
5.41424e-08
4.16443e-08
3.06692e-08
2.27371e-08
1.81194e-08
1.62609e-08
1.78684e-08
1.93068e-08
1.23477e-08
1.09173e-09
1.13649e-11
3.02486e-12
3.92464e-10
1.0638e-07
4.45697e-09
9.53903e-09
1.51727e-08
2.26645e-08
3.15097e-08
3.91747e-08
4.58368e-08
5.13617e-08
5.65463e-08
6.15549e-08
6.65178e-08
7.50555e-08
8.2455e-08
8.38787e-08
8.01937e-08
7.46849e-08
7.32025e-08
7.53846e-08
7.96317e-08
8.15193e-08
8.09792e-08
7.97503e-08
7.881e-08
7.95084e-08
8.32576e-08
8.78075e-08
8.89782e-08
8.85811e-08
9.01315e-08
9.57579e-08
1.04448e-07
1.08963e-07
1.06703e-07
1.01904e-07
9.54402e-08
8.66422e-08
7.62614e-08
6.50491e-08
5.38828e-08
4.31395e-08
3.32838e-08
2.54225e-08
2.01986e-08
1.68187e-08
1.41746e-08
1.20051e-08
1.04719e-08
9.93587e-09
1.08683e-08
1.32802e-08
1.28427e-08
1.24552e-08
1.15382e-08
1.18071e-08
6.19938e-09
5.3447e-10
-9.41005e-13
-2.41145e-12
3.16825e-10
1.39485e-07
1.15771e-09
9.33626e-09
1.38058e-08
1.77043e-08
1.86349e-08
1.40472e-08
1.24514e-08
1.48479e-08
1.66132e-08
1.96095e-08
2.76665e-08
3.2047e-08
2.91853e-08
2.42216e-08
2.2489e-08
1.91293e-08
1.7574e-08
3.44282e-08
6.72474e-08
7.41019e-08
7.76268e-08
8.11622e-08
8.44569e-08
8.79608e-08
9.05966e-08
9.26009e-08
9.30917e-08
9.21283e-08
9.04459e-08
8.8606e-08
8.68005e-08
8.41769e-08
7.95208e-08
7.22647e-08
6.3255e-08
5.55574e-08
5.05031e-08
4.75148e-08
4.5393e-08
4.2679e-08
3.83199e-08
3.22688e-08
2.51681e-08
1.89063e-08
1.50149e-08
1.25683e-08
1.07941e-08
9.94126e-09
1.03763e-08
1.08047e-08
1.0068e-08
1.11614e-08
1.21154e-08
1.38097e-08
6.3319e-09
3.47004e-10
1.84636e-12
1.92417e-12
3.45315e-10
1.77395e-07
-1.0169e-10
4.13825e-09
6.10209e-09
7.19827e-09
7.35869e-09
5.24385e-09
2.41558e-09
8.22691e-10
3.25834e-10
2.62019e-10
3.07254e-10
3.31718e-10
2.2819e-10
1.44382e-10
1.53622e-10
2.09613e-10
4.95557e-10
8.17044e-09
5.82009e-08
5.36718e-08
6.40563e-08
8.64545e-08
9.17135e-08
8.85699e-08
8.68968e-08
8.99832e-08
9.77156e-08
1.02258e-07
9.93463e-08
8.602e-08
6.58953e-08
6.2539e-08
5.94187e-08
5.80082e-08
5.51849e-08
5.16954e-08
4.94888e-08
4.83662e-08
4.78468e-08
4.72565e-08
4.50373e-08
3.93927e-08
3.09384e-08
2.52045e-08
2.15364e-08
1.83872e-08
1.58059e-08
1.4151e-08
1.14802e-08
8.28793e-09
5.7295e-09
9.25483e-09
1.57251e-08
1.93108e-08
8.75104e-09
4.2719e-10
5.06308e-12
-3.51072e-13
3.32005e-10
1.54817e-07
6.19103e-10
5.73892e-09
9.51497e-09
1.16548e-08
1.44117e-08
1.70912e-08
1.6748e-08
1.34946e-08
1.09414e-08
1.05323e-08
9.78803e-09
5.88278e-09
1.7765e-09
5.33247e-10
3.42561e-10
4.19338e-10
7.673e-10
2.43469e-09
5.25163e-09
1.0421e-08
3.02151e-08
8.08109e-08
9.72885e-08
9.70799e-08
9.3938e-08
9.48412e-08
9.82288e-08
1.04286e-07
1.06523e-07
1.03038e-07
8.78393e-08
6.81112e-08
6.41748e-08
7.31354e-08
7.40514e-08
6.53008e-08
6.01987e-08
6.05437e-08
6.18328e-08
6.29444e-08
6.34309e-08
6.17227e-08
5.62612e-08
4.40723e-08
2.94856e-08
2.162e-08
1.66456e-08
1.37877e-08
1.08393e-08
7.69782e-09
4.15068e-09
7.30622e-09
1.34871e-08
1.77111e-08
8.76173e-09
4.46633e-10
-1.14316e-12
-3.52225e-12
3.20697e-10
1.90152e-07
1.52287e-09
4.49599e-09
8.08163e-09
1.06963e-08
1.43498e-08
1.83501e-08
2.26734e-08
2.67043e-08
2.96932e-08
3.16224e-08
3.07787e-08
2.89537e-08
2.47139e-08
1.70276e-08
9.47385e-09
3.981e-09
1.62744e-09
1.11557e-09
1.38422e-09
3.11863e-09
1.95564e-08
8.68122e-08
1.0423e-07
1.0895e-07
1.13303e-07
1.17028e-07
1.19259e-07
1.20176e-07
1.19773e-07
1.17497e-07
1.13096e-07
1.05157e-07
9.54494e-08
8.74092e-08
8.18455e-08
7.82032e-08
7.62647e-08
7.58403e-08
7.6455e-08
7.7092e-08
7.74065e-08
7.51733e-08
6.95233e-08
6.03247e-08
4.68297e-08
3.29905e-08
2.40279e-08
1.8044e-08
1.42974e-08
1.11532e-08
9.14193e-09
8.13623e-09
8.93557e-09
1.15056e-08
6.87821e-09
4.89916e-10
-2.53088e-12
-4.38639e-12
2.88439e-10
5.17989e-08
2.81281e-09
5.61292e-09
7.5539e-09
1.01245e-08
1.36422e-08
1.77059e-08
2.24918e-08
2.78459e-08
3.2349e-08
3.53779e-08
3.71248e-08
3.9222e-08
4.12546e-08
4.13291e-08
3.5147e-08
1.69324e-08
6.2485e-09
5.5085e-09
8.51575e-09
2.75389e-08
1.02141e-07
1.34272e-07
1.40672e-07
1.4601e-07
1.5045e-07
1.53717e-07
1.55781e-07
1.56536e-07
1.55992e-07
1.50664e-07
1.3816e-07
1.22827e-07
1.09348e-07
1.0053e-07
9.59341e-08
9.9749e-08
1.02385e-07
1.00078e-07
9.90005e-08
9.65135e-08
9.06934e-08
8.40377e-08
7.58761e-08
6.56777e-08
5.42338e-08
4.26555e-08
3.16156e-08
2.26634e-08
1.5914e-08
1.06862e-08
6.64869e-09
4.91506e-09
5.73039e-09
1.0438e-08
8.83636e-09
1.13228e-09
-7.06103e-13
-5.27892e-12
2.8301e-10
4.08867e-08
2.99728e-09
3.86087e-09
6.22845e-09
9.48796e-09
1.33388e-08
1.80604e-08
2.35917e-08
2.97734e-08
3.54106e-08
3.97547e-08
4.33634e-08
4.75459e-08
5.25767e-08
5.78797e-08
6.24748e-08
6.32823e-08
6.56976e-08
8.22834e-08
1.11016e-07
1.31906e-07
1.37263e-07
1.35641e-07
1.34545e-07
1.37725e-07
1.441e-07
1.5504e-07
1.57444e-07
1.43e-07
1.30284e-07
1.28095e-07
1.43508e-07
1.44745e-07
1.27766e-07
7.32821e-08
7.14483e-08
9.44196e-08
1.0771e-07
1.05793e-07
8.88369e-08
5.63112e-08
5.99167e-08
6.51056e-08
4.04175e-08
3.34455e-08
3.4613e-08
2.79594e-08
1.97401e-08
1.38917e-08
9.52297e-09
5.29438e-09
2.86638e-09
4.05284e-09
1.04622e-08
1.9165e-08
1.64174e-08
5.16096e-09
1.80698e-11
5.2227e-13
2.87367e-10
3.70231e-08
2.17888e-09
4.76921e-09
8.87661e-09
1.34782e-08
1.9086e-08
2.51354e-08
3.22189e-08
3.95727e-08
4.65739e-08
5.31935e-08
5.87332e-08
6.49653e-08
7.28419e-08
8.25617e-08
9.30425e-08
1.02875e-07
1.18642e-07
1.34285e-07
1.47791e-07
1.56897e-07
1.61194e-07
1.64905e-07
1.68076e-07
1.6997e-07
1.70948e-07
1.70475e-07
1.65122e-07
1.49847e-07
1.44559e-07
1.505e-07
1.56339e-07
1.4709e-07
1.28359e-07
1.18129e-07