/*--------------------------------*- C++ -*----------------------------------*\
| =========                 |                                                 |
| \\      /  F ield         | OpenFOAM: The Open Source CFD Toolbox           |
|  \\    /   O peration     | Version:  2.1.1                                 |
|   \\  /    A nd           | Web:      www.OpenFOAM.org                      |
|    \\/     M anipulation  |                                                 |
\*---------------------------------------------------------------------------*/
FoamFile
{
    version     2.0;
    format      ascii;
    class       volScalarField;
    location    "0.0014";
    object      epsilon;
}
// * * * * * * * * * * * * * * * * * * * * * * * * * * * * * * * * * * * * * //

dimensions      [0 2 -3 0 0 0 0];

internalField   nonuniform List<scalar> 
36520
(
181.976
407.416
1091.13
1529.19
1954.83
2304.51
2632.22
2922.42
3178.07
3394.1
3572.12
3738.65
3900.42
4074.89
4234.27
4359.99
4408.56
4353.48
4175.73
3877.92
3482.43
3037.04
2629.41
2291.82
2020.5
1801.04
1613.14
1446.03
1291.81
1148.65
1015.56
892.198
778.009
675.571
585.376
508.35
444.475
393.647
356.446
335.095
333.197
357.202
417.383
525.064
689.524
915.054
1192.9
1479.35
1660.67
1555.07
1285.36
960.015
690.498
596.397
924.211
2484.47
5712.23
7954.58
6094.99
2171.61
51.2516
251.717
363.328
394.289
430.336
454.763
483.625
499.309
508.23
507.372
511.562
525.426
553.967
583.019
599.058
585.285
533.594
448.428
348.194
260.082
210.493
215.995
177.181
116.201
85.1474
72.0772
63.3651
56.727
51.711
47.9455
44.4616
41.0682
37.6496
34.0339
30.8491
28.3146
26.6411
25.9484
26.6217
29.6105
36.4726
49.691
73.2067
112.304
174.231
270.367
418.594
647.341
988.621
1433.37
2030.39
2674.34
3003.36
2615.14
1671.02
1062.49
1268.97
1451.86
885.874
475.556
18.7291
74.0135
90.1992
85.086
84.8963
83.3125
85.0036
83.4653
82.0011
79.3759
80.5583
86.7756
99.4711
117.155
139.995
169.967
216.284
296.75
435.771
658.552
973.558
1328.2
1048.37
437.606
113.906
33.4981
15.1275
9.46469
7.01572
5.85472
5.38157
5.30658
5.47261
5.81938
6.31458
7.00114
7.98663
9.44866
11.6971
15.3062
21.3147
31.6259
49.6635
81.5093
138.592
243.03
438.943
811.579
1515.29
2831.14
4747.42
7052.85
8870.71
9068.35
6933.13
4093.3
1645.21
2423.85
1225.75
388.423
7.07091
22.8864
23.1151
20.1423
20.189
21.1879
24.6187
29.8711
39.4675
55.9036
84.2753
131.006
208.129
338.953
567.365
966.57
1653.31
2771.56
4432.66
6604.86
9061.26
11273.9
8997.33
4339.43
1389.33
465.548
218.283
134.887
93.2486
65.9994
48.7183
39.3543
35.1521
33.4796
33.1679
32.748
32.4642
32.8166
34.0474
35.8371
38.0621
43.1396
54.0683
76.4586
118.944
196.336
342.248
626.965
1197.47
2336.03
4505.17
7576.94
10577.8
12288
11805.7
9373.68
4051.15
3082.85
1728.21
357.911
3.38068
10.618
12.0511
15.6332
24.1584
40.1746
69.0045
120.529
211.878
368.844
624.729
1031.22
1686.8
2799.55
4756.32
8159.69
13884.6
22902.8
35496.7
50125.6
62506.9
67808.9
53849.4
29734.3
11979.2
5045.01
2834.69
2042.9
1647.66
1355.09
1138.9
1013.16
964.959
947.958
927.311
904.946
893.981
896.295
943.686
1049.75
993.662
793.901
448.219
145.038
136.769
172.781
251.807
404.822
697.349
1245.25
2211.66
3583.71
5020.4
5156.41
5242.91
5482.75
4534.48
3175.38
1923.48
348.667
2.69492
21.2722
39.8137
75.7297
139.596
260.903
483.819
893.421
1622.24
2814.38
4546.71
6872.67
10014.3
14830.1
22805.2
35838.2
56303.3
86398.2
127179
174721
213261
220346
190646
128727
67073
35382.6
22775.8
17618.4
15094.3
13321.6
11966.6
11220.6
11223.2
11833
12696.1
13322.9
13821.9
14011
14364.7
14962.6
14328.7
12713.2
9659.21
5185.12
2908.42
2041.85
1555.89
1029.88
790.326
953.471
1333.29
1825.9
2074.65
2108.6
2128.16
2164.96
2154.5
1859.63
1462.31
321.125
7.45932
114.717
248.496
498.127
915.522
1699.71
3114.85
5636.75
9909.87
16116
23452.1
31113
39031.1
47181.6
60621.4
83262.8
119942
162259
206900
251461
290082
306248
292299
251580
191199
132539
95639.5
75418.8
63661
55167.7
48082.9
42956.9
40089.6
39354.3
40748.6
43641.6
48145.5
52465.1
54885.8
56816.4
57104.2
54645.7
50850
39704.2
28410.5
21598.9
17283
13344.7
9081.24
5405.82
3233.01
2082.32
1722.94
1757.84
2041.41
2026.97
1671.12
1381.32
1161.02
290.766
42.4966
545.099
1256.8
2602.33
4584.89
8049.76
13453.8
22056
33706.3
47812.6
59919.9
71619.6
83930.7
95996.9
108411
124835
144075
160596
174825
190058
208082
226929
236163
227559
208816
193081
179316
162737
143525
122909
104096
89260.3
79233
73133.5
70172
69713.7
71498.3
75157.8
79009
82346.6
84506.3
83841.9
81685.6
76276.4
63977
49884.9
37836.7
28297.5
21126.8
15921.4
11920.2
8711.61
6813.62
5637.44
4952.3
3486.08
2414.63
1770
1256.67
265.73
114.084
2605.9
7794.25
15173.8
21885.1
32385.6
39286.3
45761.5
51803.5
56592.3
59471.2
60827.8
63724.3
67879.2
72656.5
77938.2
83107.5
89548.6
96322.8
102950
108564
112030
116012
121119
123435
124191
125676
127843
130571
131482
124966
110976
96993
86926.2
80179.3
75652.8
72672
70861.9
69474.3
68035.1
66700.4
65529.7
63678.9
60759.9
56009.1
49178.3
41299.2
33348.1
25931.9
19729.4
15049.7
11707.7
9961.22
9247.42
8300.78
5766.51
2665.8
1548.67
1007.55
209.264
74.4952
1742.06
6052.93
10450.4
13651.5
16635.5
18779.1
20570.1
22584.2
25656.6
28659.6
29703.4
29427.2
29452.5
30167.1
31337.7
33915.7
37998.8
42338
46835.9
51392.4
54782.8
56582
57573.6
58542.6
60465.3
63899.1
68565.1
73654.7
78510.3
82808.2
86173.5
84855.1
77125.4
66801.5
57665.7
50921.1
46612.4
44005.3
42474.6
41594.4
40996.9
40212
38629.8
36264.9
33128.1
29270.2
24921.9
20082.2
15055.5
10489.2
6941.5
4744.78
3500.12
2763.45
2089.85
1183.61
763.838
564.968
176.75
43.4503
1054.5
7968.86
15829.9
19192.2
21820.4
23343
25378.5
29408.8
35352.6
39462
37650.7
32726.6
29691.5
29845.8
32087.6
35227.9
38669.8
42557.8
47469.2
52895.4
58018.5
61807.6
64300.5
67030.1
69457.5
72274.8
76048.2
80979.7
86979
93948.8
101161
105809
102916
92219.7
80376.6
71376.5
66015.7
63928.4
64142.6
65050.9
65361.5
64705.5
62700.2
59510.5
55205.6
49272.7
41878.6
33344
24581.4
16378.1
9880.15
6170.15
4389
3658.53
3014.82
1703.23
1101.7
809.343
207.014
60.2569
1203.33
3038.65
5664.3
8656.91
15004.6
21706.9
30738.7
40203.5
47045.4
47390.7
42264.6
36374.5
33271.6
33421.8
36512.5
41357.6
45185.2
47296.4
49475.9
54003.4
60675
70483.8
81936.2
86724.7
88309.7
95394
104264
112503
120352
127590
132078
130454
120371
105339
91257.6
82403.2
80096.8
81854.3
85408.3
89030.3
91062.2
91112.5
88225.6
82895
75677.2
66375.5
54561.5
40765.4
27139.6
15272
7489.68
4283.99
3561.31
4159.04
3886.88
2549.79
1851.88
1410.56
291.071
67.2637
1328.67
2693.48
4445.43
6313.39
10906.1
16969.8
26492.2
39087.4
52011.7
57421.6
53815.9
45598.2
38316.2
33992.8
32709.8
33284.9
34030.6
33759
33092.9
34999.4
39917.1
49095.7
64972.6
86291.9
100852
107915
114665
120661
126806
132721
136676
135696
125627
108956
93432.7
83998.7
81306.2
82832.5
86886.2
91623.2
93789
93493
91434.8
87654.6
82337.7
72058.5
53002.7
31697
16856.2
8327.59
4333.24
3481.44
3946.74
4644.12
4418.31
2921.18
2054.65
1545.17
311.668
52.0035
1541
11122.8
17786.9
16586.7
18583.2
21731.7
26501.2
32326.5
38389.8
42519.7
43238
43117
41803.8
38806.9
34810.1
31167
29668.2
29492
28371.2
27041.3
27772.6
31741.5
40373.4
56028.2
75562.7
88260.5
94679.7
99533.2
103500
107427
111659
115971
115618
104240
88459.1
76767.9
69597.7
66317.7
65645.3
65806.9
65543.5
64278.7
61618.5
58313.8
54714.5
50018.2
42173.4
30440.3
18272.1
9575.19
4975.92
3188.47
2720.88
2640.52
2267.73
1647.52
1226.63
922.17
236.619
59.4511
832.028
3328.94
8945.23
10718.5
12293.7
13364.8
14112.6
14196.8
13538.6
14064.6
17600.9
24622.6
32771.2
39578.2
44213
46992.4
50584.5
54712.6
55838.5
52396.5
47462
42663.7
42827
51327.4
69164.2
88907.2
102093
108556
113613
119054
122882
118247
103579
88184.9
77981.5
72392.2
69118.1
67164.3
66171.6
64295
60834.5
55776.4
49274.2
43258.9
37684.2
31694.1
25358.4
18680.4
12502.5
7683.98
4569.59
3048.06
2415.47
2044.83
1582.06
1174.29
900.796
721.829
215.03
76.4769
1321.77
4067.69
9008.67
14047.2
19015.9
24446.5
31043.7
39391.8
50202.5
67740.5
96500.6
130979
146437
137571
127245
124269
128749
134807
136359
134428
128570
118615
115710
127366
146230
151013
143854
139105
136068
129364
117288
102425
89662.7
81917
77586.2
73264.7
68206.7
63684.9
59237.3
53883.5
47802.6
41959
36391.9
30742
25287.1
20881.1
16928.9
13150.6
9537.97
6546.02
4504.43
3357.26
2776.71
2396.18
1761.3
1283.53
949.247
767.083
222.869
47.3895
646.43
1543.77
3442.98
6717.68
12155.2
21047.3
36709.4
62183.2
87402
100971
100260
92199.2
88528.2
95983.4
115326
146502
182930
219521
247049
257953
259705
262762
258888
239568
207049
179928
165434
152673
136437
119671
104753
92705.5
84204.9
77908.4
72061.5
67396.3
65236.6
64497.6
63165.7
60143.7
55295.2
49309.6
42106.5
33659.4
25546.4
19439.1
15099.3
11701.2
9206.78
7717.36
7119.97
7325.77
7757.82
6506.55
4157.91
3053.53
2079.42
1381.88
291.837
7.09422
92.5916
202.474
407.199
748.6
1356.68
2437.65
4345.71
7437.33
11491.8
15717.1
18855.3
19291.9
22402
29810.6
42511.2
62224.6
87435.8
113272
133524
146851
156070
162328
160906
149081
132171
115858
99486.4
84157.7
71481.6
60748.5
50954
42245
35388.3
30608.5
28243.5
29185.8
31633.8
34056.5
35429.4
34238.7
31918.9
29020.7
25546.9
21442.6
17711.7
16160.7
16302.9
17388.8
18866
20348.1
21807.3
22114.3
17456.9
11293.9
7144.45
5174.46
3532.01
2138.4
368.904
3.83164
13.9922
25.1201
45.0636
77.212
128.831
210.011
335.585
524.813
784.33
1103.96
1466.37
1685.45
2275.24
3256.62
4872.07
7376.59
10901.1
15330.5
20470.1
26419.2
33743.7
42503.2
50344.4
50020.3
42863.3
32598.4
23340.1
16924.1
12797.4
9594.23
6701.61
4311.16
2759.19
2121.09
2111.17
2251.07
2405.04
2500.2
2536.64
2725.65
3493.97
3788.36
3783.54
3737.84
4133.57
5562.2
7360.9
9351.62
11958.9
16140.9
21679.2
24075.1
21514.2
16262.2
11984.3
9247.32
6002.16
3549.02
464.683
5.43614
7.80574
6.56767
7.28448
10.047
14.4669
21.0883
30.2367
42.6573
57.9508
75.7635
98.6143
119.94
160.344
227.875
341.129
527.083
821.952
1276.16
1961.98
2992.36
4525.61
6649.61
9178.61
9423.06
7445.66
4808.1
2863.28
1751.27
1142.4
724.492
401.362
197.877
109.354
98.5485
105.733
118.603
136.306
160.041
194.588
252.351
353.529
515.664
784.667
1227
1945.16
3157.83
5228.44
8602.15
13632.5
21249.7
30704.9
33460.1
29254.7
20924
15243.5
10210
6309.54
3744.48
525.789
10.8829
22.2594
16.2319
11.6372
10.2745
9.03679
8.75988
8.31953
8.39697
8.90472
10.1195
11.9548
14.61
18.0275
22.6834
30.0131
42.7924
65.1413
103.64
168.802
277.898
455.969
730.46
1040.27
1028.03
732.428
411.728
214.288
117.026
70.3244
42.8501
26.2738
19.5339
19.3426
22.6689
28.5339
37.5545
51.5839
73.9634
110.886
173.804
283.258
474.684
808.73
1397.07
2435.22
4298.14
7544.99
12889.3
21001.3
30046.2
36701.4
37726.3
32509.2
23601.3
15349.4
6221.35
4325.29
3121.35
570.095
22.254
74.7934
70.7449
57.0025
52.2912
46.4584
43.6306
38.4596
34.7313
32.0968
32.7998
35.9263
40.35
42.9745
41.676
36.5771
29.6271
23.2966
19.4164
19.575
24.9894
37.4245
59.5215
77.6803
70.668
46.0821
24.885
13.8526
9.3836
7.93605
7.78163
8.49293
9.99617
12.3855
15.9858
21.4055
29.9232
43.7597
66.7349
105.682
173.006
291.357
502.074
881.388
1578.01
2855.69
5160.82
9084.1
15096.1
22908
29676.8
32955
32000.6
26392
17312.8
10143.4
3871.33
3967.99
2023.79
655.502
64.494
251.202
316.982
313.183
323.332
322.09
325.995
317.524
310.42
304.92
311.14
327.715
348.722
361.175
355.558
329.584
287.384
236.843
184.449
137.164
98.6996
73.478
62.7458
56.2781
50.4101
45.3569
41.4395
38.4873
36.1148
34.305
33.0804
32.4582
32.3943
33.0295
34.3839
36.4573
40.3265
47.4179
59.6883
80.2577
114.844
174.469
280.546
478.986
871.805
1688.77
3429.81
6115.2
8995.58
10904.7
11063.6
9423.93
7132.86
5000.71
3296.57
2233.79
1891.37
2308.03
1310.11
656.998
294.36
542.363
1156.17
1501.42
1820.08
2066.3
2283.88
2466.57
2618.38
2746.29
2858.35
2967.05
3074.6
3174.58
3249.32
3282.26
3260.75
3181.2
3044.32
2857.39
2630.15
2376.3
2110.6
1864.62
1646.99
1459.46
1293.69
1144.08
1009.46
889.985
785.46
696.156
619.68
553.842
497.679
451.904
416.829
394.096
384.808
390.306
412.077
450.311
501.701
554.681
597.886
628.768
644.915
624.912
575.393
498.532
414.052
346.08
327.275
437.029
951.192
2452.36
4470.55
4618.8
3258.13
2434.6
229.865
495.244
1098.63
1466.72
1808.87
2044.84
2266.69
2436.55
2582.82
2707.14
2807.81
2902.91
2975.68
3038.57
3066.82
3068.62
3026.23
2949.01
2832.72
2685.18
2511.8
2321.14
2119.97
1914.72
1709.43
1509.24
1316.22
1135.79
977.223
841.637
725.676
627.664
544.934
475.815
418.302
371.105
334.286
309.222
297.567
301.599
324.116
367.57
430.332
500.659
557.17
577.359
553.707
490.866
422.66
361.687
313.997
283.388
282.853
369.236
769.512
2158.04
4856.51
6701.52
5161.86
2826.56
47.72
195.655
261.454
258.091
255.386
243.659
240.72
228.335
222.469
213.637
210.774
208.637
209.169
203.524
196.75
183.578
169.063
152.655
136.061
120.537
105.726
92.9028
81.3907
71.2133
62.5819
55.2106
49.3442
44.8296
41.4221
39.0306
37.2965
36.1169
35.3302
34.7429
34.2044
34.2761
35.9928
40.3441
48.944
64.495
91.4055
136.754
212.035
336.501
545.316
821.072
1099.45
1318.5
1438.97
1500.45
1552.94
1622.23
1716.36
1836.32
1936.45
1923.08
1923.1
2050.08
1548.03
680.362
14.6258
47.8154
47.1019
36.0269
29.3282
23.2941
20.2655
16.4988
14.5547
12.5007
11.7311
11.4159
11.4392
10.9995
10.4868
9.53223
8.67468
7.94023
7.46134
7.30175
7.35143
7.62861
8.06908
8.67649
9.51392
10.6531
12.2837
14.1793
15.2742
15.6102
15.1588
14.5939
14.7351
16.2911
19.2687
23.6168
30.1735
40.2652
56.2677
82.4264
126.743
203.903
340.37
580.613
995.962
1685.69
2788.29
4529.61
5933.79
6585.9
6776.49
6726.23
6475.88
6129.42
5528.43
4785.05
2759.26
3587.94
3158.98
777.95
6.53268
12.3483
8.6219
5.11413
3.61908
2.56119
2.18535
1.87523
1.94062
2.17334
2.79361
3.80899
5.44924
8.00289
12.0906
18.5375
28.5331
43.3602
63.8612
89.5731
119.395
150.347
179.867
206.908
231.827
247.925
251.664
238.396
220.008
198.883
163.531
121.792
87.6747
75.1547
75.937
85.5735
105.529
139.971
196.533
284.931
424.613
650.09
1026.99
1666.14
2745.26
4584.38
7744.27
12910.8
20419.4
30599.6
41160.3
46870
44907.8
37948.2
30478.3
23321
12424.7
7862.14
5511.06
829.306
3.55297
3.71342
2.16328
1.56809
1.79219
2.48853
3.87826
6.26828
10.3614
17.1768
28.5828
47.9584
82.2205
143.611
254.566
452.825
797.001
1363.86
2219.17
3275.34
4473.25
5623.4
6565.11
7226.22
7578.85
7606.02
7281.38
6589.27
5621.38
4552.35
3587.67
2610.31
1751.88
1186.82
851.204
646.601
523.48
473.719
508.172
589.279
712.905
877.422
1145.92
1730.83
2787.96
4531.08
7483.47
12389.2
20986.7
39195.9
64405.9
80711.6
79169.6
67899
51745.3
36968.6
22500.8
12975.3
7424.38
742.486
2.08182
3.3527
4.56963
7.54054
12.4251
20.0105
31.8932
51.4291
84.8046
142.411
240.914
418.227
746.962
1350.95
2442.8
4359.62
7562.48
12434.7
19056.3
26666.2
34889.5
42875.7
49622.8
54644.1
57576.4
58558.5
57557.7
54686.3
49897
43686.7
37025.3
30737.8
25236
20874.9
17557.2
14622.1
12019.9
9590.83
7604.53
5861.21
4983.26
4593.15
3261.77
2160.23
2264.98
3405.55
5528.21
9161.28
15713.4
28405.9
48814.5
76082
95123
89244.4
65285.3
41405.3
26459.7
14766.5
7216.95
599.87
2.08292
23.3156
49.6846
93.7618
154.485
242.711
370.75
565.142
871.49
1344.96
2031.17
3169.44
5164.95
8431.4
13595.3
21512.6
33405.3
50308.6
69878.1
89813.9
109179
127177
142308
153901
161489
165775
167011
165502
160482
150987
138636
126234
115777
107395
102695
100136
99251.4
96919.6
95372.4
88803.6
79107.5
67354.3
52463.2
35053.9
18405.7
9035.57
6856.21
7710.28
10924.7
17235
26673.4
41183.4
55125.3
52204.4
35575.8
23106.4
18010.9
11673.6
5771.03
524.224
9.30313
220.258
562.661
1168.6
2054.94
3383.59
5299.94
8029.81
11919.1
17318.3
21530.6
24557.8
30472
38899.1
49721.7
64324.6
85502.1
112910
142630
172295
199584
223703
242771
256260
264003
267599
268655
267665
264136
257131
245432
230470
215547
203093
195192
193071
197392
206105
219520
237689
253714
262633
255179
226354
176775
124295
75067.6
42064.6
28230.4
23594
22532.9
24807.2
27937
25263.7
16685.7
10362.1
7958.06
5468.31
3120.24
394.058
97.9144
1672.95
4367.55
9046.24
15963.5
26386.1
40182
57986.3
82353.9
113250
136835
141664
135926
129218
122593
119776
123308
133230
151961
176669
200832
221742
238546
250329
256274
257051
254942
252076
249255
246610
242471
234093
220811
205715
192493
182572
176675
174762
174454
174422
171068
162733
150936
136766
121755
107096
94215.5
80493.8
64796.1
50080.2
38184.7
28386.3
20365.1
14727.2
10194.8
5820.77
3886.78
2611.15
1771.91
285.504
250.183
8372.9
22935.3
41881.3
69757.9
107270
138678
161220
170662
178714
193061
216135
245547
269860
262228
215607
164934
133156
117914
114360
117296
122684
129073
135150
139583
141496
140888
138686
136267
134623
134326
134774
133851
128881
120517
112284
105444
99636.6
94187.8
88945.5
83436.5
77702.7
70820.7
62505.2
53350.7
44167.3
35492.1
27446.8
20108.5
14053.2
9957.47
7637.86
6236.48
4898.24
3690.88
2257.44
1199.5
792.496
603.109
177.961
123.117
2196.3
21211.8
33624.8
46510.5
65153.7
88466.2
113628
128166
130150
130445
132074
133748
133191
130850
128136
131196
132444
119098
104793
97852.7
95703.9
94827.1
94366.8
94448.9
94453.2
93653.3
91564.1
88171.4
83970.7
79527.4
75436.7
71733
67326.7
62019.6
56490.8
51142.9
46563.1
42998.9
40512.2
39046.6
38064.4
36836.8
34823.6
31612
27336.1
22401.5
17338.2
12534.9
8359.8
5359.22
3574.25
2517.55
1856.27
1428.67
999.911
657.461
480.658
401.54
155.41
68.5138
677.987
8047.55
12917.3
14754
16517.9
18745.5
20169.7
18978.3
16907.3
16307.4
17894.5
21332.8
23861.8
26757.8
32936.8
46754.1
73315.3
101480
115083
117708
119164
121857
124989
127216
127036
123676
117235
108622
99108.7
89093.4
79283
70764.8
63637.9
57517.9
52206.6
47934
45019.9
43448.6
43006.4
43246.8
43393.7
42801.9
40718.8
36700
30785.9
23234.3
15783.5
9852.82
5671.72
3217.81
1965.29
1352.72
1002.44
825.36
688.909
578.476
483.308
424.445
153.299
67.7139
1582.64
12525.3
23468.2
25790.1
29821.8
34239.5
39592.5
45084.1
47191.2
44697.6
38967.8
32522.9
27668.7
27312.5
33377.6
47015.8
63920.5
77432.9
90034.8
104159
119234
130519
132371
127995
123228
119921
117444
114596
109215
100295
89588.1
79240.3
70548.3
63747.4
58188.9
54105.1
51681.5
50552.9
50563.1
51082.9
51508
51172.5
48818.2
43276.9
34665.5
25212.7
17000.5
10608.7
6231.15
3567.34
2084.94
1419.84
1076.3
877.064
739.585
594.163
496.248
432.854
154.29
69.7512
1996.96
6779.41
13858.7
17317.1
23566.6
30976.1
40146.8
48694.9
52955
52073.2
49079.1
46494.4
44739.7
45031.8
47828.2
51411
55158.4
60616.7
69707.1
80011.2
87317.5
90390.7
91304
91719
92594.1
93930.7
95214.9
96563.6
98040.6
98750.5
96192.9
88943
80096.4
72044
65014.5
59521.1
56688.7
56242.7
57206.2
58247.3
58676.5
57669.5
54374.6
48588
40477.6
31178.2
22239.8
14610.4
8943.15
5429.84
3672.92
2809.45
2200.9
1751.11
1283.77
848.082
633.528
516.877
172.104
140.857
2690.31
6065.04
8763.82
10956.2
15172.7
19746.3
26179.7
34073.7
40661.8
43159.1
43072
43744.4
45909.5
48293.4
52226.6
60606.3
73684
91465.7
112751
132831
141187
138557
134129
131865
131870
132948
134124
135307
137590
140907
140729
134088
123328
112058
102551
96797.2
95664.3
97579.9
100795
102401
100386
94081.6
84492.1
71120.9
54798.5
38863.6
26164.9
16972.5
10988
7155.18
4515.66
2721.09
1829.94
1626.79
1517.74
1207.12
935.895
745.36
213.227
218.504
1491.56
1955.36
3388.98
5703.97
8800.2
12906
18198.8
24516.4
30429.7
33782
35546.5
39537
45990.6
54643.1
67033.5
85952.1
112471
144708
175326
188777
184510
180545
180398
181435
182589
183026
181932
178955
174027
166023
154115
139242
123157
109808
103138
102226
105448
109420
111262
109845
103180
90331.8
72129.5
52133.1
36002.4
24076.4
15821
10261.7
6626
4300.49
2882.09
2174.98
2261.07
2836.34
2582.95
2021.11
1625.34
1163.31
304.097
81.9166
1050.01
2396.13
5015.52
8699.38
13726
19655.3
27074.9
35075.5
42565.7
48963.7
54542.4
63220.9
76915.4
97307
123939
155830
191542
227592
252688
251680
236695
226630
220821
217047
214743
212076
207437
200412
190763
178632
163971
148620
135905
127383
121855
118789
118499
118710
116655
109911
98216.4
84292.6
69190.5
51967.9
35582.9
22798.6
13972.1
8492.27
5649.82
4304.09
3748.78
3921.92
4553.27
4873.52
4046.23
2979.22
2317.32
1569.49
362.594
24.1442
334.269
831.686
1751.45
3195.43
5202.39
7598.8
10749.3
14721.7
19960.5
26627.3
34695.1
45227.4
60174.3
83322.2
112508
143397
167191
179436
175589
161159
150282
146360
146797
147384
146578
143580
138189
131645
124841
117624
110286
104072
100057
98204.7
98202.7
100439
102753
102693
97740.5
87277
72215.4
57374.6
43541.7
30634.3
20832.6
14413.9
10196.9
7786.07
6955.48
7415.8
9025.61
10531.7
9687.08
7821.05
5880.27
4689.31
3394.73
2165.84
423.645
5.03576
25.1057
57.176
121.48
237.064
429.449
735.049
1218.82
1956.32
3041.8
4541.27
6536.24
9343.63
13483
19730.8
28518
39726.6
50080.6
53212.6
49386.7
42961
38795.1
38100
39510.8
40769.6
41947.4
42754.9
43285.9
43118.9
42034
40078.6
37352.6
34833.4
32955.3
31888.6
31753.9
32411.6
32538.7
31772.6
28609.3
25495.7
20905.9
16618.1
12374.6
9287.82
7692.52
7773.32
9652.65
13859.5
21303.1
28574.4
32865.5
29393.3
23985.4
19171.5
15739.3
12187.6
7730.54
4205.79
538.685
7.0598
7.60017
6.6153
8.80958
14.0475
22.6282
36.4346
57.9794
91.2567
140.813
212.504
317.344
483.553
756.211
1204.78
1896.04
2873.78
4205.1
4761.04
4159.69
3189.61
2580.52
2519.14
2773.86
3001.58
3225.9
3430.7
3627.26
3766.46
3690.76
3391.08
2919.81
2511.67
2260.92
2191.01
2297.78
2482.95
2716.52
3091.6
3072.46
2970.97
2531.36
2076.41
1867.13
2311.26
3687.61
6455.28
11486.8
20468
35356.2
50719.3
54734.8
50639.8
41105.4
30303.9
22565.5
15562.3
9459.48
5092.79
627.762
10.1492
19.254
12.551
7.9626
6.29722
5.32411
5.39072
5.61115
6.37726
7.28538
8.63744
10.4414
13.2763
18.0496
26.2459
39.7846
61.494
95.2274
132.891
115.746
80.1485
60.1062
60.7085
67.9033
72.7281
76.7001
80.1948
83.8209
87.5964
92.5914
84.7251
70.7497
63.2419
65.0115
70.6326
79.7449
92.9634
111.225
136.9
175.413
253.379
384.243
654.665
1208.43
2332.84
4654.18
9496.76
19160.2
36919.4
59004
72719.3
74970.2
65678.3
48731.5
32133
21364.4
10258.1
7138.64
4503.35
658.889
20.8048
68.6276
61.3288
46.33
39.2938
33.0567
30.8296
27.8776
26.5565
24.2978
23.0966
21.6879
19.9073
17.4784
14.4575
11.5637
9.55996
8.81448
9.37653
9.92914
10.4522
11.6289
12.8043
12.7724
11.7475
10.5663
9.56198
8.88025
8.47596
8.32599
8.42285
8.8205
9.58135
10.812
12.789
15.871
20.8303
29.2116
44.1165
71.9799
127.216
241.516
488.338
1036.21
2281.32
5175.69
11912.8
26595.1
47916.4
65790.3
75245.5
72769.9
58328.6
39365.1
23869.7
14701.6
5930.39
8862.03
3448.46
666.267
63.6106
244.899
309.002
295.799
296.15
288.58
291.396
287.928
288.39
282.491
280.217
274.98
266.872
251.995
230.111
203.53
177.627
157.179
143.196
136.283
130.477
125.426
118.314
108.264
96.0601
83.5063
71.4831
60.981
52.494
45.9855
41.3325
37.9347
35.2724
33.2189
31.7287
30.7809
30.8956
33.1669
39.4955
53.2243
81.2944
139.998
268.922
571.021
1328.86
3308.81
8433.27
17507.6
26700.1
32199.4
32378
25610.6
16461.5
9393.4
5361.22
3356.1
2785.64
4770.05
2139.98
730.026
273.802
564.193
1219.04
1594.2
1934.81
2194.77
2434.38
2633.24
2806.65
2954.51
3075.17
3186.31
3276.87
3351.39
3390.71
3392.34
3342.81
3248.18
3108.87
2933.2
2733.88
2518.71
2296.05
2076.74
1861.94
1656.63
1459.26
1272.11
1101.69
952.265
822.098
711.009
615.963
535.441
467.473
411.051
364.959
329.531
306.525
298.86
310.88
349.529
426.517
553.967
749.465
1054.86
1527.6
1828.23
1787.38
1444.4
1007.15
659.356
469.962
448.241
766.667
1972.41
3899.67
4573.16
3492.27
2184.15
228.999
455.532
1004.43
1324.13
1617.45
1847.68
2042.84
2207.48
2339.92
2451.33
2549.52
2646.83
2744.85
2836.51
2904.14
2932.75
2911.59
2839.08
2717.55
2553.98
2357.31
2139.31
1910.61
1693.37
1502.54
1341.24
1202.28
1080.89
973.132
877.182
793.346
722.808
665.037
618.523
582.263
556.279
540.921
537.568
547.028
567.571
595.379
628.525
671.002
740.886
839.777
960.912
1098.95
1165.16
1082.28
882.016
659.712
485.858
406.125
477.938
922.886
2261.37
3982.54
4160.59
3076.88
2272.88
153.255
334.761
773.17
1034.66
1263.1
1447.26
1596.12
1722.95
1821.16
1903.55
1976.26
2049.69
2124.54
2194.24
2244.01
2263.16
2244.4
2188.36
2098.38
1980.81
1842.51
1691.13
1533.46
1378.99
1241
1124.99
1025.48
940.164
861.169
788.504
723.271
666.208
616.175
573.101
537.66
510.58
490.405
476.41
474.048
496.548
560.997
695.074
934.526
1316.38
1791.85
2277.53
2755.35
3000.54
2796.3
2217.63
1543.44
980.011
651.872
571.987
839.457
1865.81
3330.71
3612.7
2640.01
1862.98
137.748
268.915
546.886
711.476
863.828
991.686
1092.47
1180.51
1247.36
1303.5
1353.37
1404.32
1456.26
1503.3
1534.67
1542.97
1523.95
1478.93
1411.61
1327.71
1231.54
1126.88
1015.66
902.097
796.204
708.553
633.71
567.386
507.668
456.986
419.669
399.776
393.134
399.319
416.977
435.839
465.082
531.434
660.189
875.348
1200.75
1662.06
2246.31
2997.31
3754.66
4451.21
5139.21
5541.03
5394.2
4687.82
3688.34
2585.59
1627.1
1090.46
966.84
1466.21
2587.83
2944.48
1998.06
1275.89
128.787
205.403
354.346
433.838
523.014
603.505
669.52
731.455
780.253
819.951
849.574
877.415
904.482
926.663
936.195
928.274
900.633
855.158
795.48
727.209
663.744
612.731
580.019
578.241
588.207
601.806
624.1
674.55
771.925
948.18
1173.16
1349.76
1438.08
1559.4
1759.25
1899.47
2030.54
2278.33
2564.44
2908.89
3418.31
4032.25
4527.31
5054.98
5678.87
6530.16
7669.82
8627.82
8776.48
7878.13
6706.96
5669.93
4624.46
3080.18
1886.68
1483.67
2300.27
3075.77
1799.57
1016.87
118.151
124.441
165.088
203.082
243.918
287.21
317.498
348.646
369.349
387.555
402.215
417.127
429.552
435.95
430.169
413.186
388.106
360.244
334.913
316.29
306.905
309.328
331.512
377.498
444.504
538.083
665.383
835.765
1065.53
1367.78
1700.6
2012.37
2250.93
2459.28
2718.11
2980.87
3202.64
3407.2
3681.22
4015.87
4475.6
4967.61
5274.15
5384.39
5472.72
5855.38
6356.6
6752.82
6858.53
6653.63
6524.08
6507.69
6310.07
4810.42
2721.94
1975.97
2518.3
3341.16
1813.27
868.731
103.439
72.9621
100.032
127.806
162.18
188.647
215.378
234.76
250.367
261.674
271.838
281.279
288.889
290.787
285.174
273.169
258.157
244.32
235.471
234.449
244.109
267.854
303.385
349.671
407.988
483.995
583.474
704.539
852.972
1042.66
1266.9
1533.13
1806.01
2079.58
2344.04
2603.13
2890.86
3181.83
3493.03
3804.68
4177.38
4520.23
4743.83
4812.72
4822.37
4938.89
5020.04
5113.55
5440.69
5681.4
5906.14
5986.14
6028.35
5604.54
3498.97
2287.74
2842.78
3772.4
1762.45
778.985
107.174
123.319
185.647
231.791
285.829
330.049
376.237
411.786
441.996
465.521
485.839
502.783
515.666
517.492
503.643
475.666
438.73
399.965
365.753
339.746
325.546
326.785
341.107
363.55
394.856
437.785
493.031
562.706
658.746
796.128
966.33
1197.14
1497.95
1838.69
2214.85
2687.63
3241.75
3765.4
4223.24
4567.21
4897.78
5209.15
5310.71
5221.96
4969.74
4575.07
3804.29
2918.83
2568.22
2481.27
2593.97
2781.56
2895.82
2547.57
1869.8
1775.26
2744.33
3950.81
1915.21
826.135
79.6094
164.34
355.971
486.065
625.006
735.591
846.528
934.506
1007.5
1065.32
1111.45
1145.66
1163.44
1156.57
1108.86
1023.7
907.379
779.986
661.333
565.278
499.673
465.415
463.046
503.608
584.203
707.517
890.981
1146.6
1503.55
1982.7
2625.35
3414.16
4417.55
5569.25
6568.81
7332.85
7962.16
8711.92
9659.3
10537.1
11219.8
11841.7
12784.5
14154.3
15261.7
15783.5
15724.8
14824.5
13261.6
11095.2
8698.57
7247.66
6499.42
5535.28
3522.69
3040.34
5249
7471.66
2807.9
1198.3
74.6551
196.18
502.833
736.468
986.766
1188.67
1392.27
1564.56
1714.61
1846.1
1974.8
2104.19
2237.02
2363.62
2456.98
2493.77
2455.76
2337.22
2144.98
1891.11
1634.81
1415.9
1255.63
1152.23
1103.55
1118.66
1214.23
1410.8
1724.97
2172.14
2777.87
3520.55
4400.84
5260.04
6164.11
7103.26
7881.81
8511.36
9204.93
10145.3
11295
12641.1
14334.7
16160.3
17737.1
19215
20204.8
19555.3
17214.5
13385.1
9525.96
6990.4
5448.24
3876.15
2526.55
3073.56
5565.75
6470.64
2751.61
1499.97
83.5765
248.526
656.178
937.087
1237.1
1485.79
1721.49
1919.11
2092.21
2243.54
2394.2
2552.71
2724.64
2904.37
3070.61
3203.11
3281.46
3297.32
3249.44
3141.93
2982.93
2780.83
2545.14
2295.88
2085.08
1918.25
1788.92
1696.87
1637.46
1602.65
1586.95
1596.51
1626.04
1636.75
1654.4
1697.5
1788.49
1968.63
2321.59
2966.03
4046.18
5504.47
7291.36
9127.59
10840.5
12202.6
12637.5
11653.1
9658.19
7649.13
5752.5
3937.06
3087.56
2384.57
2224.55
3701.98
6402.67
6572.97
3057.82
1790.62
103.844
302.545
767.439
1087.22
1403.35
1658.13
1889.35
2079.83
2242.7
2383.11
2513.24
2649.58
2791.06
2937.33
3069.46
3175.49
3239.36
3258.31
3233.7
3167.49
3063.05
2928.84
2768.98
2596.66
2417.35
2240.45
2063.9
1907.08
1763.67
1632.26
1508.91
1396.46
1296.99
1206.62
1125.02
1050.37
980.041
930.522
935.022
1045.01
1345.22
1891.88
2704.63
3708
4660.27
5155.29
5069.61
4517.33
3741.9
2910.3
2110.2
1502.68
1237.69
1260.96
1907.68
3880.65
6240.8
6215.64
3403.4
1871.9
116.102
305.392
797.977
1132.45
1449.9
1700.24
1918.84
2097.06
2245.1
2372.29
2483.99
2598.35
2708.64
2818.06
2904.33
2964.11
2982.24
2961.51
2905.08
2818.17
2705.57
2574.86
2427.7
2271.95
2108.75
1942.57
1775.42
1625.79
1490.58
1372.02
1270.85
1188.75
1125.75
1078.37
1043.85
1020.39
1003.24
974.53
949.891
937.005
971.691
1111.71
1353.41
1687.79
2026.15
2176.93
2084.09
1806.54
1454.3
1170.59
924.262
758.096
720.814
901.281
1668.76
3693.58
6006.23
6127.18
3966.02
2188.65
118.391
301.584
854.958
1215.13
1540.57
1790.38
2006.24
2178.7
2320.79
2442.71
2544.1
2644.71
2732.18
2813.67
2864.9
2888.09
2866.86
2808.08
2712.05
2586.56
2438.5
2277.49
2108.59
1940.07
1774.78
1617.47
1465.45
1326.13
1201.78
1093.89
1001.18
923.271
859.059
807.288
765.213
729.283
699.709
683.508
688.496
720.841
778.569
858.248
947.014
1039.47
1107.01
1111.5
1047.97
933.052
800.697
678.785
577.727
516.16
524.69
704.118
1422.55
3442.91
6065.03
6745.83
4958.63
2934.85
177.492
416.617
992.193
1354.55
1690.12
1935.72
2155.18
2326.16
2468.55
2591.08
2689.91
2786.84
2864.4
2934.78
2970.73
2979.65
2942.53
2868.42
2754.74
2609.57
2440.08
2255.5
2062.99
1870.18
1680.86
1500.16
1327.79
1170.89
1035.36
920.734
823.068
740.918
672.161
615.663
569.916
534.728
511.229
502.047
510.291
541.642
599.218
683.398
786.03
863.513
881.656
843.85
771.608
680.062
585.295
501.404
435.524
395.412
401.724
537.058
1114.22
2905.36
5767.93
7130.58
5516.52
3175.51
211.716
470.19
1168.15
1589.74
1978.82
2276.83
2545.26
2767.01
2957.17
3115.83
3242.97
3362.48
3468.56
3561.18
3620.33
3634.59
3589.11
3486.02
3331.47
3136.55
2914.77
2681.68
2447.81
2226.11
2014.65
1814.68