/*--------------------------------*- C++ -*----------------------------------*\
| =========                 |                                                 |
| \\      /  F ield         | OpenFOAM: The Open Source CFD Toolbox           |
|  \\    /   O peration     | Version:  2.1.1                                 |
|   \\  /    A nd           | Web:      www.OpenFOAM.org                      |
|    \\/     M anipulation  |                                                 |
\*---------------------------------------------------------------------------*/
FoamFile
{
    version     2.0;
    format      ascii;
    class       volVectorField;
    location    "0.0014";
    object      fluctuation1;
}
// * * * * * * * * * * * * * * * * * * * * * * * * * * * * * * * * * * * * * //

dimensions      [0 1 -1 0 0 0 0];

internalField   nonuniform List<vector> 
36520
(
(-4.43039e-05 2.247e-05 5.16028e-05)
(-5.77369e-05 1.75796e-05 7.91152e-05)
(3.9332e-06 3.54233e-05 0.000112023)
(5.42301e-06 5.20763e-05 0.000140275)
(7.685e-06 7.28523e-05 0.000170426)
(8.72654e-06 9.48004e-05 0.000196467)
(9.88461e-06 0.000117766 0.000225633)
(1.1418e-05 0.000143184 0.000260703)
(1.36808e-05 0.000171836 0.000304377)
(1.71699e-05 0.000204972 0.000359605)
(2.21154e-05 0.000244648 0.000427957)
(2.97305e-05 0.000292914 0.000511437)
(4.20299e-05 0.000356799 0.000618106)
(6.13714e-05 0.000445664 0.000757713)
(8.99904e-05 0.000572967 0.000944018)
(0.000129011 0.000749883 0.00118499)
(0.000176161 0.000985483 0.00148229)
(0.000223788 0.00127546 0.00181414)
(0.000259245 0.00159856 0.00213921)
(0.000267772 0.00191498 0.00239402)
(0.000237035 0.0021702 0.00250465)
(0.000132278 0.00229954 0.00238356)
(-1.30026e-05 0.00221134 0.00214006)
(-0.000108804 0.00199913 0.00188303)
(-0.000123435 0.00173433 0.00156153)
(-7.59648e-05 0.0015084 0.00118325)
(-3.82683e-06 0.00137789 0.000807456)
(7.25903e-05 0.00134272 0.000486201)
(0.000145907 0.00139184 0.000236969)
(0.000214393 0.00153352 5.74165e-05)
(0.000272806 0.00176574 -9.51415e-05)
(0.000304194 0.00206335 -0.000235956)
(0.000294191 0.00238185 -0.000369558)
(0.000238128 0.00266214 -0.000488402)
(0.00014234 0.00284086 -0.000578406)
(2.13407e-05 0.00286831 -0.000630653)
(-0.000107545 0.00271585 -0.0006438)
(-0.000226738 0.00237841 -0.000625803)
(-0.000320881 0.00187964 -0.000594751)
(-0.000374021 0.00126287 -0.000584937)
(-0.000368888 0.000568204 -0.0007678)
(-0.000292504 -0.000679372 -0.00585954)
(-0.00016315 -0.00308853 -0.0202112)
(-0.000262726 -0.0079373 -0.0327331)
(-0.0008316 -0.0137229 -0.0339846)
(-0.00279946 -0.063628 -0.0152999)
(-0.0115912 -0.24893 -0.000588908)
(-0.0205137 -0.394877 0.00427949)
(-0.0149364 -0.469528 0.0043517)
(-0.00351736 -0.486483 -0.0362117)
(0.0010347 -0.456092 -0.112204)
(0.00380362 -0.404994 -0.145227)
(0.00800193 -0.3627 -0.12363)
(0.0468276 -0.329963 -0.0550248)
(0.220034 -0.265494 -0.0946535)
(0.179654 -0.527356 -0.0114112)
(0.0554952 -0.848954 -0.181849)
(-0.146361 -0.735346 -0.722469)
(0.054435 -0.240105 -0.918084)
(0.00637128 -0.0596608 -0.755177)
(-2.89138e-05 7.34357e-05 9.56979e-05)
(-3.18199e-05 0.000124644 0.000140072)
(9.01286e-06 0.000155698 0.000156295)
(1.54149e-05 0.000181502 0.000158858)
(1.6898e-05 0.000209223 0.000159851)
(1.74934e-05 0.000234738 0.000155284)
(2.1429e-05 0.000264877 0.000151739)
(2.69892e-05 0.000300459 0.000148751)
(3.446e-05 0.000345586 0.000149263)
(4.35611e-05 0.000399512 0.000154665)
(5.43151e-05 0.000466831 0.000167289)
(6.93845e-05 0.000548923 0.000185745)
(9.22921e-05 0.000656309 0.000210796)
(0.000125302 0.000796656 0.000235898)
(0.000167817 0.000981585 0.000252924)
(0.000213713 0.00120367 0.000239575)
(0.000249987 0.00144688 0.000170187)
(0.000260238 0.00166841 3.13873e-05)
(0.000234873 0.0018194 -0.000141886)
(0.000175949 0.00187264 -0.000268775)
(9.14568e-05 0.00185504 -0.00031917)
(3.50495e-06 0.0018222 -0.000358877)
(-6.10761e-05 0.00162156 -0.000346148)
(-0.000103575 0.00147884 -0.000318883)
(-0.000136529 0.00141148 -0.000266885)
(-0.000143713 0.00134925 -0.000225724)
(-0.000122512 0.00127941 -0.000207465)
(-8.49991e-05 0.001212 -0.000204268)
(-4.35208e-05 0.00116705 -0.000219989)
(-1.07266e-05 0.00113765 -0.000243351)
(9.06009e-06 0.00111487 -0.000274265)
(1.82197e-05 0.00108805 -0.000313866)
(1.73288e-05 0.00104528 -0.000354827)
(8.95734e-06 0.000978956 -0.000388046)
(-4.66787e-06 0.000891568 -0.000407619)
(-2.23719e-05 0.000782979 -0.000409235)
(-4.35948e-05 0.000652597 -0.000390962)
(-6.87091e-05 0.000499579 -0.000360389)
(-0.000100949 0.000287804 -0.000512069)
(-0.000179284 -2.94282e-05 -0.00112689)
(-0.00170122 -0.000157106 -0.002455)
(-0.00648885 0.000628532 -0.00463883)
(-0.00966446 -0.000249781 -0.00935096)
(-0.00391828 -0.0120941 -0.0333534)
(0.00338964 -0.0372763 -0.114825)
(0.00184034 -0.0537989 -0.184071)
(0.000287019 -0.0707443 -0.222327)
(-0.00145422 -0.103301 -0.250785)
(-0.0090471 -0.208639 -0.249024)
(-0.0101296 -0.332345 -0.200188)
(-0.00303963 -0.31597 -0.262209)
(-8.09137e-05 -0.216808 -0.359835)
(0.000350478 -0.150328 -0.399191)
(0.000188707 -0.100704 -0.392566)
(0.000512434 -0.0735237 -0.355265)
(0.00803713 -0.123843 -0.317204)
(-0.592831 -0.0457602 -0.0156023)
(-0.652855 -0.0385094 0.000676658)
(-0.219842 -0.34752 -0.10163)
(-0.00598217 -0.219825 -0.436994)
(-1.68323e-05 0.000137944 5.96351e-05)
(-1.72508e-05 0.000150699 5.30996e-05)
(-1.28259e-06 0.000173765 4.52898e-05)
(8.55676e-07 0.00018276 2.96368e-05)
(-5.72374e-07 0.000193852 1.42161e-05)
(-1.50852e-06 0.000204428 -2.89001e-06)
(-2.84934e-07 0.000222694 -2.58244e-05)
(2.11291e-06 0.000241354 -5.91726e-05)
(5.80768e-06 0.000268047 -9.01537e-05)
(1.03247e-05 0.000302817 -0.000101274)
(1.48464e-05 0.000344323 -0.00011652)
(1.95584e-05 0.000392594 -0.000137323)
(2.43074e-05 0.000457557 -0.000167868)
(2.74343e-05 0.000545217 -0.000210552)
(2.3965e-05 0.000669751 -0.000270569)
(5.7874e-06 0.000839798 -0.000352685)
(-3.18366e-05 0.00108456 -0.000469169)
(-8.11849e-05 0.00144486 -0.000638943)
(-0.000107739 0.00168826 -0.00182545)
(-7.5489e-05 0.000883325 -0.00694173)
(-2.69109e-05 -0.00255629 -0.0202694)
(-7.43614e-06 -0.00875523 -0.0405724)
(-1.71737e-05 -0.0153305 -0.0589313)
(-7.01795e-06 -0.0159651 -0.0588077)
(4.22804e-06 -0.0106649 -0.0398984)
(1.79579e-06 -0.0063178 -0.0243273)
(-1.71665e-07 -0.00457873 -0.0182906)
(-1.20356e-06 -0.00407399 -0.0164647)
(-1.16248e-06 -0.00409247 -0.0164931)
(9.96695e-08 -0.00431805 -0.0172874)
(3.01093e-07 -0.0046121 -0.0183542)
(-1.13447e-07 -0.00490639 -0.019503)
(-3.39604e-07 -0.00517251 -0.0206183)
(-4.17611e-07 -0.0053728 -0.0215407)
(-4.33811e-07 -0.00551434 -0.022264)
(-4.46647e-07 -0.00563763 -0.0229008)
(-2.14615e-06 -0.00559318 -0.0229255)
(-5.34891e-05 -0.00525398 -0.0219745)
(-0.000255194 -0.00465354 -0.0204091)
(-0.000684461 -0.00368281 -0.0185818)
(-0.00132206 -0.00247827 -0.0178062)
(-0.00276141 -0.0017858 -0.0180502)
(-0.0148803 -0.00611174 -0.0165519)
(-0.0779957 -0.040963 -0.025356)
(-0.153321 -0.0715459 -0.0562321)
(-0.142013 -0.0838743 -0.129634)
(-0.051082 -0.110269 -0.197573)
(-0.0108407 -0.177869 -0.233529)
(-0.0418668 -0.338596 -0.19132)
(-0.0947052 -0.495587 -0.0718688)
(-0.103103 -0.597875 -0.0645761)
(-0.0663967 -0.662395 -0.171895)
(-0.0318746 -0.624374 -0.358032)
(0.00967946 -0.56861 -0.409682)
(0.0189849 -0.314083 -0.548817)
(0.00569777 -0.143953 -0.515553)
(0.000137658 -0.099553 -0.407685)
(-0.7177 -0.0344243 -0.136148)
(-0.561118 -0.0199803 0.0042702)
(-0.023083 -0.325735 -0.267669)
(-2.02397e-05 0.000126082 -1.2473e-05)
(-1.87145e-05 0.000138129 -3.1233e-05)
(-7.04239e-06 0.00016313 -5.397e-05)
(-5.9201e-06 0.000181722 -6.13131e-05)
(-6.67635e-06 0.000203904 -6.22675e-05)
(-9.21176e-06 0.000221216 -7.11052e-05)
(-1.45576e-05 0.00022804 -0.000142871)
(-1.70391e-05 0.000248342 -0.000240114)
(-8.33111e-06 0.000284974 -0.000386037)
(-3.07067e-08 0.00034086 -0.000637442)
(-4.00906e-08 0.000442734 -0.00100638)
(-5.23532e-08 0.00063364 -0.00145591)
(-6.84194e-08 0.00101953 -0.00193105)
(-9.02841e-08 0.00179549 -0.00236529)
(-1.2189e-07 0.00332337 -0.00262253)
(-1.68074e-07 0.00618766 -0.00264036)
(-4.03489e-07 0.00498562 -0.0214431)
(-0.00115826 -0.0217984 -0.119981)
(-0.00434377 -0.0870695 -0.323616)
(-0.00684765 -0.155346 -0.525534)
(-0.0072885 -0.202733 -0.664319)
(-0.00882241 -0.228141 -0.739328)
(-0.00999465 -0.20678 -0.668756)
(-0.00511341 -0.154398 -0.494714)
(-0.000300471 -0.100544 -0.314429)
(0.00054792 -0.0634996 -0.206385)
(6.74891e-05 -0.0444272 -0.154342)
(-0.00025564 -0.0356878 -0.127849)
(-0.000392322 -0.030388 -0.1105)
(-0.00036387 -0.026575 -0.0968239)
(-0.00027976 -0.0239132 -0.0866596)
(-0.000201096 -0.0223124 -0.0805024)
(-0.000123068 -0.0215115 -0.077665)
(-4.07708e-05 -0.0211635 -0.0766531)
(2.92918e-05 -0.0209877 -0.0765773)
(0.000161853 -0.020701 -0.0763622)
(0.000419573 -0.0206913 -0.0763193)
(0.000702103 -0.0208864 -0.0767033)
(0.000927192 -0.0211172 -0.0775236)
(0.00100075 -0.0208197 -0.0785137)
(0.000722558 -0.0205337 -0.0801261)
(0.000325553 -0.0203819 -0.0847247)
(-0.00291078 -0.0219715 -0.0936012)
(-0.0228303 -0.0333555 -0.105637)
(-0.0832861 -0.089638 -0.086842)
(-0.0822729 -0.170897 -0.00587591)
(-0.0414037 -0.226817 0.0149465)
(-0.0189485 -0.288704 0.0202077)
(-0.0142715 -0.368943 0.0288723)
(-0.0419467 -0.475365 0.0413578)
(-0.1738 -0.60593 0.0502567)
(-0.36691 -0.721729 0.040083)
(-0.266541 -0.837427 -0.00647056)
(-0.132599 -0.854735 -0.132904)
(-0.0119353 -0.752615 -0.337722)
(0.0655767 -0.591146 -0.450143)
(0.0595429 -0.311474 -0.465716)
(0.031188 -0.201015 -0.459273)
(-0.636323 -0.008427 -0.0197533)
(-0.0465888 -0.323402 -0.238862)
(-2.49662e-05 0.00018474 -6.77574e-05)
(-2.42564e-05 0.000232917 -6.73983e-05)
(-1.32062e-05 0.000281821 -0.000303749)
(-3.87814e-06 0.000281999 -0.000906207)
(-4.65688e-06 0.000251117 -0.00207057)
(-4.89188e-05 -5.55913e-05 -0.00481998)
(-0.000119419 -0.000499568 -0.00900809)
(-0.000187158 -0.000941929 -0.0150405)
(-0.000320912 -0.00128894 -0.0240346)
(-0.00049218 -0.00176756 -0.0385847)
(-0.000561458 -0.00238019 -0.0596483)
(-0.000411907 -0.0098962 -0.105078)
(-9.62406e-05 -0.0350829 -0.197244)
(0.000210011 -0.0773634 -0.333645)
(0.000326367 -0.135335 -0.510259)
(-0.00241694 -0.204612 -0.71718)
(-0.00899929 -0.283581 -0.949927)
(-0.017158 -0.368982 -1.19998)
(-0.0233029 -0.455161 -1.44818)
(-0.0238857 -0.531696 -1.66107)
(-0.0194116 -0.582248 -1.79068)
(-0.0146933 -0.593028 -1.80266)
(-0.0196783 -0.527528 -1.60699)
(-0.0350476 -0.404286 -1.25382)
(-0.0212634 -0.327074 -0.868317)
(-0.000826191 -0.257566 -0.621724)
(0.00198841 -0.192846 -0.507928)
(-0.000227279 -0.14232 -0.460433)
(-0.00427028 -0.127125 -0.42579)
(-0.00814853 -0.114768 -0.395228)
(-0.00766303 -0.106701 -0.368279)
(-0.00404594 -0.102409 -0.349668)
(-0.000789319 -0.101095 -0.339788)
(0.00181805 -0.100278 -0.333391)
(0.00449445 -0.0984928 -0.32611)
(0.0056355 -0.0965857 -0.318613)
(0.00588295 -0.0950156 -0.313046)
(0.00646806 -0.093797 -0.309636)
(0.0072081 -0.0939546 -0.312194)
(0.00713273 -0.0957244 -0.320488)
(0.00476132 -0.0902063 -0.307363)
(0.00160874 -0.0788787 -0.274886)
(-0.000847855 -0.0586568 -0.216524)
(-0.0021611 -0.0383411 -0.153669)
(-0.00485454 -0.0409041 -0.156347)
(-0.0125616 -0.0608534 -0.167335)
(-0.0258854 -0.126927 -0.154833)
(-0.023224 -0.220945 -0.0767381)
(-0.0216672 -0.28874 -0.0299824)
(-0.0648185 -0.363209 -0.0186887)
(-0.173291 -0.446514 0.00340003)
(-0.426423 -0.472249 0.12178)
(-0.897894 -0.0186404 0.244102)
(-1.00136 0.00100129 0.0676642)
(-0.479117 -0.582803 -0.0924269)
(-0.0342084 -0.64048 -0.139032)
(0.0408999 -0.525325 -0.321)
(0.0273996 -0.334416 -0.441091)
(-0.693451 -0.0471583 -0.0794948)
(-0.173921 -0.290074 -0.250677)
(-2.4488e-05 -0.00011813 -0.00150511)
(-0.000169013 -0.00119504 -0.0064328)
(-0.000577717 -0.00349199 -0.0184286)
(-0.00108446 -0.00732182 -0.0415078)
(-0.00205127 -0.0115683 -0.0711384)
(-0.00311874 -0.0159448 -0.110177)
(-0.00338403 -0.0249636 -0.167065)
(-0.00345747 -0.0410638 -0.246332)
(-0.00386768 -0.0674709 -0.350403)
(-0.00418328 -0.103764 -0.47318)
(-0.00768161 -0.141305 -0.598455)
(-0.018514 -0.184941 -0.725937)
(-0.0350502 -0.269634 -0.856692)
(-0.0608847 -0.358339 -1.01924)
(-0.101828 -0.443549 -1.23783)
(-0.156558 -0.548432 -1.51142)
(-0.22372 -0.705416 -1.82192)
(-0.325067 -0.981426 -2.11123)
(-0.439757 -1.52108 -2.22421)
(-0.371802 -2.36286 -1.8673)
(-0.137607 -2.90408 -1.41506)
(0.0166743 -3.022 -1.18131)
(0.0991293 -2.89121 -1.0081)
(0.132186 -2.50992 -0.893834)
(0.121244 -1.51821 -1.40775)
(-0.0512903 -0.763258 -1.43177)
(-0.035257 -0.72151 -1.19041)
(-0.0285121 -0.71722 -1.05253)
(-0.0291212 -0.659327 -1.01352)
(-0.0568284 -0.527884 -1.03656)
(-0.0916914 -0.433928 -1.03701)
(-0.0998028 -0.385568 -1.03034)
(-0.0717958 -0.371853 -1.0329)
(-0.0277549 -0.373288 -1.04548)
(0.0096774 -0.379676 -1.05738)
(0.0356105 -0.390604 -1.05528)
(0.037973 -0.425165 -1.04148)
(0.0366205 -0.395477 -1.04258)
(0.035742 -0.408246 -1.03294)
(0.0325369 -0.423826 -1.02852)
(0.0240989 -0.431148 -0.985126)
(0.00729852 -0.396296 -0.924285)
(-0.000164751 -0.289549 -0.827075)
(0.00226262 -0.190214 -0.630506)
(0.00242456 -0.142204 -0.493783)
(-0.00317531 -0.131136 -0.429036)
(-0.0181372 -0.131139 -0.38765)
(-0.0299443 -0.11286 -0.342419)
(-0.0406979 -0.106044 -0.322225)
(-0.0935263 -0.126403 -0.337234)
(-0.152581 -0.149235 -0.374896)
(-0.0807418 -0.137291 -0.463436)
(-0.231639 -0.107354 -0.485183)
(-0.698518 0.146201 0.0403801)
(-0.611683 0.15978 0.276562)
(-0.693506 -0.0182995 0.241398)
(-0.157172 -0.489056 0.0455106)
(-0.0877938 -0.334158 -0.363394)
(-0.464699 -0.161869 -0.267942)
(-0.358989 -0.278142 -0.16059)
(-0.00823479 -0.000240711 -0.00370316)
(-0.0186379 0.000662051 -0.0240417)
(-0.0367182 0.0168723 -0.0687048)
(-0.0507633 0.0645286 -0.126081)
(-0.0632067 0.139472 -0.154888)
(-0.102596 0.28278 -0.0150181)
(-0.183021 0.389136 -0.0227224)
(-0.3294 0.514778 -0.0385772)
(-0.569085 0.644173 -0.0682896)
(-0.764169 0.808917 -0.119972)
(-0.910516 0.981515 -0.177134)
(-0.0327283 -0.698327 -1.33019)
(-0.025353 -1.39251 -0.975375)
(-0.0552086 -1.23898 -1.34727)
(-0.138532 -0.83456 -1.83931)
(-0.229445 -0.845729 -2.16568)
(-0.269555 -1.01379 -2.53121)
(-0.276777 -1.53253 -2.68476)
(-0.253233 -2.71086 -1.96872)
(-0.185338 -3.54218 -0.373467)
(-0.0888277 -3.74525 0.365079)
(-0.0187682 -3.79406 0.51943)
(0.0365909 -3.74023 0.465055)
(0.0789588 -3.59326 0.401731)
(0.158638 -3.33808 0.225129)
(0.189662 -1.96537 -2.1062)
(-0.0721134 -0.48943 -2.48128)
(-0.0741051 -1.18772 -2.02789)
(-0.073975 -1.24939 -1.83758)
(-0.107157 -1.13624 -1.78846)
(-0.186429 -0.886424 -1.82219)
(-0.239543 -0.664129 -1.84132)
(-0.237217 -0.459211 -1.86491)
(-0.181395 -0.320837 -1.88355)
(-0.151613 -0.408202 -1.87714)
(-0.140318 -1.65577 -1.02485)
(-0.105936 -1.66344 -1.13464)
(-0.0509311 -1.00517 -1.77474)
(-0.0239335 -0.643854 -1.93116)
(0.0493975 -0.407312 -1.98016)
(0.0952235 -0.351875 -1.95519)
(-0.0109393 -0.463808 -1.86582)
(-0.0894529 -0.444849 -1.78314)
(-0.0220295 -0.312273 -1.60973)
(0.0835082 -0.217503 -1.40231)
(0.0860354 -0.228759 -1.24539)
(0.0207012 -0.224875 -1.13683)
(-0.0286401 -0.199393 -1.02467)
(-0.0720494 -0.160893 -0.874312)
(-0.222058 -0.142123 -0.690341)
(-0.687905 -0.158587 -0.210016)
(-0.587394 -0.159442 -0.191381)
(-0.402376 0.24895 -0.293512)
(0.166005 0.423737 0.195011)
(0.0477401 0.368934 0.420563)
(-0.203222 0.341735 0.430234)
(-0.518259 0.22843 0.196294)
(-0.627449 -0.0490511 -0.106649)
(-0.286567 -0.246969 -0.293429)
(-0.444386 -0.254587 -0.0399456)
(-0.0262079 0.00271702 0.00291808)
(-0.0743923 0.0338191 0.0175976)
(-0.112735 0.165843 0.0424005)
(-0.0576532 0.378724 0.0692322)
(0.0916885 0.548764 0.0988548)
(0.00219226 -0.845219 0.208769)
(0.00050854 -1.04871 0.256296)
(0.000634338 -1.282 0.315853)
(0.00076768 -1.52396 0.367056)
(0.000894305 -1.76428 0.4296)
(-0.00339957 -1.94796 0.492483)
(-0.00612323 -2.11789 0.53144)
(-0.00330406 -2.28769 0.552879)
(-0.00158023 -2.45725 0.546779)
(-0.0223736 -2.66379 0.281082)
(-0.157586 -1.1406 -2.50937)
(-0.0931737 -0.398308 -2.91875)
(-0.0446938 -0.390824 -3.09086)
(-0.0230138 -0.524028 -3.21966)
(-0.0126365 -1.20954 -3.18668)
(-0.0090953 -3.11733 -1.57114)
(-0.0088762 -3.56049 0.307481)
(0.00526561 -3.57154 0.66286)
(0.0417263 -3.56364 0.65241)
(0.113124 -3.56536 0.137412)
(0.138098 -1.84226 -2.93559)
(-0.0431595 -0.279028 -3.30365)
(-0.0701391 -0.205522 -3.15657)
(-0.0630343 -0.145086 -2.99804)
(-0.0677929 -0.130947 -2.83487)
(-0.0945906 -0.261448 -2.68116)
(-0.173942 -0.460909 -2.53495)
(-0.232341 -0.401192 -2.45548)
(-0.138884 -0.192622 -2.42478)
(-0.0161722 -0.234276 -2.38719)
(-0.278395 -0.389647 -2.34335)
(-1.75053 -0.437105 -2.01527)
(-1.68425 -0.481413 -2.067)
(-0.228796 -0.439159 -2.38886)
(0.685024 -0.280349 -2.38019)
(0.446086 0.00841633 -2.40642)
(-0.0960719 0.0527164 -2.37138)
(-0.140799 -0.128163 -2.29477)
(-0.049051 -0.192414 -2.17953)
(0.0201112 -0.151615 -1.99042)
(0.00785126 -0.0425467 -1.77095)
(-0.0245449 0.0699992 -1.55646)
(-0.0146323 0.154555 -1.36401)
(0.0300106 0.273511 -1.19064)
(0.0529186 0.591212 -0.947255)
(-0.116922 1.01801 -0.207425)
(-0.0874936 0.548939 0.6866)
(0.0172575 0.336731 0.721938)
(0.085318 0.292346 0.684689)
(0.0851307 0.30231 0.649389)
(-0.740984 0.281775 0.242333)
(-0.693412 0.0669771 0.0662371)
(-0.642132 -0.0396655 0.0367275)
(-0.413845 -0.283445 -0.193775)
(-0.430025 -0.248948 0.0355194)
(0.000303332 -0.285692 -0.107717)
(0.000496929 -0.410983 -0.176323)
(0.000778785 -0.679854 -0.286419)
(0.00104364 -0.925806 -0.384327)
(0.00123349 -1.10024 -0.45701)
(0.00147812 -1.32359 -0.543868)
(0.00162097 -1.45236 -0.597041)
(0.00139796 -1.56151 -0.645179)
(0.0013058 -1.65361 -0.686958)
(0.00203816 -1.72652 -0.72407)
(0.00225618 -1.78202 -0.762364)
(0.00116732 -1.83341 -0.795441)
(-0.00976924 -1.9045 -0.841492)
(-0.0615925 -1.97526 -0.904951)
(-0.14938 -2.05398 -0.94215)
(-0.184036 -2.14986 -0.945253)
(-0.133888 -2.24355 -0.950345)
(-0.0602898 -2.33808 -0.973445)
(-0.0205575 -2.41213 -1.02609)
(0.0104696 -2.46316 -1.09614)
(0.0515849 -2.49348 -1.17041)
(0.0854972 -2.52143 -1.21352)
(0.0499621 -2.58662 -1.20285)
(0.0226625 -2.64948 -1.21798)
(0.0177974 -2.68353 -1.22809)
(0.0171262 -2.7001 -1.22031)
(0.0152256 -2.71635 -1.20734)
(0.0125727 -2.73414 -1.19376)
(0.0101613 -2.75457 -1.17766)
(0.00663286 -2.76338 -1.15174)
(0.00290044 -2.72119 -1.10464)
(-0.0023984 -2.61751 -1.04899)
(-0.019797 -2.49219 -1.02519)
(-0.0238963 -2.38596 -1.02074)
(-0.0104103 -2.29914 -1.03324)
(-0.0111757 -2.23231 -1.04864)
(-0.0242599 -2.19843 -1.03453)
(-0.0289027 -2.21023 -0.960629)
(-0.0210824 -2.20093 -0.944174)
(-0.0135829 -2.18642 -0.932997)
(-0.00981769 -2.17212 -0.913967)
(-0.00714561 -2.15967 -0.883296)
(-0.00510602 -2.13266 -0.851776)
(-0.00412785 -2.08591 -0.818472)
(-0.0032109 -2.01261 -0.77344)
(-0.00129227 -1.9068 -0.713498)
(0.00190168 -1.77772 -0.643875)
(0.00652688 -1.63391 -0.570977)
(0.0114175 -1.4825 -0.499476)
(0.0128587 -1.33654 -0.434951)
(0.0073669 -1.20439 -0.386386)
(0.00171708 -1.09152 -0.354017)
(0.000160601 -1.01533 -0.339867)
(-0.00037895 -0.962738 -0.338375)
(-0.00611504 -0.869876 -0.32666)
(-0.0723292 -0.717902 -0.27671)
(-0.370216 -0.477128 -0.19052)
(-0.42151 -0.326837 -0.132765)
(-0.421817 -0.290942 -0.0588091)
(-0.340411 -0.270429 0.00234212)
(0.000239188 -0.263429 -0.0561616)
(0.000386631 -0.34639 -0.0873488)
(0.000635708 -0.636482 -0.152766)
(0.000803245 -0.82718 -0.193165)
(0.000714651 -0.957895 -0.224998)
(9.73987e-05 -1.06611 -0.246973)
(-0.000961629 -1.14539 -0.262144)
(-0.00282295 -1.21022 -0.274044)
(-0.00370789 -1.27291 -0.286131)
(3.97318e-05 -1.35027 -0.304025)
(0.00345482 -1.42678 -0.324364)
(0.00381365 -1.47686 -0.34218)
(0.00119188 -1.5097 -0.35844)
(-0.00873978 -1.54904 -0.369426)
(-0.0528023 -1.60121 -0.357791)
(-0.134489 -1.65401 -0.353167)
(-0.195891 -1.71204 -0.416905)
(-0.13705 -1.79026 -0.500129)
(-0.0491925 -1.86913 -0.55065)
(-0.0070262 -1.93719 -0.592797)
(0.034107 -1.99541 -0.63318)
(0.0704732 -2.04639 -0.642245)
(0.0577231 -2.0996 -0.587717)
(0.0177308 -2.13753 -0.574269)
(0.00631204 -2.17253 -0.582444)
(0.00414283 -2.21929 -0.588651)
(0.00400862 -2.28208 -0.595803)
(0.00591407 -2.35494 -0.606681)
(0.0107058 -2.42811 -0.619257)
(0.0167252 -2.49514 -0.629155)
(0.0174547 -2.55242 -0.633096)
(0.0101944 -2.59179 -0.63214)
(0.00214164 -2.57691 -0.623246)
(-0.00514576 -2.49382 -0.60448)
(-0.020071 -2.37412 -0.59016)
(-0.0246109 -2.26061 -0.567424)
(-0.0266869 -2.17174 -0.539084)
(-0.0289029 -2.11153 -0.515185)
(-0.0220885 -2.07179 -0.503852)
(-0.0107522 -2.04437 -0.502703)
(-0.00312476 -2.02348 -0.504836)
(0.000136518 -2.00466 -0.503974)
(0.00107722 -1.98238 -0.497684)
(0.00124194 -1.94519 -0.485322)
(0.0012434 -1.89181 -0.466908)
(0.00162094 -1.82167 -0.441709)
(0.00286943 -1.73151 -0.410671)
(0.00476691 -1.6219 -0.37457)
(0.00647916 -1.4887 -0.332987)
(0.00548083 -1.33238 -0.287492)
(0.00214667 -1.16534 -0.242884)
(-0.00109125 -1.00871 -0.204295)
(-0.00230817 -0.885335 -0.178987)
(-0.00110166 -0.788776 -0.162342)
(-0.000362816 -0.685509 -0.149647)
(-0.0318006 -0.575281 -0.130547)
(-0.268421 -0.419454 -0.0963642)
(-0.318968 -0.304754 -0.0891376)
(-0.338009 -0.279704 -0.05208)
(-0.303938 -0.246659 -0.093423)
(7.08107e-05 -0.212644 -0.0410433)
(0.000113612 -0.276548 -0.063321)
(0.000254037 -0.728527 -0.144002)
(0.000342824 -0.989596 -0.187718)
(0.000375495 -1.10776 -0.206276)
(0.000400299 -1.1986 -0.219823)
(0.000417083 -1.26153 -0.228319)
(0.000409802 -1.32746 -0.238486)
(-0.00018401 -1.41853 -0.257292)
(0.000445462 -1.52997 -0.28205)
(0.000798361 -1.61233 -0.302386)
(0.000534241 -1.62555 -0.313279)
(-0.000229176 -1.60743 -0.317729)
(-0.0236001 -1.62247 -0.247709)
(-1.28493 -0.191327 1.34915)
(-1.83567 -0.889708 0.52558)
(-1.01822 -1.65966 -0.0827062)
(-0.401362 -1.87217 -0.272478)
(-0.0863809 -1.95644 -0.377331)
(-0.0102686 -1.99662 -0.54109)
(0.0476031 -2.00613 -0.732998)
(0.125688 -1.98224 -0.944814)
(0.144302 -2.03585 -0.949645)
(0.0375835 -2.20716 -0.568284)
(0.00720029 -2.2793 -0.507151)
(0.00292556 -2.34067 -0.519851)
(0.00124238 -2.40679 -0.526293)
(0.00115923 -2.4751 -0.534849)
(0.00311441 -2.54454 -0.55082)
(0.00641857 -2.61431 -0.57289)
(0.00772395 -2.68279 -0.598178)
(0.00475556 -2.74537 -0.614315)
(-8.22839e-05 -2.7853 -0.615706)
(-0.0089718 -2.76913 -0.60933)
(-0.0281447 -2.66672 -0.669501)
(0.0170308 -2.53301 -0.734587)
(0.0460519 -2.53371 -0.271142)
(0.0138908 -2.4774 -0.170881)
(-0.00176312 -2.42559 -0.338234)
(-0.00374751 -2.39983 -0.443854)
(-0.0028343 -2.38366 -0.515057)
(-0.00132013 -2.36652 -0.55336)
(-0.000747936 -2.34796 -0.550059)
(-0.000790774 -2.31309 -0.538573)
(-0.000838741 -2.26349 -0.512855)
(-0.000755282 -2.19488 -0.491979)
(-3.64301e-05 -2.09869 -0.466465)
(0.00141801 -1.97251 -0.430068)
(0.00406935 -1.80868 -0.384304)
(0.00594017 -1.60855 -0.333091)
(0.00322297 -1.37667 -0.27476)
(-0.00660345 -1.13939 -0.218721)
(-0.00754248 -0.961201 -0.180715)
(0.00182798 -0.848604 -0.148662)
(0.00800209 -0.746969 -0.128883)
(-0.0615836 -0.643852 -0.1283)
(-0.36189 -0.457116 -0.0898642)
(-0.32983 -0.378689 -0.0683307)
(-0.368063 -0.330689 -0.0297205)
(-0.513787 0.00530888 -0.0200614)
(-0.00431005 0.168707 -0.0848358)
(-0.265937 0.0220368 -0.29416)
(-0.0585859 -0.424489 -0.317807)
(-0.100953 -0.380774 -0.540029)
(0.066313 -0.437874 -0.6569)
(0.0243987 -0.889269 -0.5622)
(0.000146531 -1.09941 -0.573109)
(2.60062e-05 -1.29893 -0.612794)
(-0.000797109 -1.47011 -0.662084)
(-0.00094632 -1.58911 -0.707566)
(-0.00134297 -1.62334 -0.745119)
(-0.00167234 -1.59677 -0.762163)
(-0.00366088 -1.39655 -0.99743)
(-0.074839 0.029467 -1.68344)
(-0.714755 -0.00332015 -1.67224)
(-0.439353 -1.13798 1.42373)
(-0.346099 -1.00117 1.66467)
(-0.905442 -0.853094 1.71111)
(-1.97081 -0.675103 1.31504)
(-2.23178 -1.3428 0.258242)
(-0.100961 -1.77478 -1.23834)
(0.126889 -1.7391 -1.40954)
(0.209393 -1.77987 -1.51541)
(0.280603 -1.86623 -1.59507)
(0.303094 -2.04254 -1.49622)
(0.0117992 -2.44934 -0.859)
(-0.0228116 -2.55152 -0.896408)
(-0.0549186 -2.63667 -0.961132)
(-0.0400803 -2.70607 -1.00773)
(0.00901764 -2.74286 -1.10317)
(0.0660665 -2.75086 -1.22945)
(0.128502 -2.75433 -1.29742)
(-0.178469 -2.90868 -0.851107)
(-3.43677 -1.39813 1.24067)
(-3.82809 0.0729048 -1.11403)
(2.52765 -0.900036 -1.82975)
(1.12577 -2.21433 -1.20987)
(0.278645 -2.49029 -0.81487)
(0.0144766 -2.56243 -0.612862)
(-0.589911 -2.55673 -0.576054)
(-2.72754 -1.81948 -0.477666)
(-3.11762 1.48688 -0.564488)
(0.420531 -0.505106 -2.55696)
(1.50956 -1.47998 -1.87067)
(1.33075 -2.34267 -0.465883)
(-0.0722338 -2.41944 0.459388)
(-0.188825 -2.22708 0.667802)
(0.361851 -2.11907 0.354128)
(0.388034 -1.82552 -0.510557)
(0.101096 -1.51095 -0.54003)
(-0.1824 -1.00729 -0.633793)
(-0.31423 -0.353879 -0.639412)
(-0.000840111 -0.658513 -0.324246)
(0.313671 -0.639516 0.200919)
(0.239344 -0.643244 0.302598)
(-0.795943 -0.41564 -0.110661)
(-0.71752 -0.198096 -0.0589267)
(-0.514826 -0.34194 -0.0847707)
(-0.477276 -0.369393 -0.0191962)
(-0.530626 -0.148781 0.000510528)
(-0.141021 0.178759 0.0426975)
(-0.431795 0.151761 0.00795693)
(-0.170991 -0.40433 0.26312)
(-0.138303 -0.30404 -0.495603)
(-0.142671 -0.305502 -0.604159)
(-0.144817 -0.83927 -0.421015)
(-0.0852439 -1.17893 -0.0329192)
(-0.0137493 -1.36972 0.296708)
(0.00586262 -1.53911 0.510743)
(0.0010873 -1.7237 0.579518)
(-0.010125 -1.90871 0.22769)
(-0.0234809 -1.54215 -1.06776)
(-0.0157082 -0.594637 -1.63461)
(-0.00505069 -0.488235 -1.59846)
(0.0116228 -0.468661 -1.61152)
(0.0249238 -0.563147 -1.65907)
(-0.419623 -1.644 0.45023)
(-0.899646 -1.22517 1.16004)
(-1.34294 -0.664255 1.4145)
(-1.28067 -0.7589 1.39148)
(-0.740405 -1.47003 0.99047)
(-0.204449 -1.9284 0.0562188)
(0.371616 -1.86788 -0.862663)
(0.868412 -1.58603 -1.51407)
(1.53756 -1.29335 -1.89596)
(1.88536 -2.14451 -1.11118)
(0.0340154 -2.64658 0.977048)
(-0.00461192 -2.699 1.0688)
(-0.0260445 -2.74626 1.11393)
(-0.0380143 -2.79485 1.13226)
(-0.00479324 -2.84916 1.10903)
(0.0991565 -2.90962 1.00236)
(0.247384 -2.96317 0.772581)
(-3.45746 -1.70387 0.892005)
(-2.73016 0.312656 2.13769)
(0.0863593 -0.697533 2.57935)
(1.1415 -2.51677 0.465756)
(0.664438 -2.55863 0.480958)
(0.219908 -2.59283 0.502999)
(0.006061 -2.63163 0.449901)
(-0.255416 -2.35007 1.2781)
(-1.33115 -1.36792 2.08333)
(-1.56922 -1.0973 2.14101)
(1.16414 -1.72577 1.79117)
(1.62856 -2.30345 0.346339)
(0.519075 -2.45532 0.330773)
(-0.35679 -2.27019 0.546924)
(-1.11637 -1.90738 -0.186033)
(-0.219936 -1.09733 -1.07791)
(0.281384 -1.05097 -0.610167)
(-0.131102 -0.926212 -0.287661)
(-0.0838975 -0.398601 -0.494317)
(0.213689 -0.0579107 -0.526824)
(0.293859 -0.348318 -0.524834)
(0.124539 -0.688796 -0.378903)
(-0.818798 -0.480422 -0.0447184)
(-0.742063 -0.22592 0.0319704)
(-0.51952 -0.370848 0.0659197)
(-0.484276 -0.391597 0.0155379)
(-0.53772 -0.158944 -0.000653918)
(-3.28137e-05 -0.228631 0.0442185)
(-5.66307e-05 -0.324707 0.0700346)
(-0.000772648 -0.812371 0.14955)
(-0.00142175 -1.0186 0.176084)
(-0.00140993 -1.03924 0.172247)
(-0.00250147 -1.13446 0.181737)
(-0.00498749 -1.24893 0.192928)
(-0.00902271 -1.38072 0.20834)
(-0.0137941 -1.50801 0.232873)
(-0.0213479 -1.61567 0.248143)
(-0.0322588 -1.68442 0.210118)
(-0.0418838 -1.71278 -0.0025421)
(-0.026648 -1.7091 -0.264127)
(0.0201271 -1.67593 -0.441059)
(0.15389 -1.51512 -0.744563)
(0.547115 -1.29267 -0.915394)
(0.991441 -1.39998 -0.365709)
(0.20325 -1.42008 0.765046)
(-1.05174 0.741753 1.25408)
(-1.61321 0.57469 0.981198)
(-1.78918 -0.0911073 1.00732)
(-0.650477 -1.42015 0.716975)
(-0.00355037 -1.71356 0.358397)
(0.508546 -1.89565 -0.0248611)
(0.906437 -2.05571 -0.420544)
(0.975834 -2.30858 -0.590633)
(0.0918238 -2.64252 0.380472)
(-0.00100702 -2.72088 0.511044)
(-0.00105002 -2.77819 0.533851)
(0.000330524 -2.81647 0.549034)
(0.00255959 -2.84709 0.557743)
(0.00554389 -2.87387 0.559012)
(0.00564615 -2.89872 0.550463)
(0.00011835 -2.89754 0.523339)
(-0.0221105 -2.81738 0.489035)
(-0.110084 -2.65501 0.601401)
(-0.0128437 -2.36658 1.06768)
(0.019662 -2.46063 0.59695)
(-0.00477112 -2.45265 0.449167)
(-0.00582656 -2.43554 0.454378)
(-0.00368134 -2.42803 0.454086)
(-0.00415911 -2.41398 0.449541)
(-0.00366697 -2.382 0.456269)
(-0.00119556 -2.33265 0.442788)
(0.00095552 -2.27192 0.414932)
(0.000426213 -2.19899 0.390539)
(-0.00348964 -2.10147 0.364944)
(-0.00767122 -1.94202 0.328699)
(-0.00218224 -1.68699 0.280882)
(0.00494162 -1.36532 0.215151)
(-0.00357393 -1.05386 0.156729)
(-0.018196 -0.829878 0.100669)
(0.0033371 -0.722881 0.063561)
(0.0192652 -0.674176 0.085147)
(0.00721982 -0.625798 0.111358)
(-0.0649836 -0.574886 0.111502)
(-0.346872 -0.453103 0.0728302)
(-0.330081 -0.409371 0.0593809)
(-0.36976 -0.354449 0.0432263)
(-0.516808 -0.0938995 -0.0259272)
(-5.71356e-05 -0.251073 0.0524232)
(-0.00183164 -0.254077 0.0641194)
(-0.0256882 -0.486548 0.117592)
(-0.310954 -0.748231 0.0547102)
(-0.673854 -0.37735 -0.614065)
(-0.567491 -0.15174 -0.844935)
(-0.173958 -1.01785 -0.105453)
(-0.0621191 -1.06434 0.126044)
(-0.0557126 -1.07086 0.154035)
(-0.095378 -1.05659 0.121314)
(-0.162037 -1.06614 0.141731)
(-0.0924261 -1.15838 0.223047)
(-0.0214107 -1.32306 0.276266)
(0.0362013 -1.49937 0.316047)
(0.0789275 -1.65131 0.346475)
(0.118997 -1.77024 0.36814)
(0.118475 -1.85111 0.384521)
(0.0324406 -1.9282 0.406831)
(-0.251783 -2.04448 0.163513)
(-1.0599 -1.93947 -0.224772)
(-1.2839 -0.0796788 1.84324)
(-0.706064 0.286839 1.93028)
(-0.645091 -0.786733 1.70563)
(-0.0827344 -1.78156 0.796411)
(0.348063 -2.03997 0.456788)
(0.994482 -2.24509 0.365101)
(1.67673 -2.35971 0.420682)
(0.19182 -2.75902 0.567549)
(0.00580384 -2.84013 0.597751)
(0.00273743 -2.88557 0.604776)
(-0.000119911 -2.92604 0.587981)
(-0.00650547 -2.94748 0.565285)
(-0.0249502 -2.90432 0.527488)
(-0.0716296 -2.77951 0.481586)
(0.050751 -2.62986 0.504279)
(2.72594 -1.06351 1.31519)
(2.08453 -1.08097 1.6552)
(-0.0616964 -0.926473 -2.18122)
(-0.0862414 -1.32716 -1.94453)
(-0.0779878 -2.16863 -1.02475)
(-0.0999837 -2.38902 0.0950074)
(-0.144325 -2.27451 0.472855)
(-0.105076 -2.20239 0.413934)
(0.0131053 -2.10771 0.340144)
(0.0628472 -1.9949 0.341503)
(0.0572739 -1.88306 0.322845)
(0.0263923 -1.76661 0.220972)