/*--------------------------------*- C++ -*----------------------------------*\
| =========                 |                                                 |
| \\      /  F ield         | OpenFOAM: The Open Source CFD Toolbox           |
|  \\    /   O peration     | Version:  2.1.1                                 |
|   \\  /    A nd           | Web:      www.OpenFOAM.org                      |
|    \\/     M anipulation  |                                                 |
\*---------------------------------------------------------------------------*/
FoamFile
{
    version     2.0;
    format      ascii;
    class       volVectorField;
    location    "0.0014";
    object      fluctuation2;
}
// * * * * * * * * * * * * * * * * * * * * * * * * * * * * * * * * * * * * * //

dimensions      [0 1 -1 0 0 0 0];

internalField   nonuniform List<vector> 
36520
(
(0.38951 0.227223 0.288422)
(0.521056 0.336951 0.323731)
(0.720274 0.473177 0.449467)
(0.796628 0.536194 0.5109)
(0.86439 0.580126 0.556634)
(0.911715 0.612808 0.590232)
(0.953733 0.639083 0.617523)
(0.988018 0.660293 0.640444)
(1.01692 0.677404 0.65916)
(1.0401 0.691009 0.674502)
(1.05923 0.701252 0.686006)
(1.0774 0.710062 0.695445)
(1.09583 0.717505 0.703123)
(1.11566 0.724738 0.710938)
(1.13383 0.730473 0.717906)
(1.14826 0.733958 0.723968)
(1.15472 0.733506 0.727285)
(1.15066 0.728135 0.726643)
(1.13411 0.716807 0.720529)
(1.10475 0.698958 0.70778)
(1.06386 0.674344 0.687569)
(1.01504 0.644139 0.660056)
(0.967373 0.61304 0.629757)
(0.926123 0.583924 0.599325)
(0.891575 0.557807 0.570502)
(0.861752 0.534987 0.54459)
(0.833579 0.5146 0.521347)
(0.805869 0.495741 0.499921)
(0.777766 0.477467 0.479151)
(0.74933 0.459224 0.458678)
(0.720443 0.440747 0.438429)
(0.691054 0.422038 0.418494)
(0.661031 0.403089 0.398754)
(0.631277 0.384503 0.379569)
(0.602361 0.366616 0.361091)
(0.575142 0.349915 0.343778)
(0.550326 0.334887 0.328034)
(0.528752 0.322064 0.314341)
(0.511724 0.312272 0.303362)
(0.501481 0.30689 0.29617)
(0.500801 0.307706 0.294036)
(0.512892 0.316979 0.298462)
(0.540512 0.33687 0.31075)
(0.58356 0.367668 0.330875)
(0.638865 0.407322 0.357281)
(0.701845 0.452445 0.387561)
(0.766157 0.49942 0.418772)
(0.821817 0.542168 0.446617)
(0.852566 0.568311 0.463824)
(0.832614 0.559181 0.456254)
(0.778632 0.527605 0.433882)
(0.702282 0.481911 0.402719)
(0.624651 0.438259 0.370572)
(0.590549 0.432534 0.364024)
(0.675246 0.529046 0.433511)
(0.913958 0.757777 0.613269)
(1.15206 1.01249 0.83248)
(1.20238 1.154 0.971907)
(1.00425 1.08253 0.943165)
(0.652086 0.714092 0.757886)
(0.350273 0.198953 0.199447)
(0.411479 0.261505 0.243609)
(0.455428 0.297831 0.283054)
(0.454619 0.302247 0.28969)
(0.461326 0.306864 0.295485)
(0.463472 0.309062 0.298907)
(0.469013 0.31218 0.302795)
(0.469717 0.312267 0.304195)
(0.46875 0.31132 0.304078)
(0.464755 0.308343 0.302043)
(0.463237 0.306506 0.300577)
(0.465033 0.306361 0.300449)
(0.4715 0.308488 0.302594)
(0.477135 0.309931 0.304265)
(0.477744 0.308371 0.303302)
(0.468047 0.300805 0.296949)
(0.445068 0.285823 0.283628)
(0.408473 0.263343 0.26304)
(0.361718 0.235519 0.236981)
(0.313204 0.207301 0.210008)
(0.276949 0.186737 0.189983)
(0.269686 0.18276 0.18603)
(0.257625 0.172829 0.175639)
(0.239882 0.157749 0.159872)
(0.228075 0.146944 0.148376)
(0.220364 0.139825 0.140708)
(0.2133 0.134053 0.134477)
(0.206812 0.129279 0.129217)
(0.20121 0.125423 0.124809)
(0.196423 0.122242 0.121085)
(0.191389 0.118965 0.117371)
(0.185991 0.115498 0.113585)
(0.180253 0.111881 0.109689)
(0.174143 0.108129 0.105601)
(0.168802 0.104939 0.101978)
(0.164695 0.102599 0.0990954)
(0.162326 0.101444 0.0972341)
(0.16204 0.10174 0.096536)
(0.164712 0.104091 0.0974349)
(0.172202 0.109737 0.100882)
(0.186684 0.120182 0.108013)
(0.20989 0.136748 0.119745)
(0.242626 0.160146 0.136545)
(0.283734 0.18977 0.1579)
(0.331193 0.224267 0.182965)
(0.383647 0.262615 0.211305)
(0.439645 0.30411 0.242797)
(0.497373 0.34726 0.277458)
(0.551829 0.387209 0.313382)
(0.595316 0.416062 0.345373)
(0.638542 0.439296 0.379642)
(0.674445 0.451413 0.410637)
(0.682735 0.442202 0.424612)
(0.638332 0.402478 0.40555)
(0.555373 0.351395 0.363605)
(0.533959 0.36477 0.367097)
(0.619352 0.446858 0.44341)
(0.655706 0.432183 0.487273)
(0.547658 0.390297 0.473855)
(0.658735 0.444529 0.502799)
(0.255992 0.137917 0.136936)
(0.23676 0.150499 0.140529)
(0.243408 0.159374 0.152203)
(0.228032 0.151633 0.145975)
(0.221864 0.14773 0.142877)
(0.214948 0.143359 0.13932)
(0.212664 0.141766 0.138149)
(0.206994 0.138154 0.135109)
(0.201604 0.134911 0.13213)
(0.194608 0.130782 0.128185)
(0.191213 0.128977 0.12623)
(0.192092 0.129823 0.126904)
(0.197745 0.133502 0.13063)
(0.20491 0.138271 0.135688)
(0.211708 0.143407 0.141234)
(0.217238 0.148853 0.147084)
(0.224688 0.157077 0.155492)
(0.240501 0.172067 0.170264)
(0.270476 0.196743 0.194414)
(0.315599 0.230767 0.227731)
(0.370898 0.269718 0.266055)
(0.425635 0.30492 0.300489)
(0.382656 0.272908 0.267796)
(0.263165 0.188701 0.184931)
(0.154893 0.110931 0.110463)
(0.102343 0.071779 0.0731716)
(0.0817293 0.0560473 0.0576382)
(0.0730142 0.0493406 0.0506848)
(0.0688145 0.0461288 0.0471142)
(0.0669575 0.044733 0.0453656)
(0.0662905 0.044299 0.0447043)
(0.0663704 0.0444652 0.0447833)
(0.0671217 0.0451317 0.0454336)
(0.0686186 0.0463026 0.0465804)
(0.0708582 0.0479513 0.0481345)
(0.0739507 0.0501478 0.0501316)
(0.0781034 0.0530689 0.0527056)
(0.0837106 0.0570045 0.0560949)
(0.0913827 0.0624113 0.060665)
(0.102131 0.0700274 0.0669754)
(0.117183 0.0807786 0.0757303)
(0.137889 0.0957115 0.0877453)
(0.165535 0.115796 0.103795)
(0.200997 0.141627 0.124562)
(0.245268 0.173769 0.151077)
(0.300407 0.213482 0.184752)
(0.369918 0.263442 0.227974)
(0.458457 0.32693 0.283675)
(0.571693 0.406568 0.355258)
(0.71949 0.507225 0.448772)
(0.877067 0.606484 0.546753)
(1.02795 0.689265 0.639802)
(1.13063 0.72519 0.705029)
(1.13888 0.69538 0.711785)
(1.01468 0.603493 0.642881)
(0.818792 0.490434 0.539329)
(0.618648 0.379281 0.422523)
(0.749525 0.453219 0.49093)
(0.561862 0.395311 0.453701)
(0.647405 0.416964 0.429471)
(0.188339 0.0955566 0.0967882)
(0.137285 0.0870017 0.0817509)
(0.128163 0.0841728 0.0807329)
(0.113254 0.076301 0.0736656)
(0.107433 0.0731678 0.0709629)
(0.10322 0.07128 0.0694558)
(0.103664 0.0726734 0.0711394)
(0.105016 0.0752618 0.0739332)
(0.110741 0.0813397 0.0800341)
(0.121457 0.0913363 0.0898258)
(0.140314 0.106885 0.104916)
(0.167748 0.127802 0.12547)
(0.20523 0.154851 0.152488)
(0.25502 0.189749 0.187836)
(0.321974 0.236098 0.234916)
(0.410914 0.297372 0.296841)
(0.526521 0.376937 0.376374)
(0.668528 0.474776 0.472816)
(0.828918 0.585525 0.580258)
(0.990245 0.69746 0.686762)
(1.13254 0.794768 0.777901)
(1.23136 0.856158 0.834177)
(1.10295 0.768325 0.742577)
(0.797366 0.563228 0.541484)
(0.490784 0.350774 0.34223)
(0.311618 0.221879 0.224184)
(0.227467 0.161056 0.16731)
(0.186073 0.131256 0.13849)
(0.159817 0.112473 0.119547)
(0.139476 0.0979991 0.104362)
(0.124634 0.0874654 0.0930129)
(0.115787 0.0811258 0.0861531)
(0.111728 0.0781131 0.0830251)
(0.110267 0.0768942 0.0819573)
(0.11031 0.0766897 0.0820376)
(0.110376 0.0764886 0.0821986)
(0.110912 0.0766556 0.0827252)
(0.112573 0.0776714 0.0840167)
(0.115694 0.0797791 0.0862738)
(0.120117 0.0829348 0.0894024)
(0.126157 0.0875005 0.093605)
(0.136074 0.0952463 0.100419)
(0.15181 0.10769 0.1111)
(0.175364 0.12627 0.127101)
(0.20801 0.151967 0.149723)
(0.251501 0.185819 0.179989)
(0.310187 0.230621 0.220669)
(0.391145 0.290228 0.275592)
(0.504138 0.37053 0.350205)
(0.660822 0.478424 0.451863)
(0.871517 0.620767 0.586488)
(1.10022 0.766885 0.7268)
(1.28839 0.855976 0.846321)
(1.38462 0.86816 0.90615)
(1.36371 0.81423 0.885256)
(1.23133 0.714973 0.803893)
(0.880723 0.515163 0.586809)
(0.83837 0.488277 0.504384)
(0.637221 0.418879 0.402343)
(0.646838 0.408383 0.393918)
(0.147491 0.0731748 0.0769361)
(0.0832956 0.0543975 0.0524486)
(0.075569 0.053281 0.0519159)
(0.0737522 0.0553816 0.0544508)
(0.0835232 0.0643302 0.0637353)
(0.100953 0.0786168 0.0783716)
(0.126842 0.0989647 0.0990117)
(0.162337 0.126543 0.12669)
(0.20991 0.163404 0.163208)
(0.271278 0.210893 0.209535)
(0.346907 0.268765 0.26515)
(0.438721 0.336587 0.331112)
(0.552456 0.416541 0.411434)
(0.698851 0.515579 0.514176)
(0.891446 0.643365 0.648953)
(1.14029 0.806984 0.82136)
(1.45217 1.01082 1.03346)
(1.82172 1.25102 1.27783)
(2.21944 1.5073 1.52998)
(2.58531 1.74246 1.75005)
(2.83263 1.90243 1.88465)
(2.89754 1.94072 1.89634)
(2.60378 1.75728 1.68845)
(2.01512 1.38969 1.31624)
(1.38271 0.972928 0.92787)
(0.974685 0.683968 0.675118)
(0.771267 0.537213 0.547252)
(0.673637 0.467452 0.485879)
(0.615153 0.426162 0.448318)
(0.567022 0.392413 0.415264)
(0.528935 0.365555 0.386648)
(0.50638 0.349003 0.367)
(0.498101 0.341938 0.356676)
(0.49409 0.337777 0.350008)
(0.486449 0.331326 0.342408)
(0.475963 0.323122 0.334778)
(0.466437 0.315691 0.329276)
(0.459166 0.309937 0.326009)
(0.461084 0.310523 0.328942)
(0.473275 0.318261 0.33787)
(0.452426 0.30369 0.324085)
(0.401897 0.269194 0.2897)
(0.310699 0.207795 0.227416)
(0.211133 0.140655 0.160933)
(0.212984 0.144111 0.164487)
(0.234424 0.162546 0.182528)
(0.270498 0.191746 0.211018)
(0.324137 0.233509 0.25136)
(0.400489 0.290923 0.306343)
(0.506323 0.366879 0.37958)
(0.648221 0.463483 0.472988)
(0.810952 0.573047 0.579037)
(0.961522 0.676471 0.684518)
(1.00599 0.679766 0.706858)
(1.0473 0.662498 0.712494)
(1.08378 0.653092 0.720315)
(1.00557 0.598633 0.671867)
(0.891476 0.529443 0.569404)
(0.709025 0.454335 0.439778)
(0.641693 0.406991 0.387469)
(0.133629 0.0690693 0.0761328)
(0.0810048 0.0604464 0.0604988)
(0.101242 0.0800242 0.0794294)
(0.133607 0.107012 0.10643)
(0.177154 0.140542 0.140703)
(0.236982 0.185449 0.186902)
(0.315589 0.243981 0.246986)
(0.419225 0.320972 0.325131)
(0.551846 0.420236 0.423903)
(0.7108 0.541103 0.539995)
(0.88517 0.675355 0.663751)
(1.06933 0.81449 0.791788)
(1.27034 0.957222 0.932206)
(1.51745 1.12079 1.10769)
(1.83892 1.32418 1.33845)
(2.24547 1.57862 1.63009)
(2.73968 1.88802 1.97955)
(3.31006 2.24138 2.36727)
(3.93225 2.6174 2.76303)
(4.53492 2.97204 3.11069)
(4.95913 3.21418 3.31222)
(5.02099 3.24082 3.27317)
(4.71641 3.06903 3.01413)
(4.01406 2.68219 2.55069)
(3.1041 2.13995 2.00571)
(2.42733 1.68004 1.6116)
(2.04727 1.40511 1.39096)
(1.84914 1.26464 1.28129)
(1.73405 1.18584 1.22236)
(1.64518 1.12652 1.17655)
(1.57542 1.08018 1.13653)
(1.54011 1.05628 1.11083)
(1.54941 1.061 1.10536)
(1.59088 1.08612 1.11445)
(1.63855 1.11462 1.12551)
(1.66432 1.12862 1.12585)
(1.67636 1.13373 1.12447)
(1.66746 1.12463 1.1146)
(1.66259 1.11748 1.11045)
(1.66402 1.11496 1.11277)
(1.60333 1.07197 1.07679)
(1.49024 0.99412 1.00852)
(1.28458 0.858983 0.878978)
(0.947902 0.638565 0.660776)
(0.723131 0.488814 0.516358)
(0.615684 0.414755 0.4526)
(0.54686 0.366357 0.415902)
(0.466365 0.310995 0.368752)
(0.429428 0.288154 0.348621)
(0.464838 0.318157 0.37681)
(0.536953 0.371121 0.430801)
(0.626534 0.435883 0.492865)
(0.69034 0.48385 0.529962)
(0.73111 0.511426 0.548197)
(0.750903 0.512844 0.565284)
(0.763001 0.509848 0.581089)
(0.784779 0.500856 0.566525)
(0.758536 0.472245 0.521311)
(0.66969 0.430378 0.436361)
(0.618045 0.398899 0.382327)
(0.175861 0.106823 0.116847)
(0.166777 0.128897 0.132725)
(0.235385 0.186043 0.187877)
(0.323337 0.255187 0.258341)
(0.429143 0.333752 0.338575)
(0.571327 0.435629 0.443893)
(0.753054 0.564637 0.575393)
(0.984625 0.728198 0.740296)
(1.26661 0.93033 0.938377)
(1.57114 1.15529 1.14753)
(1.8515 1.37153 1.33477)
(2.09532 1.5665 1.49109)
(2.31531 1.73912 1.6333)
(2.5319 1.89456 1.7851)
(2.83851 2.08499 2.01258)
(3.26482 2.33417 2.33195)
(3.82366 2.66821 2.74545)
(4.37203 2.99402 3.13452)
(4.89324 3.29494 3.47899)
(5.38004 3.562 3.76455)
(5.78399 3.76182 3.95201)
(5.97014 3.8269 3.97575)
(5.88732 3.76806 3.83986)
(5.54616 3.61658 3.57392)
(4.97662 3.34819 3.20541)
(4.34513 2.96797 2.81914)
(3.86261 2.62679 2.52797)
(3.53409 2.39452 2.338)
(3.30066 2.23844 2.2172)
(3.10502 2.11272 2.12471)
(2.92572 1.99883 2.03952)
(2.78722 1.91157 1.97306)
(2.709 1.86397 1.93302)
(2.69477 1.85846 1.91745)
(2.74138 1.89258 1.92617)
(2.82364 1.95052 1.94915)
(2.93736 2.02658 1.99136)
(3.03411 2.08761 2.02546)
(3.07438 2.11044 2.02802)
(3.09097 2.11224 2.01843)
(3.06261 2.08222 1.98489)
(2.96875 2.00456 1.91806)
(2.83324 1.89853 1.83532)
(2.49809 1.68395 1.63833)
(2.12547 1.45553 1.41946)
(1.86118 1.28834 1.267)
(1.6657 1.15517 1.15919)
(1.45937 1.01193 1.04544)
(1.20533 0.839846 0.892533)
(0.948838 0.662902 0.728043)
(0.772255 0.533761 0.610923)
(0.678107 0.453565 0.539098)
(0.665463 0.440958 0.522519)
(0.687115 0.469712 0.545544)
(0.71253 0.528421 0.590038)
(0.677325 0.549288 0.594961)
(0.632933 0.507659 0.550683)
(0.646447 0.464629 0.493146)
(0.62572 0.433642 0.42989)
(0.588893 0.393171 0.376194)
(0.290297 0.20958 0.223767)
(0.33946 0.266106 0.27203)
(0.488753 0.387709 0.380735)
(0.677153 0.533471 0.524091)
(0.87824 0.687487 0.66814)
(1.13665 0.874153 0.851754)
(1.43364 1.0815 1.05783)
(1.79208 1.32168 1.30234)
(2.16556 1.56796 1.56198)
(2.5247 1.81569 1.81871)
(2.77744 2.00917 2.01075)
(2.99206 2.18493 2.16224)
(3.20298 2.3573 2.29227)
(3.40422 2.52266 2.41719)
(3.60957 2.68012 2.55788)
(3.87051 2.84435 2.74209)
(4.17051 3.00393 2.94554)
(4.44002 3.13218 3.11538)
(4.68321 3.24476 3.26254)
(4.93016 3.35653 3.41622)
(5.19611 3.46987 3.57755)
(5.45188 3.57277 3.71385)
(5.58346 3.62812 3.76834)
(5.51182 3.6199 3.71869)
(5.32007 3.56879 3.59425)
(5.16192 3.49831 3.45507)
(5.03456 3.39778 3.31512)
(4.87021 3.26709 3.16338)
(4.65214 3.11532 3.00189)
(4.38034 2.94186 2.83846)
(4.08916 2.76565 2.6944)
(3.82239 2.60875 2.57864)
(3.62118 2.49246 2.49354)
(3.49086 2.41982 2.43473)
(3.428 2.3888 2.39905)
(3.42139 2.39256 2.38344)
(3.46075 2.42297 2.38927)
(3.5329 2.47106 2.41159)
(3.60206 2.51608 2.43132)
(3.65491 2.54678 2.43862)
(3.67854 2.55351 2.42443)
(3.64667 2.52332 2.3728)
(3.57778 2.46723 2.29972)
(3.43477 2.36833 2.18704)
(3.15112 2.18777 1.9953)
(2.80321 1.97032 1.7714)
(2.46402 1.75594 1.5578)
(2.1475 1.55101 1.37089)
(1.85741 1.36495 1.21548)
(1.60086 1.19962 1.08947)
(1.37762 1.04574 0.977529)
(1.19135 0.897297 0.87177)
(1.09114 0.797644 0.796517)
(1.04668 0.743777 0.747578)
(1.03511 0.72621 0.717184)
(0.901258 0.66542 0.637093)
(0.702698 0.600273 0.563799)
(0.645683 0.530037 0.501346)
(0.622283 0.471678 0.437024)
(0.564839 0.388305 0.367135)
(0.415066 0.310289 0.276069)
(0.67992 0.446325 0.452129)
(1.06548 0.738248 0.734815)
(1.42773 1.00523 0.986505)
(1.68732 1.19452 1.17367)
(2.02201 1.4371 1.39626)
(2.2188 1.5784 1.52478)
(2.39452 1.69968 1.63363)
(2.55089 1.80045 1.7367)
(2.67123 1.87822 1.83909)
(2.73964 1.93784 1.94048)
(2.76323 1.99195 2.03461)
(2.81651 2.07371 2.127)
(2.91074 2.16759 2.20051)
(3.03401 2.26312 2.25958)
(3.18119 2.36083 2.31039)
(3.34089 2.45478 2.35323)
(3.52684 2.55447 2.41891)
(3.7155 2.64376 2.50697)
(3.89489 2.71377 2.61161)
(4.0381 2.76063 2.72841)
(4.11246 2.78908 2.8423)
(4.16315 2.83264 2.95216)
(4.22079 2.89235 3.03677)
(4.25218 2.93015 3.05847)
(4.2838 2.94977 3.03098)
(4.33467 2.96882 2.99195)
(4.39264 2.98864 2.95636)
(4.45502 3.00954 2.92363)
(4.48721 3.01459 2.88194)
(4.40881 2.96085 2.80281)
(4.2065 2.84233 2.69118)
(3.97218 2.71351 2.59201)
(3.77444 2.61013 2.5179)
(3.62645 2.53312 2.4616)
(3.52609 2.47743 2.41802)
(3.46768 2.44028 2.38386)
(3.4389 2.41931 2.36274)
(3.41996 2.4048 2.34349)
(3.39935 2.3886 2.31734)
(3.37929 2.3702 2.28387)
(3.35809 2.3497 2.24208)
(3.31552 2.31612 2.18376)
(3.23801 2.2641 2.10481)
(3.10801 2.1845 1.98922)
(2.91662 2.06977 1.83445)
(2.67887 1.92931 1.65712)
(2.4084 1.77223 1.47427)
(2.11651 1.60623 1.2979)
(1.8268 1.44556 1.14186)
(1.56694 1.30136 1.02016)
(1.3605 1.17894 0.936802)
(1.26177 1.09775 0.894024)
(1.26083 1.04388 0.875367)
(1.27543 0.945864 0.83188)
(1.14299 0.781681 0.708532)
(0.804628 0.588043 0.528491)
(0.617229 0.490813 0.442053)
(0.573483 0.440133 0.396271)
(0.522271 0.356594 0.338322)
(0.354388 0.270569 0.2461)
(0.572868 0.355827 0.381824)
(0.941961 0.653911 0.666148)
(1.19027 0.849946 0.840262)
(1.36309 0.98439 0.976368)
(1.50403 1.09574 1.06926)
(1.60525 1.17736 1.13275)
(1.6971 1.24411 1.18223)
(1.80285 1.30865 1.23272)
(1.94123 1.38847 1.30509)
(2.05935 1.46736 1.389)
(2.09724 1.51912 1.46097)
(2.0821 1.55305 1.5277)
(2.08412 1.59276 1.58806)
(2.13847 1.64176 1.63016)
(2.24164 1.69611 1.65695)
(2.39945 1.77203 1.70344)
(2.58729 1.86769 1.78625)
(2.76173 1.95466 1.88557)
(2.92436 2.0289 1.9943)
(3.07068 2.0918 2.11162)
(3.16614 2.13784 2.22624)
(3.20669 2.17048 2.32456)
(3.22648 2.20182 2.39444)
(3.25809 2.23783 2.42879)
(3.32445 2.28681 2.44064)
(3.42564 2.35248 2.45376)
(3.54447 2.42856 2.4828)
(3.66447 2.50487 2.52093)
(3.77672 2.57449 2.55424)
(3.87597 2.63341 2.57294)
(3.94564 2.67376 2.57279)
(3.90875 2.65851 2.53512)
(3.73317 2.57322 2.45232)
(3.49225 2.45285 2.34879)
(3.27005 2.33599 2.25285)
(3.10443 2.24172 2.17583)
(3.00312 2.17668 2.12334)
(2.94988 2.1348 2.0903)
(2.92915 2.10756 2.06879)
(2.92716 2.08765 2.05191)
(2.92951 2.06923 2.03325)
(2.91709 2.04645 2.00466)
(2.87122 2.00794 1.95662)
(2.78984 1.9527 1.88449)
(2.6674 1.88033 1.78234)
(2.50216 1.78762 1.65217)
(2.29672 1.67506 1.49874)
(2.04476 1.53826 1.32252)
(1.74992 1.37743 1.13344)
(1.43918 1.20524 0.951752)
(1.1568 1.04357 0.796986)
(0.963168 0.916889 0.688215)
(0.8585 0.816968 0.623359)
(0.824022 0.709599 0.579246)
(0.782643 0.595026 0.517592)
(0.625842 0.480092 0.419739)
(0.516324 0.407899 0.363427)
(0.500544 0.387404 0.345548)
(0.495136 0.336432 0.319187)
(0.294537 0.216541 0.217329)
(0.472349 0.281674 0.333432)
(1.05572 0.742187 0.754048)
(1.4241 1.00836 0.977521)
(1.55919 1.12901 1.06828)
(1.66156 1.22175 1.13455)
(1.73052 1.28567 1.1838)
(1.82772 1.35249 1.24554)
(1.99261 1.44559 1.33611)
(2.20441 1.55995 1.44563)
(2.35302 1.64456 1.53482)
(2.33655 1.6588 1.57268)
(2.20992 1.64027 1.5959)
(2.1223 1.64144 1.63863)
(2.15079 1.6809 1.69976)
(2.27432 1.74744 1.75902)
(2.43795 1.82892 1.81069)
(2.60075 1.9159 1.8664)
(2.75862 1.99531 1.94603)
(2.92937 2.06985 2.0526)
(3.10186 2.13244 2.16406)
(3.25501 2.18256 2.26731)
(3.36195 2.22667 2.35792)
(3.42544 2.26973 2.43987)
(3.48214 2.32677 2.52357)
(3.54376 2.39003 2.57116)
(3.62921 2.45819 2.58716)
(3.73137 2.52896 2.60554)
(3.84086 2.60159 2.64474)
(3.95736 2.67528 2.69892)
(4.08348 2.74841 2.75394)
(4.20798 2.81436 2.79173)
(4.27785 2.85546 2.79471)
(4.20051 2.83974 2.74985)
(3.97507 2.75617 2.65056)
(3.72606 2.64634 2.53793)
(3.53202 2.54959 2.45199)
(3.41893 2.48373 2.40179)
(3.38403 2.45037 2.38464)
(3.40285 2.44236 2.38913)
(3.43785 2.44052 2.40017)
(3.45824 2.43199 2.40093)
(3.4538 2.41312 2.38308)
(3.41423 2.3768 2.34175)
(3.34006 2.32327 2.27538)
(3.22572 2.25289 2.18201)
(3.05324 2.15518 2.05081)
(2.81446 2.02642 1.87695)
(2.50692 1.85914 1.66083)
(2.13703 1.65515 1.41366)
(1.71717 1.41791 1.14769)
(1.31487 1.1748 0.897804)
(1.04585 0.99199 0.731339)
(0.919866 0.871518 0.652635)
(0.916687 0.763454 0.624135)
(0.900487 0.661479 0.586177)
(0.698776 0.547743 0.478144)
(0.570974 0.473855 0.410985)
(0.550137 0.447362 0.384635)
(0.514755 0.364813 0.336941)
(0.325651 0.207191 0.276111)
(0.479696 0.337108 0.391896)
(0.71482 0.544084 0.516655)
(0.932949 0.717258 0.645822)
(1.10882 0.875867 0.762611)
(1.40642 1.10262 0.952533)
(1.66221 1.28327 1.11168)
(1.96627 1.47494 1.29371)
(2.2591 1.64702 1.46853)
(2.46462 1.76932 1.60924)
(2.51112 1.81219 1.67643)
(2.41946 1.79299 1.67564)
(2.2907 1.74891 1.65715)
(2.22104 1.72539 1.68489)
(2.24369 1.75133 1.76466)
(2.36463 1.831 1.87089)
(2.54855 1.9361 1.96986)
(2.71067 2.01746 2.03126)
(2.82437 2.06789 2.06255)
(2.93041 2.11048 2.09753)
(3.08795 2.16859 2.15845)
(3.29032 2.23943 2.2415)
(3.54678 2.32992 2.35823)
(3.80896 2.43929 2.4934)
(3.91799 2.51798 2.58123)
(3.94045 2.5887 2.65406)
(4.05012 2.69861 2.75327)
(4.18997 2.80229 2.83993)
(4.31324 2.88401 2.91516)
(4.42422 2.9514 2.98791)
(4.52504 3.00585 3.0523)
(4.58895 3.03628 3.08999)
(4.56779 3.02976 3.07215)
(4.41882 2.978 2.96969)
(4.17243 2.88714 2.80798)
(3.9132 2.77188 2.64889)
(3.73621 2.67862 2.54623)
(3.68184 2.64097 2.51363)
(3.71054 2.6415 2.52491)
(3.77475 2.65866 2.55726)
(3.84132 2.677 2.59738)
(3.87706 2.68359 2.62292)
(3.87205 2.67298 2.62003)
(3.81461 2.63136 2.57682)
(3.71294 2.56119 2.49496)
(3.56437 2.46658 2.37544)
(3.35093 2.34025 2.21183)
(3.04496 2.16944 1.98818)
(2.63372 1.93757 1.69653)
(2.13627 1.64882 1.35876)
(1.58353 1.30888 1.00917)
(1.1058 0.987394 0.719054)
(0.860334 0.800384 0.570571)
(0.840733 0.747803 0.558578)
(0.982935 0.759997 0.638984)
(0.996603 0.719703 0.654439)
(0.760276 0.632914 0.553136)
(0.65342 0.578529 0.490378)
(0.644859 0.550405 0.452437)
(0.567144 0.421436 0.37687)
(0.335745 0.220497 0.284556)
(0.493691 0.351414 0.395032)
(0.662676 0.51516 0.472754)
(0.822315 0.646959 0.573211)
(0.95639 0.77207 0.66742)
(1.22059 0.979991 0.839206)
(1.48913 1.18165 1.01426)
(1.8299 1.41138 1.2316)
(2.18998 1.64137 1.47006)
(2.49719 1.83407 1.6962)
(2.63396 1.92385 1.81963)
(2.59768 1.90815 1.8133)
(2.45899 1.8255 1.72895)
(2.31208 1.73794 1.66554)
(2.21327 1.68899 1.67742)
(2.19182 1.69213 1.75951)
(2.23438 1.72706 1.8607)
(2.29688 1.75977 1.92842)
(2.35624 1.77304 1.93422)
(2.43476 1.78383 1.88947)
(2.58249 1.83809 1.8779)
(2.79162 1.93442 1.93133)
(3.08536 2.077 2.05209)
(3.48762 2.2805 2.24629)
(3.92435 2.52792 2.47942)
(4.17228 2.71793 2.66965)
(4.26542 2.82253 2.81205)
(4.3533 2.90127 2.91354)
(4.433 2.9604 2.98352)
(4.51272 3.01058 3.04683)
(4.58936 3.05086 3.10174)
(4.64268 3.07181 3.13334)
(4.63516 3.06378 3.11034)
(4.49883 3.00934 2.99592)
(4.23533 2.90856 2.82449)
(3.95489 2.78572 2.66521)
(3.76556 2.69045 2.56508)
(3.69929 2.65088 2.53179)
(3.72044 2.65003 2.54141)
(3.79131 2.67275 2.57647)
(3.86796 2.70122 2.61608)
(3.89708 2.70504 2.62982)
(3.88046 2.68589 2.61659)
(3.82908 2.64838 2.57756)
(3.74017 2.58954 2.50483)
(3.60887 2.50585 2.38698)
(3.35559 2.35937 2.18216)
(2.87294 2.08262 1.84573)
(2.23775 1.69896 1.42383)
(1.65108 1.32649 1.04156)
(1.17103 1.0107 0.748745)
(0.856899 0.801453 0.573468)
(0.786267 0.777198 0.549092)
(0.875205 0.836824 0.621139)
(1.02945 0.829036 0.697661)
(1.05279 0.768187 0.709201)
(0.790967 0.660749 0.590943)
(0.669998 0.599639 0.516911)
(0.665188 0.571877 0.47231)
(0.57834 0.431736 0.386817)
(0.30546 0.232689 0.237829)
(0.526908 0.330487 0.376127)
(1.17441 0.826773 0.804786)
(1.4366 1.03635 0.955377)
(1.40824 1.05691 0.945938)
(1.50894 1.15268 1.02625)
(1.63851 1.26739 1.13489)
(1.80894 1.3995 1.27657)
(1.99002 1.52836 1.43303)
(2.16229 1.63613 1.57696)
(2.28537 1.69824 1.66074)
(2.32521 1.71306 1.6657)
(2.33983 1.73176 1.64204)
(2.32435 1.74393 1.59575)
(2.2675 1.73171 1.55287)
(2.19118 1.68984 1.54185)
(2.13059 1.64003 1.56293)
(2.13085 1.62203 1.61598)
(2.16818 1.62268 1.68227)
(2.18826 1.60584 1.71209)
(2.22221 1.59923 1.7063)
(2.33933 1.64265 1.71275)
(2.55794 1.74996 1.76646)
(2.88947 1.92588 1.89338)
(3.34206 2.18322 2.10689)
(3.78696 2.47407 2.35483)
(4.02799 2.67304 2.55456)
(4.1279 2.77093 2.70114)
(4.19575 2.82999 2.80294)
(4.25232 2.86964 2.86548)
(4.31247 2.90127 2.89963)
(4.38023 2.92854 2.90654)
(4.44529 2.95294 2.88604)
(4.41941 2.94826 2.83352)
(4.19981 2.86388 2.72606)
(3.894 2.7303 2.59828)
(3.65694 2.61669 2.50272)
(3.50956 2.53796 2.43783)
(3.44747 2.49657 2.40547)
(3.44419 2.4806 2.39485)
(3.45722 2.47332 2.38385)
(3.45903 2.45913 2.35679)
(3.43112 2.42981 2.31163)
(3.36099 2.37931 2.24678)
(3.26559 2.31486 2.16429)
(3.15056 2.23984 2.05423)
(2.98857 2.14132 1.90062)
(2.71053 1.97964 1.69435)
(2.27335 1.721 1.41995)
(1.74997 1.39207 1.10291)
(1.2699 1.07361 0.820974)
(0.930076 0.840606 0.63701)
(0.771469 0.727546 0.562664)
(0.763183 0.682145 0.566515)
(0.817968 0.637334 0.588603)
(0.802523 0.58766 0.584066)
(0.679783 0.5339 0.523011)
(0.609155 0.492753 0.466862)
(0.584082 0.461882 0.425418)
(0.535097 0.376951 0.361694)
(0.315455 0.25731 0.239629)
(0.405716 0.260378 0.293436)
(0.713826 0.498818 0.541279)
(1.07379 0.783911 0.797163)
(1.16076 0.886046 0.885235)
(1.23886 0.971215 0.965704)
(1.29308 1.03272 1.03132)
(1.33719 1.07282 1.08172)
(1.35916 1.08234 1.1055)
(1.35346 1.06582 1.09529)
(1.39526 1.08256 1.09971)
(1.54783 1.18216 1.17116)
(1.79713 1.35349 1.31218)
(2.0506 1.53557 1.46913)
(2.24712 1.69229 1.60492)
(2.37803 1.81502 1.71225)
(2.47336 1.89702 1.80225)
(2.60254 1.97363 1.9103)
(2.74545 2.05995 2.02)
(2.81608 2.10772 2.08521)
(2.79346 2.08201 2.07737)
(2.75388 2.02015 2.01894)
(2.73743 1.95207 1.92873)
(2.85695 1.96448 1.89451)
(3.16674 2.10973 1.98491)
(3.62712 2.37017 2.19817)
(4.03002 2.64249 2.45061)
(4.24385 2.8262 2.67747)
(4.33076 2.90637 2.81591)
(4.39503 2.95106 2.88684)
(4.46542 2.98743 2.91539)
(4.5105 3.0049 2.90542)
(4.42787 2.95614 2.83096)
(4.17941 2.82537 2.69612)
(3.89436 2.68246 2.56524)
(3.68771 2.58056 2.46946)
(3.56994 2.51841 2.40243)
(3.5023 2.47687 2.35243)
(3.46252 2.44765 2.31532)
(3.44015 2.42731 2.28426)
(3.3968 2.39223 2.23679)
(3.31382 2.33307 2.16591)
(3.18449 2.24903 2.07097)
(3.00649 2.14053 1.95091)
(2.82162 2.03139 1.82284)
(2.62334 1.91913 1.68396)
(2.39147 1.78567 1.52106)
(2.12192 1.62421 1.33843)
(1.80988 1.42862 1.14119)
(1.47887 1.20825 0.940934)
(1.17204 0.989947 0.761896)
(0.927503 0.811566 0.633681)
(0.786218 0.699167 0.574438)
(0.746884 0.62856 0.55768)
(0.739093 0.570403 0.545621)
(0.691474 0.526509 0.512688)
(0.603516 0.478202 0.459954)
(0.569276 0.436717 0.420902)
(0.554962 0.406308 0.399566)
(0.524793 0.353906 0.352689)
(0.353354 0.284183 0.2418)
(0.493288 0.34587 0.348699)
(0.792203 0.559891 0.583223)
(1.1115 0.801073 0.83407)
(1.34264 0.99031 1.05037)
(1.53707 1.14261 1.21185)
(1.72377 1.28691 1.3596)
(1.9315 1.43465 1.50008)
(2.17316 1.57818 1.63038)
(2.44574 1.7193 1.74839)
(2.80145 1.9154 1.91523)
(3.26841 2.19965 2.16072)
(3.72703 2.51138 2.43025)
(3.8994 2.69251 2.61418)
(3.79376 2.6974 2.68609)
(3.70386 2.68118 2.73653)
(3.72101 2.73122 2.80229)
(3.86493 2.81694 2.87613)
(4.04935 2.90393 2.92266)
(4.16639 2.95942 2.93092)
(4.20906 2.98894 2.92213)
(4.19205 2.97429 2.87567)
(4.13475 2.90494 2.77092)
(4.18182 2.87757 2.69018)
(4.42825 2.96219 2.71951)
(4.7427 3.10807 2.85146)
(4.83845 3.17318 2.96798)
(4.75626 3.15382 3.01621)
(4.69713 3.13154 3.02048)
(4.65932 3.10532 2.98654)
(4.5671 3.04147 2.91114)
(4.38653 2.92846 2.80348)
(4.13963 2.78548 2.68834)
(3.90418 2.65697 2.58902)
(3.74877 2.57776 2.51043)
(3.65992 2.53339 2.43844)
(3.57802 2.48262 2.35908)
(3.48018 2.41751 2.28081)
(3.3856 2.35401 2.21372)
(3.2836 2.28572 2.14146)
(3.15017 2.19824 2.04841)
(2.98437 2.09224 1.93617)
(2.80712 1.98198 1.814)
(2.62068 1.87037 1.67813)
(2.41114 1.75175 1.53174)
(2.18548 1.62882 1.38774)
(1.9777 1.51228 1.25665)
(1.7754 1.38553 1.12616)
(1.56491 1.24245 0.994289)
(1.34025 1.08346 0.862619)
(1.12731 0.92633 0.74509)
(0.955535 0.798077 0.665466)
(0.851064 0.703821 0.62818)
(0.822059 0.631456 0.609454)
(0.811686 0.578973 0.586762)
(0.731258 0.526653 0.534455)
(0.616846 0.472598 0.470151)
(0.574484 0.433136 0.426388)
(0.564875 0.412999 0.40458)
(0.532259 0.359217 0.354154)
(0.30141 0.218883 0.2305)
(0.361392 0.290235 0.281367)
(0.533707 0.432499 0.397175)
(0.762727 0.609529 0.565609)
(1.02737 0.805574 0.749715)
(1.3366 1.0231 0.958125)
(1.70134 1.27041 1.20071)
(2.18207 1.58592 1.5095)
(2.7704 1.9573 1.87591)
(3.23471 2.24063 2.1536)
(3.45385 2.37635 2.2878)
(3.44023 2.38357 2.30859)
(3.30187 2.33057 2.29463)
(3.22408 2.32081 2.32192)
(3.33755 2.43201 2.423)
(3.6361 2.66541 2.61687)
(4.08065 2.97022 2.88443)
(4.56042 3.27137 3.15536)
(5.00081 3.53817 3.39743)
(5.32114 3.73712 3.5577)
(5.47793 3.84821 3.60541)
(5.55986 3.89472 3.58701)
(5.66509 3.89816 3.56853)
(5.71966 3.82331 3.52686)
(5.62705 3.67242 3.45992)
(5.36726 3.47587 3.39343)
(5.10762 3.32741 3.34581)
(4.96577 3.25211 3.27805)
(4.82918 3.16932 3.1701)
(4.62491 3.04116 3.03335)
(4.38306 2.8934 2.89876)
(4.13873 2.75291 2.78043)
(3.91947 2.63731 2.67837)
(3.75479 2.55874 2.59045)
(3.63467 2.50094 2.50715)
(3.52347 2.44076 2.42606)
(3.43131 2.39139 2.36213)
(3.38505 2.36917 2.32448)
(3.36519 2.35757 2.29913)
(3.32842 2.32884 2.26279)
(3.24845 2.27195 2.19737)
(3.1189 2.18772 2.09151)
(2.94862 2.07898 1.95422)
(2.7296 1.93826 1.78729)
(2.44766 1.76042 1.59893)
(2.14294 1.56885 1.41352)
(1.88134 1.39328 1.2589)
(1.66425 1.23735 1.13613)
(1.46411 1.09243 1.03729)
(1.2877 0.9687 0.967637)
(1.16025 0.87747 0.934115)
(1.09999 0.816123 0.93903)
(1.12725 0.785739 0.972109)
(1.20004 0.774844 0.99052)
(1.15509 0.731297 0.912857)
(0.960672 0.659381 0.774135)
(0.809566 0.597272 0.660019)
(0.741937 0.522718 0.568011)
(0.670151 0.468035 0.480427)
(0.584312 0.389511 0.389175)
(0.175649 0.104426 0.111473)
(0.151925 0.12041 0.114349)
(0.215958 0.173925 0.161914)
(0.298127 0.238342 0.222328)
(0.397404 0.311993 0.29188)
(0.524188 0.403451 0.379785)
(0.685964 0.517935 0.490339)
(0.891289 0.663553 0.630632)
(1.13186 0.836473 0.798475)
(1.3657 1.00815 0.969612)
(1.55444 1.14867 1.11587)
(1.67037 1.23438 1.21275)
(1.69418 1.25697 1.24272)
(1.81948 1.34586 1.31033)
(2.07345 1.52807 1.44602)
(2.43731 1.78913 1.65506)
(2.89559 2.11154 1.93255)
(3.38135 2.44235 2.23165)
(3.81407 2.72596 2.49744)
(4.1367 2.92229 2.68948)
(4.36805 3.03535 2.81449)
(4.55676 3.09544 2.90396)
(4.69773 3.11786 2.98557)
(4.72327 3.07727 3.04171)
(4.60773 2.97088 3.0511)
(4.40603 2.84131 2.9969)
(4.18997 2.71656 2.85928)
(3.9436 2.57088 2.66471)
(3.67709 2.41077 2.47955)
(3.42843 2.25885 2.32496)
(3.18981 2.11284 2.18199)
(2.94356 1.96487 2.03355)
(2.70032 1.81958 1.87894)
(2.49048 1.6903 1.73822)
(2.3313 1.58779 1.62986)
(2.24777 1.53309 1.57242)
(2.28177 1.5552 1.59012)
(2.36758 1.6075 1.63706)
(2.44668 1.65705 1.67992)
(2.48282 1.6799 1.69685)
(2.43508 1.6524 1.65833)
(2.34594 1.59782 1.58926)
(2.22726 1.51861 1.50654)
(2.07743 1.42067 1.42088)
(1.89044 1.29645 1.32534)
(1.70016 1.16767 1.23791)
(1.58693 1.08405 1.20744)
(1.5276 1.03384 1.22093)
(1.49814 1.00785 1.26071)
(1.5087 1.01105 1.3122)
(1.56598 1.03757 1.36624)
(1.66527 1.08081 1.42168)
(1.74011 1.11263 1.44871)
(1.62729 1.04614 1.32933)
(1.38756 0.936466 1.12754)