/*--------------------------------*- C++ -*----------------------------------*\
| =========                 |                                                 |
| \\      /  F ield         | OpenFOAM: The Open Source CFD Toolbox           |
|  \\    /   O peration     | Version:  2.1.1                                 |
|   \\  /    A nd           | Web:      www.OpenFOAM.org                      |
|    \\/     M anipulation  |                                                 |
\*---------------------------------------------------------------------------*/
FoamFile
{
    version     2.0;
    format      ascii;
    class       volVectorField;
    location    "0.0014";
    object      grad1Alpha;
}
// * * * * * * * * * * * * * * * * * * * * * * * * * * * * * * * * * * * * * //

dimensions      [0 -1 0 0 0 0 0];

internalField   nonuniform List<vector> 
36520
(
(3.09097e-09 -2.68734e-09 -4.86202e-09)
(3.01132e-09 -1.41785e-09 -6.64148e-09)
(-1.48399e-10 -2.03446e-09 -6.77316e-09)
(-1.85004e-10 -2.63946e-09 -7.46176e-09)
(-2.41628e-10 -3.41298e-09 -8.32107e-09)
(-2.60143e-10 -4.2045e-09 -9.04679e-09)
(-2.81695e-10 -5.00853e-09 -9.93109e-09)
(-3.14118e-10 -5.89426e-09 -1.10646e-08)
(-3.65698e-10 -6.89548e-09 -1.25522e-08)
(-4.48775e-10 -8.0639e-09 -1.44936e-08)
(-5.67654e-10 -9.48521e-09 -1.6961e-08)
(-7.50343e-10 -1.12171e-08 -1.9997e-08)
(-1.0431e-09 -1.35241e-08 -2.39078e-08)
(-1.49637e-09 -1.67275e-08 -2.8992e-08)
(-2.15965e-09 -2.13433e-08 -3.57807e-08)
(-3.05841e-09 -2.7812e-08 -4.45558e-08)
(-4.15495e-09 -3.65914e-08 -5.55087e-08)
(-5.30014e-09 -4.77367e-08 -6.80374e-08)
(-6.23368e-09 -6.08155e-08 -8.09638e-08)
(-6.61407e-09 -7.4762e-08 -9.2299e-08)
(-6.08299e-09 -8.7863e-08 -9.94534e-08)
(-3.55868e-09 -9.74862e-08 -9.86112e-08)
(3.66999e-10 -9.84901e-08 -9.27854e-08)
(3.20678e-09 -9.34497e-08 -8.57606e-08)
(3.77707e-09 -8.48247e-08 -7.46734e-08)
(2.40352e-09 -7.68765e-08 -5.92416e-08)
(1.25114e-10 -7.29725e-08 -4.22091e-08)
(-2.45435e-09 -7.37991e-08 -2.64994e-08)
(-5.11195e-09 -7.94338e-08 -1.34765e-08)
(-7.79948e-09 -9.10319e-08 -3.41239e-09)
(-1.03295e-08 -1.09285e-07 5.91963e-09)
(-1.20187e-08 -1.33488e-07 1.53944e-08)
(-1.21644e-08 -1.61509e-07 2.53314e-08)
(-1.03213e-08 -1.89441e-07 3.52071e-08)
(-6.47128e-09 -2.12207e-07 4.38669e-08)
(-1.01664e-09 -2.24594e-07 5.02626e-08)
(5.35403e-09 -2.22186e-07 5.37702e-08)
(1.17404e-08 -2.02188e-07 5.45062e-08)
(1.71455e-08 -1.64582e-07 5.36062e-08)
(2.03575e-08 -1.1232e-07 5.39078e-08)
(2.00783e-08 -5.03345e-08 7.11779e-08)
(1.58068e-08 5.94037e-08 5.44139e-07)
(8.77722e-09 2.66603e-07 1.89129e-06)
(1.36098e-08 6.52607e-07 2.99059e-06)
(3.93347e-08 1.01808e-06 2.87437e-06)
(1.26913e-07 4.47462e-06 1.2561e-06)
(8.19891e-07 2.70121e-05 7.62108e-08)
(2.50082e-06 7.29694e-05 -9.59995e-07)
(2.74213e-06 0.000129314 -1.46851e-06)
(9.08124e-07 0.00018702 1.70614e-05)
(-3.69578e-07 0.000240419 7.19217e-05)
(-1.72128e-06 0.000267085 0.000114608)
(-3.23456e-06 0.000208966 8.42385e-05)
(-9.86986e-06 9.49535e-05 1.88145e-05)
(-2.43849e-05 3.75541e-05 1.63392e-05)
(-1.93071e-05 6.83548e-05 1.82762e-06)
(-9.89998e-06 0.000172324 4.48944e-05)
(0.000247292 0.00129452 0.00151015)
(-0.00856496 0.0350467 0.153809)
(-0.0088106 0.0753387 0.898521)
(2.24406e-09 -1.00344e-08 -1.3044e-08)
(2.10255e-09 -1.29594e-08 -1.56334e-08)
(-5.38075e-10 -1.42139e-08 -1.50133e-08)
(-9.2197e-10 -1.63283e-08 -1.49107e-08)
(-9.96037e-10 -1.85401e-08 -1.47105e-08)
(-1.02641e-09 -2.06541e-08 -1.41274e-08)
(-1.24255e-09 -2.30748e-08 -1.36284e-08)
(-1.56276e-09 -2.61697e-08 -1.32998e-08)
(-1.99973e-09 -3.01958e-08 -1.33526e-08)
(-2.55007e-09 -3.5251e-08 -1.39316e-08)
(-3.19076e-09 -4.14473e-08 -1.51456e-08)
(-4.06139e-09 -4.87724e-08 -1.68284e-08)
(-5.33003e-09 -5.79317e-08 -1.89692e-08)
(-7.15418e-09 -7.00242e-08 -2.1121e-08)
(-9.57524e-09 -8.67686e-08 -2.27313e-08)
(-1.24566e-08 -1.09164e-07 -2.20098e-08)
(-1.53388e-08 -1.38241e-07 -1.63863e-08)
(-1.74202e-08 -1.73231e-07 -3.26269e-09)
(-1.77796e-08 -2.11525e-07 1.6394e-08)
(-1.54034e-08 -2.47691e-07 3.50922e-08)
(-9.0633e-09 -2.72641e-07 4.6108e-08)
(-3.56719e-10 -2.73665e-07 5.295e-08)
(6.50336e-09 -2.57378e-07 5.40625e-08)
(1.18444e-08 -2.57165e-07 5.4716e-08)
(1.64245e-08 -2.63552e-07 4.93519e-08)
(1.78939e-08 -2.64762e-07 4.40155e-08)
(1.57573e-08 -2.61836e-07 4.23246e-08)
(1.12735e-08 -2.57156e-07 4.33613e-08)
(5.93267e-09 -2.55221e-07 4.83459e-08)
(1.49794e-09 -2.55278e-07 5.51275e-08)
(-1.29867e-09 -2.57094e-07 6.41051e-08)
(-2.68784e-09 -2.58482e-07 7.58187e-08)
(-2.63798e-09 -2.56368e-07 8.87646e-08)
(-1.41126e-09 -2.48403e-07 1.0082e-07)
(7.58418e-10 -2.33014e-07 1.09626e-07)
(3.72286e-09 -2.09153e-07 1.13181e-07)
(7.35236e-09 -1.76116e-07 1.10076e-07)
(1.15919e-08 -1.34238e-07 1.02058e-07)
(1.67512e-08 -7.55705e-08 1.43643e-07)
(2.8607e-08 7.36856e-09 3.06928e-07)
(2.53809e-07 3.64087e-08 6.33037e-07)
(8.83931e-07 -1.31416e-07 1.10763e-06)
(1.17534e-06 4.60219e-08 2.02071e-06)
(4.81676e-07 2.22287e-06 7.36765e-06)
(-7.92877e-07 1.28765e-05 4.86186e-05)
(-1.23994e-06 5.29524e-05 0.000225168)
(-3.21209e-07 0.000114457 0.000450536)
(1.64003e-06 0.00016686 0.000507002)
(1.12011e-05 0.000368135 0.000542906)
(3.57754e-05 0.00167946 0.00121868)
(4.60701e-05 0.00696107 0.00668437)
(4.49672e-06 0.018002 0.0328447)
(-4.76266e-05 0.0315398 0.0872227)
(-4.01632e-05 0.0339933 0.13151)
(-3.192e-05 0.0072384 0.0338012)
(-5.72081e-06 0.000129038 0.000328415)
(0.000708296 7.57774e-05 2.60378e-05)
(0.0735485 0.00658211 -0.00010258)
(0.419165 0.929752 0.223954)
(0.346609 18.8742 33.1721)
(1.78839e-09 -2.72039e-08 -1.18449e-08)
(1.9817e-09 -2.72342e-08 -1.02769e-08)
(1.43322e-10 -2.96556e-08 -8.0935e-09)
(-1.02074e-10 -3.2786e-08 -5.52273e-09)
(7.01833e-11 -3.5698e-08 -2.70682e-09)
(1.90945e-10 -3.87975e-08 5.64385e-10)
(3.64593e-11 -4.27458e-08 5.08674e-09)
(-2.77828e-10 -4.75492e-08 1.19204e-08)
(-7.84306e-10 -5.40936e-08 1.85766e-08)
(-1.44494e-09 -6.30614e-08 2.15176e-08)
(-2.11545e-09 -7.27365e-08 2.51499e-08)
(-2.77518e-09 -8.24247e-08 2.94941e-08)
(-3.35195e-09 -9.34591e-08 3.5042e-08)
(-3.65297e-09 -1.07586e-07 4.23381e-08)
(-3.09106e-09 -1.2753e-07 5.23127e-08)
(-7.28261e-10 -1.54226e-07 6.55482e-08)
(3.87884e-09 -1.89015e-07 8.25992e-08)
(9.25644e-09 -2.30257e-07 1.02902e-07)
(1.09616e-08 -2.36142e-07 2.5839e-07)
(6.70454e-09 -1.07292e-07 8.54411e-07)
(2.13518e-09 2.78909e-07 2.24197e-06)
(5.50672e-10 9.05031e-07 4.25584e-06)
(1.57765e-09 1.97468e-06 7.73567e-06)
(1.07986e-09 3.42596e-06 1.28769e-05)
(-1.18424e-09 4.17095e-06 1.56701e-05)
(-7.26631e-10 3.64488e-06 1.37679e-05)
(8.48785e-11 3.30129e-06 1.28236e-05)
(6.73634e-10 3.37425e-06 1.32751e-05)
(7.18398e-10 3.77288e-06 1.48871e-05)
(-6.66374e-11 4.32131e-06 1.70592e-05)
(-2.14075e-10 4.90708e-06 1.9351e-05)
(8.43222e-11 5.44331e-06 2.14836e-05)
(2.58414e-10 5.85365e-06 2.31783e-05)
(3.16019e-10 6.02528e-06 2.40126e-05)
(3.17806e-10 5.9696e-06 2.40104e-05)
(3.0987e-10 5.76768e-06 2.34367e-05)
(1.35137e-09 5.18325e-06 2.13917e-05)
(2.90515e-08 4.19048e-06 1.78107e-05)
(1.15763e-07 3.09088e-06 1.39459e-05)
(2.53757e-07 1.9913e-06 1.0505e-05)
(4.0193e-07 1.09299e-06 8.37661e-06)
(6.86571e-07 6.39666e-07 7.05247e-06)
(3.01706e-06 1.77147e-06 5.35223e-06)
(2.21972e-05 1.65448e-05 1.16443e-05)
(0.000103535 6.81928e-05 6.16468e-05)
(0.000191211 0.000158913 0.000283807)
(0.00013539 0.000410387 0.000849703)
(4.95959e-05 0.00114112 0.00172666)
(0.000359701 0.00409056 0.00264516)
(0.0029911 0.0222024 0.00363912)
(0.0151497 0.127044 0.0152211)
(0.038335 0.570362 0.159455)
(0.0467542 1.42787 0.842195)
(-0.0255973 2.46272 1.73348)
(-0.0623921 1.73549 2.84674)
(-0.0160315 0.676212 2.20223)
(-0.000116478 0.137398 0.505082)
(0.118888 0.00943063 0.034433)
(15.9091 0.805164 -0.149934)
(15.7856 345.868 275.937)
(2.92355e-09 -3.58955e-08 3.50586e-09)
(3.70969e-09 -4.32054e-08 1.03969e-08)
(1.49595e-09 -5.27622e-08 1.81996e-08)
(1.42378e-09 -6.48699e-08 2.26702e-08)
(1.69333e-09 -7.59358e-08 2.39095e-08)
(2.4326e-09 -8.45944e-08 2.79052e-08)
(3.82959e-09 -8.55711e-08 5.47679e-08)
(4.42872e-09 -9.00663e-08 8.8647e-08)
(2.05618e-09 -9.57569e-08 1.31832e-07)
(6.92428e-12 -1.02211e-07 1.94359e-07)
(7.84462e-12 -1.13725e-07 2.63359e-07)
(8.58757e-12 -1.36424e-07 3.19285e-07)
(9.18863e-12 -1.81467e-07 3.49038e-07)
(9.77242e-12 -2.61197e-07 3.47593e-07)
(1.04735e-11 -3.8943e-07 3.08852e-07)
(1.137e-11 -5.78411e-07 2.47258e-07)
(2.21136e-11 -3.81675e-07 1.64403e-06)
(6.34286e-08 1.68087e-06 9.29008e-06)
(3.36751e-07 9.55595e-06 3.58395e-05)
(9.25583e-07 2.98124e-05 0.000102426)
(1.60845e-06 6.37539e-05 0.000213439)
(2.6134e-06 9.71971e-05 0.000323284)
(4.10224e-06 0.000121836 0.000407697)
(3.77828e-06 0.000161509 0.000538282)
(4.42837e-07 0.000207328 0.000664563)
(-1.32935e-06 0.000216371 0.000696013)
(-2.1698e-07 0.000201733 0.000674631)
(9.91989e-07 0.00019632 0.000666563)
(1.80284e-06 0.000198423 0.000678833)
(2.12178e-06 0.000220548 0.00075456)
(2.10171e-06 0.000255992 0.000872366)
(1.81823e-06 0.000287934 0.000978235)
(1.20353e-06 0.000300899 0.00102209)
(4.00796e-07 0.000298341 0.00101382)
(-2.64576e-07 0.000272675 0.000930049)
(-1.23025e-06 0.00022706 0.0007794)
(-2.65229e-06 0.00018925 0.000646828)
(-3.51205e-06 0.000151425 0.000514094)
(-3.44442e-06 0.000113764 0.0003862)
(-2.61437e-06 7.87746e-05 0.000275578)
(-1.38446e-06 5.67252e-05 0.000206916)
(-5.01652e-07 4.48699e-05 0.000176909)
(3.91859e-06 4.16971e-05 0.000172183)
(2.99145e-05 6.06983e-05 0.000190976)
(0.00013439 0.00019798 0.000194678)
(0.000381218 0.00107177 3.8044e-05)
(0.000701633 0.00516978 -0.000356035)
(0.000956075 0.0196321 -0.00144712)
(0.00162079 0.0570089 -0.00472026)
(0.0101066 0.1582 -0.0145728)
(0.091298 0.446869 -0.0392303)
(0.428948 1.21051 -0.0709367)
(0.796312 3.76574 0.0294288)
(0.941676 9.6811 1.44222)
(0.155704 16.4442 6.78701)
(-1.14355 17.7535 12.0235)
(-1.02956 9.20741 12.0861)
(-0.210182 2.32599 5.14463)
(140.486 2.83028 6.90697)
(140.432 1544.03 1182.29)
(4.61127e-09 -6.87754e-08 2.39917e-08)
(7.94738e-09 -1.16854e-07 3.50699e-08)
(4.78566e-09 -1.44847e-07 1.60223e-07)
(1.45393e-09 -1.40791e-07 4.6017e-07)
(1.56605e-09 -1.09643e-07 9.12489e-07)
(1.4028e-08 2.04706e-08 1.78043e-06)
(2.81434e-08 1.50897e-07 2.71964e-06)
(3.5552e-08 2.29537e-07 3.66093e-06)
(4.87214e-08 2.51383e-07 4.69313e-06)
(6.04327e-08 2.79174e-07 6.13367e-06)
(5.6748e-08 3.10517e-07 7.88776e-06)
(3.7441e-08 1.17249e-06 1.26553e-05)
(9.22146e-09 4.45838e-06 2.53771e-05)
(-2.44456e-08 1.22063e-05 5.27855e-05)
(-5.34576e-08 3.07151e-05 0.000114809)
(6.34444e-07 7.5894e-05 0.000261359)
(4.32331e-06 0.000195717 0.000641244)
(1.63511e-05 0.00051204 0.00163028)
(4.45209e-05 0.00128045 0.00401361)
(8.48768e-05 0.00280327 0.00871968)
(0.000105539 0.00471348 0.0146328)
(9.27836e-05 0.00559104 0.0173931)
(0.000102675 0.00407837 0.0129302)
(0.000123091 0.00205892 0.00674167)
(7.5782e-05 0.00165665 0.00461166)
(4.54339e-06 0.00201844 0.00493608)
(-1.44387e-05 0.00201044 0.00519807)
(1.96527e-06 0.00177345 0.00551983)
(4.20677e-05 0.00180772 0.00575551)
(9.25054e-05 0.00188263 0.0061265)
(0.000106918 0.00215412 0.00702936)
(7.15937e-05 0.00262931 0.00853734)
(1.70659e-05 0.00318401 0.0102596)
(-4.39072e-05 0.00354252 0.0113661)
(-0.000111946 0.00360179 0.0115396)
(-0.000135259 0.00341472 0.0108721)
(-0.000126675 0.00302288 0.00954854)
(-0.00012444 0.00267343 0.00839026)
(-0.000113893 0.00220435 0.00691451)
(-8.54914e-05 0.00170616 0.00538074)
(-4.67661e-05 0.00131995 0.00421449)
(-1.57299e-05 0.00115146 0.0037287)
(1.07073e-05 0.00110759 0.00373579)
(4.00686e-05 0.00106707 0.00373789)
(7.98957e-05 0.000994928 0.00333181)
(0.000175537 0.0012264 0.00300318)
(0.000362729 0.0025091 0.00278121)
(0.00060982 0.00805332 0.00259841)
(0.00120325 0.0220736 0.00217671)
(0.00635195 0.0491213 0.00244293)
(0.0399005 0.14379 -0.0010729)
(0.228179 0.357612 -0.0912644)
(1.15652 0.0341266 -0.441644)
(3.72033 -0.00550536 -0.357775)
(5.23327 10.0633 1.48395)
(2.08651 64.8275 12.7591)
(-3.94011 85.0094 46.2829)
(-2.59805 53.3925 65.4817)
(634.718 67.3611 117.309)
(633.712 1666.44 1512.67)
(5.07958e-09 4.74078e-08 5.47989e-07)
(6.35621e-08 6.02281e-07 3.23923e-06)
(2.02962e-07 1.55207e-06 8.25227e-06)
(3.6513e-07 3.07785e-06 1.7544e-05)
(6.45152e-07 4.58621e-06 2.81703e-05)
(8.84741e-07 5.78025e-06 3.96306e-05)
(9.22486e-07 8.80234e-06 5.81915e-05)
(9.67525e-07 1.50087e-05 8.88823e-05)
(1.20584e-06 2.76237e-05 0.00014222)
(1.55276e-06 5.05945e-05 0.000231191)
(3.17004e-06 7.64301e-05 0.000329356)
(8.5046e-06 0.000111535 0.000450354)
(1.95166e-05 0.000199249 0.000650051)
(4.34999e-05 0.000346629 0.000997595)
(0.00010146 0.000613739 0.00169452)
(0.000256052 0.00127587 0.00340513)
(0.000665679 0.00304577 0.00750277)
(0.00163963 0.00731057 0.01489)
(0.0034463 0.0179087 0.0248068)
(0.0051606 0.0500428 0.0377849)
(0.00421016 0.137089 0.0648216)
(-0.000840735 0.23607 0.0913686)
(-0.00518963 0.232608 0.0825829)
(-0.00402967 0.114509 0.0428813)
(-0.000844523 0.0153396 0.0151755)
(0.000295684 0.00635731 0.0124319)
(0.000259624 0.00774122 0.012902)
(0.000251721 0.00925859 0.0134106)
(0.00029489 0.00976304 0.0145595)
(0.000619922 0.00840975 0.0158114)
(0.00117331 0.0080985 0.0183943)
(0.00157181 0.00885376 0.0224976)
(0.00137682 0.0104135 0.0277651)
(0.000623452 0.012282 0.0335239)
(-0.000239436 0.0138095 0.0380865)
(-0.000968313 0.0156626 0.0424192)
(-0.00120883 0.0200125 0.0494262)
(-0.00128442 0.0205658 0.0547045)
(-0.00146743 0.0249371 0.0634951)
(-0.00131592 0.0255824 0.0622042)
(-0.000804896 0.0215381 0.0489921)
(-0.000233577 0.0190123 0.0437091)
(7.05418e-06 0.0185403 0.0517543)
(-0.00016521 0.0206169 0.0660422)
(-0.000205637 0.0178425 0.0586504)
(0.000197422 0.0121031 0.0362866)
(0.000894968 0.00965925 0.0251514)
(0.00183039 0.0103453 0.0264715)
(0.00401213 0.0155796 0.039129)
(0.015584 0.0307723 0.0693194)
(0.0617183 0.0873384 0.18901)
(0.19238 0.470195 1.40368)
(0.586888 0.388076 1.60128)
(2.31596 -0.692955 -0.178553)
(10.1199 -3.87054 -6.078)
(24.363 0.962066 -11.1352)
(22.9972 112.123 -9.22449)
(31.8992 195.018 192.12)
(893.45 484.268 790.618)
(868.398 1042.46 627.974)
(1.3485e-06 6.48934e-08 9.1269e-07)
(3.85746e-06 -1.77292e-07 6.25249e-06)
(7.15637e-06 -4.16057e-06 1.67766e-05)
(9.95769e-06 -1.60383e-05 3.09544e-05)
(1.10197e-05 -3.12659e-05 3.42272e-05)
(1.49824e-05 -5.41585e-05 2.82275e-06)
(2.46238e-05 -6.98255e-05 4.00103e-06)
(4.20441e-05 -8.88426e-05 6.54903e-06)
(7.12248e-05 -0.000109764 1.15365e-05)
(9.36676e-05 -0.000134842 2.0134e-05)
(0.000109873 -0.000159889 2.965e-05)
(0.000162808 0.00464658 0.00929849)
(0.000278683 0.020378 0.0151984)
(0.000529318 0.0158749 0.018321)
(0.0012176 0.00998612 0.0228005)
(0.00294956 0.0152068 0.0389776)
(0.00591657 0.0318882 0.0773777)
(0.00932208 0.0753739 0.126125)
(0.0140122 0.222762 0.153219)
(0.0278373 0.803574 0.0801656)
(0.0393084 2.54828 -0.236447)
(0.0155674 4.90947 -0.646973)
(-0.0320879 5.12468 -0.625281)
(-0.0482419 3.36672 -0.380897)
(-0.0225324 0.704732 -0.049646)
(-0.00166301 0.0252291 0.0284643)
(0.000659863 0.00658542 0.0346914)
(0.000938303 0.0221957 0.0388125)
(0.00112742 0.0280774 0.0416911)
(0.00180911 0.0281928 0.0441257)
(0.00334178 0.0232575 0.0468558)
(0.00471419 0.0190571 0.0511899)
(0.00551951 0.0155288 0.0608115)
(0.00512679 0.0131484 0.0748162)
(0.00439641 0.0171455 0.0774698)
(0.00576974 0.0985597 0.0610476)
(0.00614699 0.139901 0.0971146)
(0.00700459 0.200919 0.36563)
(0.00388056 0.152075 0.474669)
(-0.00723916 0.0873499 0.44439)
(-0.00935449 0.0508429 0.29636)
(0.0011036 0.0692965 0.29134)
(0.0108535 0.0805478 0.333988)
(0.00333463 0.0701222 0.371536)
(-0.0147907 0.0562545 0.371908)
(-0.0165084 0.0634107 0.35103)
(-0.00453051 0.0709648 0.357513)
(0.00765869 0.076896 0.382497)
(0.0230892 0.0739981 0.378378)
(0.0826851 0.0757476 0.335011)
(0.707196 0.23588 0.272921)
(0.914377 0.371073 0.374736)
(0.273613 -0.255472 0.254186)
(-0.424617 -1.58551 -0.628255)
(-0.403973 -4.2096 -4.29758)
(8.13395 -16.8662 -19.604)
(106.72 -58.6461 -46.4583)
(406.009 44.1604 90.463)
(856.948 1065.66 1277.19)
(549.551 471.563 77.3288)
(2.7017e-06 -3.87962e-07 -3.90255e-07)
(8.06188e-06 -4.67524e-06 -2.37976e-06)
(1.24978e-05 -2.31768e-05 -6.03409e-06)
(8.47655e-06 -7.06796e-05 -1.31518e-05)
(-1.56277e-05 -0.000119485 -2.21474e-05)
(-2.08339e-05 0.0104444 -0.00264762)
(-1.92533e-05 0.0526325 -0.0131507)
(-5.90416e-05 0.161792 -0.0404533)
(-0.000175818 0.482049 -0.116549)
(-0.000537627 1.47479 -0.358514)
(0.00401403 3.17954 -0.803222)
(0.008264 3.91422 -0.992498)
(0.00422716 3.97683 -0.98837)
(0.00163032 3.42106 -0.794459)
(0.009874 1.58328 -0.175052)
(0.0297625 0.293137 0.668967)
(0.0501386 0.297576 2.22383)
(0.0574785 0.712489 5.66516)
(0.0483587 1.58929 9.71148)
(0.0270731 3.80632 9.85296)
(0.0221819 11.3849 5.56532)
(0.039467 24.1579 -2.00699)
(-0.0246723 25.7537 -4.60189)
(-0.139005 18.0765 -3.22142)
(-0.114402 5.375 -0.20569)
(-0.0241279 0.474935 0.766268)
(0.00512504 0.0490947 0.595768)
(0.00579694 0.0253212 0.401653)
(0.00351864 0.0120941 0.259354)
(0.00272553 0.00783877 0.175883)
(0.00378207 0.0154562 0.162696)
(0.00779478 0.0302633 0.168388)
(0.0127127 0.0318922 0.19511)
(0.00927239 0.0185522 0.23211)
(0.0011816 0.0245635 0.249224)
(0.0210987 0.0422285 0.254936)
(0.164204 0.0585628 0.273811)
(0.192373 0.0786143 0.345862)
(0.0278452 0.0765159 0.430728)
(-0.100793 0.0591981 0.524889)
(-0.0793408 -0.00215644 0.649405)
(0.0215863 -0.017118 0.818877)
(0.0401758 0.0530313 1.01869)
(0.0175356 0.099762 1.22371)
(-0.00917166 0.0995901 1.43355)
(-0.0045682 0.0352202 1.63061)
(0.0172583 -0.0690659 1.73104)
(0.0113406 -0.165855 1.65605)
(-0.0216268 -0.268214 1.31116)
(-0.027646 -0.41217 0.727157)
(0.0500034 -0.573537 0.125015)
(0.0980147 -0.816474 -1.05113)
(-0.0274735 -0.733313 -1.57442)
(-0.136418 -0.657809 -1.53279)
(-0.0686866 -0.347666 -0.756218)
(0.964279 -0.496649 -0.446121)
(77.5102 -8.76422 -9.22811)
(775.925 58.3876 -57.1569)
(893.637 807.485 595.806)
(194.419 163.722 -24.7064)
(-0.00233246 2.93863 1.24532)
(-0.00321155 4.04623 1.71365)
(-0.00471045 5.93478 2.51197)
(-0.00849767 10.7065 4.52894)
(-0.0143656 18.1001 7.65185)
(-0.0146842 18.5009 7.82441)
(-0.010874 13.696 5.82814)
(-0.00883885 13.909 5.97924)
(-0.0151235 27.1343 11.6861)
(-0.0511143 61.5803 26.3751)
(-0.0567411 63.3594 27.0689)
(-0.0168353 36.68 15.5803)
(0.0339623 8.99251 3.87374)
(0.102902 4.43148 1.99987)
(0.335512 6.18476 2.84136)
(1.04663 16.4751 7.40193)
(2.5678 58.5605 25.8761)
(3.8444 205.839 90.5028)
(2.27108 374.505 168.003)
(-1.05571 356.476 164.842)
(-3.46412 244.932 116.326)
(-3.33504 145.023 68.4902)
(-1.54279 117.39 52.3796)
(-0.633941 108.154 47.3543)
(-0.45132 98.7543 43.2977)
(-0.389362 89.1486 39.2112)
(-0.312034 81.2805 35.8475)
(-0.236241 75.5094 33.3284)
(-0.171403 68.7818 30.2703)
(-0.0929889 57.666 25.1408)
(-0.0282223 39.4269 16.9074)
(0.0116266 18.7788 7.94849)
(0.0367506 6.77243 2.9165)
(0.031157 4.49862 1.99506)
(0.0143323 4.53149 2.09563)
(0.0168231 4.78274 2.30192)
(0.0437504 5.63385 2.71391)
(0.0728014 7.91345 3.52177)
(0.0832427 12.3588 5.44047)
(0.0909042 20.8247 9.15966)
(0.115088 36.3031 15.8527)
(0.142745 61.6578 26.4283)
(0.15027 89.8471 38.0595)
(0.140507 101.543 42.8591)
(0.114129 101.78 42.9533)
(0.0489588 101.798 42.9779)
(-0.0784464 101.824 42.9373)
(-0.291749 99.2524 41.694)
(-0.534973 91.5313 38.1643)
(-0.603384 79.2559 32.6523)
(-0.335564 66.0559 27.0331)
(-0.0750905 55.0849 22.4838)
(-0.007751 56.3242 23.1499)
(0.01841 56.4916 23.6775)
(0.192982 37.0171 15.8055)
(3.24039 47.0285 19.9982)
(85.4342 150.66 66.9385)
(779.997 760.585 343.038)
(862.796 775.402 174.083)
(165.189 192.201 -1.7545)
(-0.00929607 13.4099 3.14316)
(-0.0104104 15.016 3.52874)
(-0.0112552 16.2329 3.82459)
(-0.0137291 19.7992 4.67684)
(-0.0165186 30.6587 7.26055)
(-0.00291842 43.8477 10.4093)
(0.0292845 47.5578 11.3131)
(0.0860701 50.3342 11.9944)
(0.143413 67.8255 16.1853)
(-0.00263396 125.15 29.9788)
(-0.278042 161.153 38.703)
(-0.262482 140.331 33.808)
(-0.0445043 75.5744 18.2411)
(0.0896549 20.7926 4.97344)
(0.242929 9.59553 2.15938)
(0.752175 12.2259 2.6722)
(2.48703 29.432 7.4557)
(6.22802 112.701 32.9198)
(6.91199 371.068 113.323)
(1.2969 515.382 160.448)
(-5.22776 448.972 141.129)
(-6.78941 291.98 87.9972)
(-3.713 199.533 52.1508)
(-1.08246 191.223 47.2414)
(-0.387934 194.397 48.0193)
(-0.2597 202.246 50.2629)
(-0.247093 204.838 51.2715)
(-0.346444 201.339 50.736)
(-0.57592 191.089 48.4244)
(-0.799855 175.049 44.4889)
(-0.70453 151.636 38.4953)
(-0.314484 117.986 29.9063)
(-0.0430988 76.2465 19.3384)
(0.0548719 38.5804 9.81259)
(0.10649 17.9339 4.65554)
(0.115467 14.847 3.86422)
(0.138346 15.5911 3.98732)
(0.183383 18.4839 4.6231)
(0.203281 26.3465 6.5438)
(0.173143 45.7541 11.4616)
(0.100101 90.8882 23.0706)
(-0.00783717 162.928 41.6852)
(-0.0753625 197.691 50.6658)
(-0.0868263 194.459 49.7899)
(-0.0857438 186.385 47.6658)
(-0.117269 186.956 47.8244)
(-0.232583 196.448 50.4123)
(-0.452472 211.084 54.4838)
(-0.685704 209.429 54.4862)
(-0.595698 183.974 48.2423)
(-0.204175 132.352 34.9325)
(0.105767 108.374 28.7404)
(0.285392 114.992 30.9723)
(0.156569 117.8 31.7753)
(0.0382695 83.9664 22.4548)
(3.6441 86.7089 22.6204)
(108.82 221.674 58.2494)
(819.297 990.865 325.283)
(865.801 925.692 193.239)
(151.709 181.196 72.3367)
(-0.00406208 16.5921 3.19091)
(-0.00422385 17.2414 3.33496)
(-0.00609393 24.8588 4.83634)
(-0.00857198 34.9454 6.83801)
(-0.00854978 34.8336 6.85509)
(-0.0072048 29.339 5.79434)
(-0.0059559 24.2476 4.7661)
(-0.00647413 28.3404 5.5287)
(0.00598101 63.555 12.4721)
(-0.0337227 163.673 32.5591)
(-0.0698147 201.732 40.5394)
(-0.0351976 150.855 30.6649)
(0.00558457 52.7733 10.7213)
(0.0407395 3.62125 0.55382)
(0.248326 0.0473125 -0.329923)
(1.41099 0.89007 -0.522332)
(6.00953 13.0571 0.657228)
(16.7028 105.76 15.8007)
(18.6523 584.069 115.5)
(3.57129 982.76 268.569)
(-13.7835 844.939 304.213)
(-19.1532 450.496 206.697)
(-10.6462 226.778 99.8949)
(-2.39785 212.521 50.9027)
(-0.442351 209.56 42.9917)
(-0.17121 203.105 41.9308)
(-0.0695076 198.798 41.3043)
(-0.0617055 194.39 40.7713)
(-0.15498 186.938 39.8064)
(-0.291445 175.595 38.1421)
(-0.307227 158.546 35.2798)
(-0.150483 129.892 29.3007)
(0.00171377 86.9076 19.629)
(0.0859894 39.2584 8.92095)
(0.0688006 9.4018 2.45444)
(-0.0123297 2.58202 0.780788)
(-0.0368045 2.80519 0.312144)
(-0.0188595 4.63005 0.330258)
(0.00578444 10.9901 1.57474)
(0.0297241 26.5205 5.01429)
(0.0480679 56.9455 12.5115)
(0.040871 104.184 24.6763)
(0.0314588 141.347 33.5308)
(0.0350024 147.074 34.757)
(0.0375688 145.758 33.7206)
(0.0347969 144.786 33.508)
(0.00177857 145.156 33.9051)
(-0.0748994 144.705 34.0626)
(-0.229836 137.747 32.763)
(-0.329776 115.299 27.9543)
(-0.153157 79.2279 19.5355)
(0.205315 39.6498 9.95959)
(0.232168 31.1936 7.95488)
(-0.0782524 38.3424 8.96976)
(-0.22453 25.1659 5.3114)
(2.95943 42.1203 9.47155)
(131.356 211.67 47.6692)
(852.627 1179.56 245.401)
(856.937 946.799 98.9701)
(132.653 -1.93404 7.91299)
(2.77462e-06 -0.000170702 6.44123e-05)
(0.000233267 -2.75055e-05 0.000315829)
(0.000716028 0.00681606 0.00537397)
(0.000809321 0.00397055 0.00625407)
(-0.000719823 0.00601727 0.0103678)
(-0.00106112 0.0493316 0.0361016)
(-1.9863e-05 0.19304 0.116161)
(-1.14243e-05 0.760691 0.409142)
(0.00120855 3.05728 1.54423)
(0.0032385 7.57535 3.70853)
(0.00472517 7.91452 3.92698)
(0.00382527 4.92856 2.51722)
(0.00113869 0.568954 0.428854)
(0.00621112 -0.0031481 0.184172)
(0.0332913 0.000198119 0.0990315)
(0.0995052 0.332844 -0.407543)
(0.473014 1.80114 -2.94347)
(5.36195 6.78783 -13.5223)
(40.8601 19.117 -37.3345)
(65.0621 54.3546 -10.5178)
(17.6314 441.336 309.385)
(-43.5702 877.382 710.464)
(-55.1557 713.694 600.354)
(-26.9261 279.633 233.816)
(-3.83383 40.201 28.7268)
(-0.0252109 7.96617 2.72499)
(0.0502518 8.43574 2.90483)
(0.130716 9.38343 3.37516)
(0.0923411 9.32418 3.43518)
(-0.0188344 8.58759 3.4117)
(-0.10385 6.50951 2.86503)
(-0.107025 3.46709 1.60478)
(0.0389106 0.956087 0.275901)
(0.304752 0.18396 -0.163699)
(0.242979 -0.00668748 0.105069)
(-0.181028 0.091001 0.193592)
(-0.301905 0.82829 0.476092)
(-0.116151 1.44718 0.497536)
(-0.00571589 1.42121 0.355609)
(0.209803 1.29103 0.302414)
(0.720016 0.689206 0.186483)
(0.510164 -0.351518 0.136539)
(-0.10882 0.189338 0.977848)
(-0.534903 0.760239 0.981264)
(-0.485348 1.23863 0.252865)
(0.0243112 1.17671 -0.231998)
(0.0653383 1.10344 -0.350083)
(-0.129326 1.06301 -0.19384)
(-0.175708 1.12362 0.358902)
(-0.0537303 1.04044 0.451249)
(0.126733 0.846735 0.690993)
(0.283266 0.357264 0.886429)
(0.000375258 0.316175 0.218386)
(-0.307723 0.705354 -0.296673)
(-0.140792 0.489378 -0.273815)
(1.40606 1.01673 0.297693)
(97.2743 32.2601 10.9803)
(844.353 633.403 185.255)
(891.343 808.252 51.0971)
(142.784 53.8767 -0.206735)
(0.000152768 -0.000294865 -5.45749e-05)
(0.000975557 -0.000481693 -2.24669e-05)
(0.00183144 0.00557073 -0.00395037)
(0.00275841 0.0077076 0.0141803)
(0.0046071 0.0122203 0.0279562)
(0.00799335 0.0576976 0.0337993)
(0.0119057 0.207504 0.00675039)
(0.00611461 0.789777 -0.196055)
(-0.00897956 3.14532 -1.16539)
(-0.00363735 7.85114 -2.85415)
(0.0340371 8.78489 -1.10797)
(0.0810654 7.24804 5.28093)
(0.0897452 4.57625 13.2823)
(0.0324101 4.168 14.239)
(-0.0555495 2.93518 10.1624)
(-0.0378064 1.10648 3.13495)
(0.172317 0.873415 -0.222016)
(1.25437 2.22962 -1.92646)
(11.2684 7.40698 -14.4584)
(74.1918 60.0074 -103.875)
(156.219 435.777 -287.391)
(67.3472 916.723 -26.768)
(-111.719 834.168 389.93)
(-136.711 381.846 370.074)
(-55.8105 72.8796 108.926)
(-6.03699 10.5412 5.5607)
(-0.0727292 8.55148 -3.16876)
(0.0108464 9.5244 -3.75576)
(0.0603734 9.53273 -3.83669)
(0.0799538 8.81127 -3.5272)
(0.00751482 6.71951 -2.57263)
(-0.080246 3.55888 -1.20195)
(-0.0529222 0.959022 -0.246301)
(0.284749 0.209783 -0.110317)
(0.317794 -0.0529948 -0.37312)
(-0.00536196 0.061486 -0.237644)
(-0.224356 0.69233 -0.134385)
(-0.264665 1.42226 -0.279923)
(-0.0885807 1.46627 -0.296609)
(-0.00221067 1.36155 -0.241468)
(0.0747448 0.98477 -0.553003)
(0.596557 0.883179 -1.38355)
(0.565776 0.571587 -1.14479)
(-0.368265 0.789318 -0.841739)
(-0.630315 1.28766 -0.200155)
(-0.210387 1.43322 -0.202694)
(0.126418 1.14401 -0.297992)
(0.3823 0.901049 0.0991619)
(0.11405 0.749491 0.878491)
(-0.209038 0.9718 0.718552)
(0.106959 0.875522 0.367048)
(0.102827 0.522333 0.905282)
(-0.300909 0.0824995 1.06229)
(-0.30094 0.373072 0.757329)
(-0.061578 0.422905 0.276445)
(1.47109 1.18293 0.119268)
(96.6501 35.224 -5.57343)
(842.024 671.587 -138.483)
(891.985 838.967 -40.3064)
(145.111 57.4583 0.263843)
(0.0012024 10.9979 -2.08108)
(0.00117554 10.7462 -2.03657)
(0.00881829 13.1702 -2.49074)
(0.0152499 15.1451 -2.84003)
(0.0180247 17.702 -3.27819)
(0.0293806 17.4427 -3.13853)
(0.0506441 16.3956 -2.82839)
(0.100541 19.8868 -3.28973)
(0.291484 41.4913 -6.83351)
(1.01956 101.977 -16.2499)
(2.82765 198.694 -25.3451)
(4.43747 246.308 0.375963)
(2.68709 232.852 37.9517)
(-1.3859 153.808 44.2368)
(-4.48135 57.7718 31.6599)
(-3.99326 12.2341 9.49499)
(-1.21358 2.22624 0.610233)
(-0.0191219 0.175513 -0.0949082)
(1.33084 -1.25411 -2.04522)
(26.4124 -12.8217 -20.5326)
(204.504 14.4702 -149.949)
(291.634 906.752 -439.044)
(2.14269 1511.64 -313.212)
(-265.482 1484.75 19.8064)
(-204.022 708.299 150.149)
(-52.0745 188.57 50.6873)
(-3.47674 150.772 -22.715)
(0.0414546 166.859 -32.1496)
(0.0473877 185.889 -36.0649)
(-0.0150474 190.004 -37.0926)
(-0.113511 187.675 -36.7862)
(-0.219359 170.08 -33.3336)
(-0.162932 125.924 -24.467)
(-0.00182025 66.8022 -12.5541)
(0.109073 20.3817 -3.71668)
(0.0987509 3.39678 -0.808516)
(0.00748927 1.92857 -0.909691)
(-0.0171627 2.97012 -0.750147)
(0.0107491 7.63031 -1.4503)
(0.0326377 18.9423 -3.66045)
(0.0440688 40.6281 -7.88338)
(0.0898281 73.3361 -14.25)
(0.111621 102.387 -20.6148)
(0.0409978 112.994 -22.714)
(-0.0347914 116.698 -22.7958)
(-0.0165605 120.183 -23.2729)
(0.143847 120.9 -23.6545)
(0.343458 119.051 -23.5429)
(0.106475 108.729 -21.9412)
(-0.24144 83.8578 -16.6791)
(0.14609 50.9542 -9.90973)
(0.457219 23.0722 -3.6933)
(-0.0654381 15.0309 -1.70892)
(-0.600849 23.5243 -3.57749)
(-0.298395 33.1947 -6.39588)
(5.08166 61.3924 -11.9806)
(149.643 248.882 -40.8374)
(856.706 1313.49 -201.093)
(838.771 1016.76 -134.626)
(126.769 32.6959 9.40869)
(0.000367814 1.98154 -0.444265)
(0.00536507 1.15962 -0.259677)
(0.0196621 0.532932 -0.118699)
(0.0403336 0.132941 -0.00955897)
(0.073276 0.0537562 0.0875581)
(0.106217 0.0362277 0.202879)
(0.163511 1.19792 0.124278)
(0.381347 8.14409 -0.956522)
(1.28479 31.0114 -4.36728)
(5.44998 76.6685 -8.56592)
(20.9304 177.493 -23.2277)
(33.0661 542.607 -105.461)
(12.4439 1021.01 -219.907)
(-18.6962 1034.07 -227.825)
(-28.988 805.324 -178.17)
(-19.4375 378.854 -83.5155)
(-5.33993 108.782 -23.7849)
(-0.250004 19.5948 -4.27138)
(0.847502 9.17174 -0.748042)
(4.02668 9.84457 1.15324)
(19.3435 1.61067 -37.3435)
(94.431 -52.2962 -352.137)
(160.01 273.654 -600.459)
(39.0974 1224.38 -567.551)
(-138.782 1220.91 -290.578)
(-134.356 464.167 -81.3902)
(-41.1201 88.256 -16.966)
(-3.03357 65.5195 -14.2265)
(-0.0904608 65.9624 -14.3288)
(-0.0417404 65.5285 -14.0394)
(0.00175046 63.8468 -13.1469)
(0.0840337 57.1503 -11.3359)
(0.229081 39.942 -7.57512)
(0.293818 16.8652 -3.0622)
(-0.0437435 3.29082 -0.659854)
(-0.409368 0.228235 -0.294945)
(-0.233377 0.171552 -0.275366)
(0.0224134 0.475916 1.17973)
(0.0534979 1.16463 1.80391)
(0.0722025 2.84553 1.42881)
(0.170875 5.79743 -0.246575)
(0.359711 8.05197 -1.80314)
(0.27878 8.27366 -1.68872)
(-0.0356769 8.05922 -1.42701)
(-0.1735 7.64964 -1.45935)
(-0.155318 6.98039 -1.3639)
(-0.0771531 6.9164 -1.01562)
(0.00633871 8.13313 -1.49025)
(0.0178563 12.0722 -2.67093)
(0.051787 16.3169 -2.95211)
(0.533694 16.1225 -2.57595)
(0.638128 13.0901 -2.4719)
(-0.16383 14.9577 -3.38324)
(-0.812696 15.7878 -3.69027)
(-0.434333 12.085 -2.85038)
(5.76854 17.8637 -4.92289)
(115.112 86.5879 -28.9182)
(794.671 1008.73 -245.27)
(873.471 1055.65 -167.994)
(188.135 95.9327 0.0381542)
(0.000335996 1.26969 -0.48693)
(0.000193996 0.733042 -0.281255)
(0.0169017 0.716944 -0.283688)
(0.0632534 2.02814 -0.808466)
(0.111043 2.08184 -0.865361)
(0.172301 1.98182 -0.895992)