/*--------------------------------*- C++ -*----------------------------------*\
| =========                 |                                                 |
| \\      /  F ield         | OpenFOAM: The Open Source CFD Toolbox           |
|  \\    /   O peration     | Version:  2.1.1                                 |
|   \\  /    A nd           | Web:      www.OpenFOAM.org                      |
|    \\/     M anipulation  |                                                 |
\*---------------------------------------------------------------------------*/
FoamFile
{
    version     2.0;
    format      ascii;
    class       volVectorField;
    location    "0.0014";
    object      gradAlphaUSE;
}
// * * * * * * * * * * * * * * * * * * * * * * * * * * * * * * * * * * * * * //

dimensions      [0 0 0 0 0 0 0];

internalField   nonuniform List<vector> 
36520
(
(-0.000113743 9.88897e-05 0.000178914)
(-0.000110807 5.21725e-05 0.000244386)
(5.46069e-06 7.48627e-05 0.000249235)
(6.80746e-06 9.71222e-05 0.000274565)
(8.89067e-06 0.00012558 0.000306172)
(9.57156e-06 0.000154698 0.000332863)
(1.03641e-05 0.000184273 0.000365384)
(1.15564e-05 0.00021685 0.000407067)
(1.34532e-05 0.000253668 0.000461765)
(1.6508e-05 0.000296627 0.000533141)
(2.08787e-05 0.000348873 0.000623838)
(2.75946e-05 0.000412519 0.00073541)
(3.83545e-05 0.000497277 0.000879087)
(5.50092e-05 0.000614931 0.00106579)
(7.93682e-05 0.000784378 0.00131496)
(0.000112353 0.0010217 0.00163679)
(0.000152557 0.00134353 0.00203811)
(0.000194486 0.00175168 0.0024966)
(0.00022859 0.00223011 0.00296895)
(0.000242383 0.00273977 0.00338244)
(0.000222807 0.00321824 0.00364277)
(0.000130319 0.00356995 0.00361114)
(-1.34412e-05 0.00360716 0.00339823)
(-0.000117483 0.00342362 0.00314192)
(-0.000138446 0.0031092 0.00273711)
(-8.81515e-05 0.00281952 0.00217274)
(-4.59084e-06 0.00267759 0.00154879)
(9.00771e-05 0.0027085 0.000972555)
(0.000187598 0.00291506 0.000494559)
(0.000286113 0.00333937 0.000125178)
(0.000378664 0.00400625 -0.000217006)
(0.000440188 0.00488902 -0.000563822)
(0.000445049 0.00590899 -0.000926782)
(0.000377216 0.00692358 -0.00128673)
(0.000236303 0.00774889 -0.00160183)
(3.71051e-05 0.00819717 -0.00183447)
(-0.000195421 0.00810975 -0.0019626)
(-0.000428818 0.00738492 -0.00199084)
(-0.00062706 0.00601922 -0.00196053)
(-0.000745833 0.00411504 -0.00197501)
(-0.000736596 0.00184658 -0.00261125)
(-0.000570305 -0.00214327 -0.0196324)
(-0.000301843 -0.00916831 -0.0650401)
(-0.000450212 -0.0215882 -0.0989289)
(-0.00130168 -0.0336906 -0.09512)
(-0.00398871 -0.140631 -0.0394775)
(-0.015129 -0.498439 -0.00140628)
(-0.0249614 -0.72833 0.00958201)
(-0.0175193 -0.826181 0.00938222)
(-0.00422447 -0.869992 -0.0793676)
(0.00132887 -0.864458 -0.258604)
(0.00541608 -0.840392 -0.360617)
(0.0128102 -0.827594 -0.33362)
(0.079295 -0.762861 -0.151157)
(0.325857 -0.501837 -0.218342)
(0.196567 -0.695926 -0.0186071)
(0.0481704 -0.838479 -0.218443)
(-0.121726 -0.637214 -0.743352)
(0.0542048 -0.221799 -0.973408)
(0.00977061 -0.0835477 -0.996426)
(-8.25466e-05 0.00036911 0.000479817)
(-7.73306e-05 0.00047664 0.000574986)
(1.97898e-05 0.000522772 0.000552173)
(3.39073e-05 0.000600508 0.000548373)
(3.66292e-05 0.000681809 0.000540978)
(3.77442e-05 0.000759517 0.000519507)
(4.56896e-05 0.000848475 0.000501127)
(5.74583e-05 0.000962188 0.000488997)
(7.35145e-05 0.00111006 0.000490871)
(9.37292e-05 0.00129567 0.000512063)
(0.000117251 0.00152307 0.000556558)
(0.000149203 0.00179175 0.000618224)
(0.000195741 0.0021275 0.000696631)
(0.000262614 0.00257043 0.000775304)
(0.00035127 0.00318312 0.000833901)
(0.000456606 0.00400148 0.000806788)
(0.000561681 0.00506215 0.000600038)
(0.000637101 0.00633549 0.000119325)
(0.000649327 0.00772505 -0.000598724)
(0.000561772 0.00903343 -0.00127983)
(0.00033023 0.00993394 -0.00167999)
(1.29964e-05 0.00997048 -0.00192914)
(-0.000237074 0.00938245 -0.00197079)
(-0.000431773 0.00937466 -0.00199461)
(-0.000598616 0.00960559 -0.00179871)
(-0.000652163 0.00964957 -0.0016042)
(-0.000574363 0.00954408 -0.00154275)
(-0.000410996 0.00937508 -0.00158081)
(-0.000216295 0.00930493 -0.00176261)
(-5.46099e-05 0.00930655 -0.00200976)
(4.73386e-05 0.00937147 -0.00233673)
(9.79599e-05 0.00942053 -0.00276326)
(9.6136e-05 0.00934283 -0.00323485)
(5.14366e-05 0.00905362 -0.00367463)
(-2.7653e-05 0.00849603 -0.00399711)
(-0.000135838 0.00763148 -0.00412971)
(-0.000268564 0.00643309 -0.00402083)
(-0.000424026 0.00491034 -0.00373321)
(-0.000612882 0.00276492 -0.00525549)
(-0.00104112 -0.000268171 -0.0111703)
(-0.00911285 -0.00130723 -0.0227288)
(-0.0309154 0.00459627 -0.0387393)
(-0.0398328 -0.0015597 -0.0684827)
(-0.0138097 -0.0637301 -0.211232)
(0.0102347 -0.166214 -0.627581)
(0.00479698 -0.204859 -0.871115)
(0.000652843 -0.232628 -0.915694)
(-0.0029238 -0.297473 -0.903867)
(-0.0163947 -0.538828 -0.794635)
(-0.0170156 -0.798789 -0.579629)
(-0.00476027 -0.719264 -0.690674)
(-0.000119971 -0.480287 -0.876285)
(0.000513345 -0.339952 -0.940131)
(0.000295624 -0.25021 -0.967985)
(0.000922683 -0.209234 -0.977062)
(0.015052 -0.339511 -0.864088)
(-0.957179 -0.102404 -0.0351871)
(-0.995652 -0.0891044 0.00138866)
(-0.401422 -0.890398 -0.214475)
(-0.0090813 -0.494512 -0.869123)
(-6.57532e-05 0.0010002 0.000435497)
(-7.2862e-05 0.00100133 0.000377855)
(-5.26929e-06 0.0010903 0.000297561)
(3.75243e-06 0.00120528 0.000203027)
(-2.57984e-06 0.00131221 9.94988e-05)
(-7.0181e-06 0.00142598 -2.07437e-05)
(-1.33983e-06 0.00157085 -0.000186931)
(1.02076e-05 0.00174699 -0.000437963)
(2.88073e-05 0.00198684 -0.000682311)
(5.30539e-05 0.00231542 -0.000790061)
(7.76433e-05 0.00266965 -0.000923076)
(0.000101818 0.00302406 -0.0010821)
(0.000122923 0.00342735 -0.00128507)
(0.000133885 0.00394311 -0.00155173)
(0.000113198 0.00467029 -0.00191575)
(2.66408e-05 0.00564178 -0.00239784)
(-0.000141693 0.00690463 -0.00301732)
(-0.000337566 0.00839706 -0.00375267)
(-0.00039833 0.00858108 -0.00938951)
(-0.000239192 0.00382778 -0.0304821)
(-7.2556e-05 -0.00947767 -0.076185)
(-1.74707e-05 -0.0287132 -0.135021)
(-4.48803e-05 -0.0561746 -0.220061)
(-2.66675e-05 -0.0846051 -0.317998)
(2.72965e-05 -0.0961393 -0.361192)
(1.75469e-05 -0.0880174 -0.33247)
(-2.10041e-06 -0.0816939 -0.317334)
(-1.6484e-05 -0.0825686 -0.324845)
(-1.68929e-05 -0.0887183 -0.350067)
(1.48855e-06 -0.0965295 -0.381068)
(4.54202e-06 -0.104113 -0.410569)
(-1.70931e-06 -0.110342 -0.435498)
(-5.05952e-06 -0.114609 -0.453811)
(-6.08597e-06 -0.116036 -0.462441)
(-6.12224e-06 -0.114999 -0.462538)
(-6.0398e-06 -0.11242 -0.456813)
(-2.74784e-05 -0.105395 -0.434972)
(-0.000638976 -0.0921679 -0.391738)
(-0.00279259 -0.0745625 -0.336422)
(-0.00670182 -0.0525911 -0.277442)
(-0.011282 -0.0306798 -0.235127)
(-0.0200263 -0.0186582 -0.205711)
(-0.0898923 -0.0527804 -0.159468)
(-0.388045 -0.289232 -0.203561)
(-0.625118 -0.411731 -0.372207)
(-0.472736 -0.392886 -0.701664)
(-0.13809 -0.41857 -0.866647)
(-0.0236461 -0.544058 -0.823227)
(-0.073233 -0.832815 -0.538539)
(-0.131628 -0.977056 -0.160146)
(-0.117555 -0.985804 -0.118108)
(-0.0645916 -0.961017 -0.26867)
(-0.0281918 -0.860979 -0.507826)
(0.0084991 -0.817697 -0.57557)
(0.0187102 -0.520442 -0.853683)
(0.00695875 -0.293522 -0.955915)
(0.000222514 -0.262478 -0.964884)
(-0.95754 -0.0759553 -0.277327)
(-0.998676 -0.0505433 0.00941192)
(-0.0356547 -0.781206 -0.623254)
(-0.000107464 0.00131945 -0.000128869)
(-0.000136319 0.00158766 -0.00038205)
(-5.49486e-05 0.00193804 -0.0006685)
(-5.22728e-05 0.00238164 -0.000832316)
(-6.21442e-05 0.0027868 -0.000877466)
(-8.92438e-05 0.00310349 -0.00102375)
(-0.00014043 0.00313787 -0.00200833)
(-0.000162253 0.00329971 -0.00324772)
(-7.52306e-05 0.00350351 -0.0048234)
(-2.52818e-07 0.00373192 -0.00709642)
(-2.8572e-07 0.00414215 -0.00959217)
(-3.12094e-07 0.00495799 -0.0116036)
(-3.33379e-07 0.00658393 -0.0126637)
(-3.54028e-07 0.00946244 -0.0125923)
(-3.78572e-07 0.0140762 -0.0111637)
(-4.09024e-07 0.0208078 -0.00889486)
(-7.6633e-07 0.0132267 -0.0569727)
(-0.00173255 -0.0459131 -0.253759)
(-0.00524029 -0.148703 -0.55771)
(-0.00691511 -0.222731 -0.765235)
(-0.00643554 -0.255085 -0.853989)
(-0.00716476 -0.26647 -0.886297)
(-0.00906171 -0.269131 -0.900588)
(-0.00641287 -0.27413 -0.913625)
(-0.000612227 -0.286634 -0.918765)
(0.00175831 -0.28619 -0.920604)
(0.000296699 -0.275849 -0.922489)
(-0.00137387 -0.271895 -0.923164)
(-0.00245482 -0.270181 -0.924325)
(-0.00260884 -0.271175 -0.927773)
(-0.00224465 -0.273402 -0.931695)
(-0.00173677 -0.275035 -0.934411)
(-0.0011015 -0.275388 -0.93544)
(-0.000369746 -0.275229 -0.93528)
(0.000265541 -0.27367 -0.933441)
(0.00146638 -0.270641 -0.928996)
(0.00378294 -0.269926 -0.922565)
(0.00623686 -0.268908 -0.912953)
(0.00801416 -0.264696 -0.898577)
(0.00833142 -0.251037 -0.878206)
(0.00572743 -0.234669 -0.856002)
(0.00239247 -0.213992 -0.84371)
(-0.0191738 -0.204026 -0.842498)
(-0.130188 -0.26416 -0.831128)
(-0.400394 -0.589853 -0.580016)
(-0.327127 -0.919695 -0.0326459)
(-0.13348 -0.983506 0.0677326)
(-0.0484438 -0.994749 0.0733246)
(-0.0283087 -0.995717 0.082444)
(-0.0634765 -0.993606 0.0915272)
(-0.199423 -0.976099 0.085691)
(-0.333487 -0.941118 0.05515)
(-0.20688 -0.978329 -0.00764551)
(-0.0957654 -0.984536 -0.146669)
(-0.00875209 -0.924327 -0.381497)
(0.053257 -0.826809 -0.559954)
(0.0676068 -0.604613 -0.793643)
(0.0372007 -0.411683 -0.910562)
(-0.998591 -0.020118 -0.0490957)
(-0.0720255 -0.791909 -0.606376)
(-0.000169272 0.00252463 -0.000880697)
(-0.000291209 0.00428176 -0.00128503)
(-0.000174756 0.00528934 -0.0058508)
(-5.25834e-05 0.00509192 -0.0166427)
(-5.57555e-05 0.00390356 -0.032487)
(-0.000484572 -0.000707117 -0.0615016)
(-0.000941481 -0.00504795 -0.09098)
(-0.0011529 -0.00744354 -0.118719)
(-0.00152881 -0.00788803 -0.147264)
(-0.0018143 -0.00838132 -0.184144)
(-0.00161847 -0.00885601 -0.224961)
(-0.000938881 -0.0294016 -0.317349)
(-0.000174205 -0.0842245 -0.479406)
(0.000300509 -0.150052 -0.648892)
(0.000366109 -0.210355 -0.78628)
(-0.00211959 -0.253551 -0.873162)
(-0.00619715 -0.280546 -0.919175)
(-0.00941858 -0.294945 -0.939076)
(-0.0104994 -0.30197 -0.946536)
(-0.00923903 -0.305142 -0.949156)
(-0.00685285 -0.306055 -0.950136)
(-0.00507096 -0.305571 -0.950596)
(-0.00755759 -0.300196 -0.951751)
(-0.0173923 -0.290919 -0.952576)
(-0.015378 -0.336175 -0.935817)
(-0.000847649 -0.376576 -0.920911)
(0.00257811 -0.358976 -0.928144)
(-0.000337391 -0.30446 -0.947627)
(-0.00694181 -0.298302 -0.949748)
(-0.0143707 -0.292468 -0.951752)
(-0.0144877 -0.291888 -0.952493)
(-0.00798992 -0.293434 -0.952774)
(-0.00158466 -0.295652 -0.952653)
(0.00367959 -0.296877 -0.952524)
(0.00923929 -0.297268 -0.9524)
(0.0118402 -0.298914 -0.951714)
(0.0126125 -0.300977 -0.950711)
(0.0140865 -0.302632 -0.949776)
(0.015633 -0.302569 -0.949086)
(0.015071 -0.300773 -0.948553)
(0.010524 -0.297035 -0.948404)
(0.00400288 -0.293018 -0.948865)
(-0.00272886 -0.282282 -0.952107)
(-0.0102357 -0.272589 -0.95486)
(-0.022793 -0.283838 -0.950513)
(-0.0535849 -0.374376 -0.916762)
(-0.0956954 -0.661953 -0.733741)
(-0.0716487 -0.946197 -0.305292)
(-0.0541018 -0.992498 -0.0978718)
(-0.128018 -0.989996 -0.0492352)
(-0.267333 -0.963389 0.0071884)
(-0.52583 -0.824103 0.210315)
(-0.933826 -0.0275554 0.356603)
(-0.995399 0.001473 0.0957253)
(-0.457477 -0.879705 -0.129723)
(-0.031564 -0.980687 -0.193015)
(0.0406733 -0.877541 -0.477772)
(0.0307351 -0.631637 -0.774654)
(-0.978035 -0.103796 -0.180761)
(-0.271035 -0.712728 -0.646961)
(-0.000183254 -0.00171031 -0.0197696)
(-0.00208646 -0.0197702 -0.106329)
(-0.00570628 -0.0436366 -0.232013)
(-0.0081168 -0.0684203 -0.390002)
(-0.011579 -0.0823122 -0.505594)
(-0.0131602 -0.0859793 -0.589492)
(-0.0107229 -0.102318 -0.676414)
(-0.00824727 -0.127936 -0.757641)
(-0.00700862 -0.160555 -0.826612)
(-0.00588531 -0.191765 -0.876267)
(-0.00867812 -0.209231 -0.901625)
(-0.0173137 -0.227063 -0.916832)
(-0.0275911 -0.281684 -0.918994)
(-0.040123 -0.31972 -0.920151)
(-0.055374 -0.334962 -0.924823)
(-0.0697217 -0.347412 -0.927201)
(-0.0816592 -0.373627 -0.920369)
(-0.0982057 -0.437867 -0.891839)
(-0.111833 -0.581143 -0.804987)
(-0.0819863 -0.795029 -0.600287)
(-0.0277482 -0.903522 -0.427224)
(0.00332091 -0.932481 -0.360907)
(0.0210179 -0.942059 -0.33446)
(0.0329307 -0.935773 -0.350428)
(0.0390595 -0.709462 -0.701873)
(-0.0211303 -0.454309 -0.888413)
(-0.0172214 -0.513492 -0.85582)
(-0.0154191 -0.567132 -0.821461)
(-0.0167938 -0.555998 -0.829151)
(-0.0345424 -0.468597 -0.881021)
(-0.0582013 -0.40172 -0.912436)
(-0.0648025 -0.365023 -0.927534)
(-0.0463375 -0.350473 -0.934448)
(-0.0174463 -0.34369 -0.938111)
(0.00590609 -0.340633 -0.939465)
(0.0213964 -0.346089 -0.937317)
(0.0226521 -0.375013 -0.926193)
(0.0219619 -0.35165 -0.935378)
(0.0214978 -0.365329 -0.930203)
(0.0195532 -0.380128 -0.92429)
(0.0150305 -0.402201 -0.914874)
(0.00489754 -0.398641 -0.916473)
(-0.000128253 -0.337083 -0.94095)
(0.00238698 -0.297878 -0.95419)
(0.00335286 -0.290917 -0.956279)
(-0.00515737 -0.316177 -0.947938)
(-0.033166 -0.357956 -0.93207)
(-0.0642079 -0.362901 -0.928588)
(-0.0947724 -0.368012 -0.924285)
(-0.201202 -0.397296 -0.894971)
(-0.284161 -0.40212 -0.870231)
(-0.128871 -0.314973 -0.940292)
(-0.335543 -0.221875 -0.915506)
(-0.955422 0.28587 0.07366)
(-0.814597 0.311557 0.489245)
(-0.908918 -0.035892 0.415424)
(-0.200275 -0.97644 0.080333)
(-0.115741 -0.707594 -0.697076)
(-0.693902 -0.376109 -0.614037)
(-0.580846 -0.697273 -0.420033)
(-0.0468256 -0.00225337 -0.0316924)
(-0.111754 0.00513628 -0.18114)
(-0.155992 0.0906907 -0.365691)
(-0.156998 0.252868 -0.488043)
(-0.147286 0.41789 -0.45747)
(-0.179575 0.649132 -0.0338328)
(-0.243038 0.68918 -0.0394903)
(-0.334544 0.70692 -0.0521106)
(-0.449299 0.692414 -0.0727741)
(-0.486379 0.700182 -0.104548)
(-0.491771 0.715634 -0.132708)
(-0.0156197 -0.445788 -0.892089)
(-0.0109501 -0.8007 -0.597182)
(-0.0218052 -0.653964 -0.754731)
(-0.0488047 -0.40027 -0.913906)
(-0.0702778 -0.362325 -0.928702)
(-0.0704967 -0.379952 -0.921965)
(-0.0633063 -0.511864 -0.856515)
(-0.0517515 -0.822734 -0.565888)
(-0.0344491 -0.994437 -0.0992063)
(-0.0153575 -0.995595 0.0923781)
(-0.00314368 -0.991418 0.13065)
(0.0062152 -0.992614 0.121112)
(0.0142367 -0.993552 0.112406)
(0.0318766 -0.996983 0.0702341)
(0.0436493 -0.662193 -0.747107)
(-0.0186696 -0.186322 -0.981529)
(-0.0209687 -0.496017 -0.86736)
(-0.0224122 -0.558154 -0.828783)
(-0.0345108 -0.537808 -0.841745)
(-0.0637206 -0.443471 -0.893441)
(-0.0859432 -0.347425 -0.93323)
(-0.0875664 -0.246362 -0.964767)
(-0.0673136 -0.172636 -0.98232)
(-0.0553053 -0.215685 -0.974545)
(-0.049694 -0.848883 -0.525796)
(-0.036065 -0.820811 -0.56978)
(-0.0167862 -0.481493 -0.876215)
(-0.00778482 -0.30508 -0.952238)
(0.0159812 -0.192834 -0.98104)
(0.0310922 -0.16899 -0.985035)
(-0.00368483 -0.231376 -0.972764)
(-0.0315727 -0.234312 -0.971567)
(-0.00881856 -0.185441 -0.982543)
(0.0392893 -0.149432 -0.987918)
(0.0462264 -0.177561 -0.982946)
(0.0124279 -0.194668 -0.980715)
(-0.019625 -0.197042 -0.980128)
(-0.0597758 -0.191574 -0.979584)
(-0.234032 -0.214396 -0.948214)
(-0.890775 -0.297112 -0.343768)
(-0.866226 -0.351532 -0.355003)
(-0.604656 0.564567 -0.561725)
(0.241597 0.90212 0.357462)
(0.0670007 0.698182 0.712772)
(-0.300036 0.622141 0.72313)
(-0.818821 0.449967 0.356456)
(-0.970611 -0.105571 -0.216262)
(-0.457979 -0.569522 -0.682568)
(-0.754612 -0.647523 -0.106184)
(-0.0902796 0.0129641 0.0130407)
(-0.219149 0.127089 0.0646899)
(-0.230659 0.427751 0.111365)
(-0.0851405 0.709923 0.1321)
(0.1044 0.798218 0.147955)
(0.00192871 -0.9669 0.245105)
(0.000354719 -0.969689 0.242285)
(0.000353968 -0.969977 0.242527)
(0.000354496 -0.97194 0.234994)
(0.000354223 -0.971683 0.236212)
(-0.00122399 -0.969533 0.244925)
(-0.00204649 -0.969316 0.245782)
(-0.00103156 -0.97047 0.241193)
(-0.000464196 -0.974072 0.226205)
(-0.00619841 -0.993907 0.109889)
(-0.0407144 -0.401004 -0.915131)
(-0.0223411 -0.132595 -0.990906)
(-0.0100661 -0.124777 -0.992129)
(-0.0049141 -0.1615 -0.986858)
(-0.00256309 -0.360355 -0.932809)
(-0.0017504 -0.898401 -0.439168)
(-0.0016281 -0.996564 0.0827929)
(0.000943071 -0.984406 0.175902)
(0.00757032 -0.984459 0.175441)
(0.0212637 -0.999038 0.0382311)
(0.0267533 -0.526614 -0.849648)
(-0.00857264 -0.0821206 -0.99654)
(-0.0144016 -0.0629069 -0.997848)
(-0.0135495 -0.0465719 -0.998718)
(-0.0154767 -0.0445116 -0.998735)
(-0.023132 -0.0945341 -0.995086)
(-0.0455061 -0.176678 -0.983055)
(-0.0641616 -0.160962 -0.984734)
(-0.039785 -0.0796018 -0.995915)
(-0.00471768 -0.0980729 -0.995059)
(-0.0813689 -0.162858 -0.983182)
(-0.505823 -0.180401 -0.843464)
(-0.476734 -0.19482 -0.857109)
(-0.063518 -0.174541 -0.982536)
(0.187426 -0.11008 -0.976039)
(0.121267 0.00329598 -0.992573)
(-0.0263451 0.0208917 -0.999401)
(-0.0393539 -0.0519463 -0.997847)
(-0.0142807 -0.0812445 -0.99657)
(0.00638222 -0.0693011 -0.997556)
(0.00280081 -0.0215939 -0.999746)
(-0.00996134 0.0398642 -0.99914)
(-0.00681364 0.0996483 -0.994983)
(0.0161573 0.200381 -0.979564)
(0.0330563 0.492831 -0.86946)
(-0.0848728 0.973488 -0.212194)
(-0.0734408 0.61177 0.787593)
(0.015816 0.422156 0.906368)
(0.0815129 0.393056 0.915877)
(0.0822431 0.416285 0.905471)
(-0.822166 0.423454 0.380373)
(-0.986786 0.111578 0.117484)
(-0.994501 -0.0748353 0.0732579)
(-0.665043 -0.600929 -0.443398)
(-0.761323 -0.641114 0.0967474)
(0.000730805 -0.920729 -0.390181)
(0.000730864 -0.920815 -0.389982)
(0.000730922 -0.920902 -0.389784)
(0.000730978 -0.920988 -0.389584)
(0.000731032 -0.921073 -0.389385)
(0.000731016 -0.921017 -0.389517)
(0.000730562 -0.920151 -0.391559)
(0.000583816 -0.918707 -0.394935)
(0.0005119 -0.918442 -0.395553)
(0.000763004 -0.919234 -0.393711)
(0.000823534 -0.919591 -0.392875)
(0.000422447 -0.920409 -0.390955)
(-0.00346856 -0.918403 -0.395624)
(-0.0211604 -0.911272 -0.411247)
(-0.049235 -0.907587 -0.416957)
(-0.0578512 -0.910638 -0.409131)
(-0.0400755 -0.913948 -0.403846)
(-0.0170946 -0.91529 -0.402432)
(-0.0055329 -0.912384 -0.409297)
(0.00268803 -0.907651 -0.419717)
(0.0127746 -0.903228 -0.428972)
(0.0207898 -0.904036 -0.42695)
(0.012001 -0.913149 -0.407448)
(0.00536927 -0.916029 -0.401076)
(0.00418548 -0.915833 -0.401537)
(0.0039979 -0.915361 -0.402614)
(0.00351251 -0.91496 -0.403529)
(0.00286221 -0.914845 -0.403795)
(0.00228086 -0.915281 -0.402808)
(0.00147817 -0.916669 -0.399642)
(0.000657874 -0.919058 -0.394119)
(-0.000570165 -0.920902 -0.38979)
(-0.00498391 -0.91844 -0.39552)
(-0.00633107 -0.914114 -0.405394)
(-0.00287067 -0.907633 -0.419743)
(-0.00316944 -0.901058 -0.433676)
(-0.006996 -0.900894 -0.433973)
(-0.00840462 -0.913576 -0.406574)
(-0.00616452 -0.915224 -0.402893)
(-0.00399573 -0.915359 -0.402616)
(-0.00290526 -0.91643 -0.400183)
(-0.00212788 -0.919124 -0.393962)
(-0.00154004 -0.920792 -0.39005)
(-0.00127481 -0.921297 -0.388858)
(-0.00103311 -0.921315 -0.388816)
(-0.00044307 -0.921261 -0.388944)
(0.000709881 -0.921427 -0.38855)
(0.00271004 -0.921952 -0.387294)
(0.00539448 -0.922969 -0.384835)
(0.00703895 -0.924583 -0.380915)
(0.00470146 -0.925486 -0.378752)
(0.00126209 -0.925845 -0.377899)
(0.000127282 -0.924922 -0.380155)
(-0.000300556 -0.922267 -0.386552)
(-0.0047945 -0.919663 -0.392677)
(-0.0632808 -0.918408 -0.390539)
(-0.460108 -0.811382 -0.360499)
(-0.682906 -0.66591 -0.300338)
(-0.735535 -0.661032 -0.148406)
(-0.65179 -0.758368 0.00692276)
(0.000674932 -0.973611 -0.228206)
(0.000674904 -0.973479 -0.228767)
(0.000674877 -0.973347 -0.229328)
(0.000674845 -0.973216 -0.229887)
(0.000524286 -0.973084 -0.230444)
(6.47583e-05 -0.972959 -0.230976)
(-0.000599051 -0.972852 -0.231424)
(-0.00166339 -0.972761 -0.231803)
(-0.00205668 -0.972686 -0.232113)
(2.04674e-05 -0.972488 -0.232952)
(0.00167763 -0.97235 -0.233523)
(0.00181841 -0.972183 -0.234214)
(0.000572442 -0.972085 -0.234628)
(-0.00419352 -0.972555 -0.232628)
(-0.0246916 -0.975301 -0.219482)
(-0.0599958 -0.975175 -0.213143)
(-0.0816399 -0.966144 -0.244743)
(-0.0529704 -0.95854 -0.279989)
(-0.0178122 -0.956242 -0.292033)
(-0.00240264 -0.954798 -0.297246)
(0.0111073 -0.95392 -0.299854)
(0.0222584 -0.957224 -0.288489)
(0.0180008 -0.967343 -0.252829)
(0.00549541 -0.970798 -0.239835)
(0.00193735 -0.970818 -0.239808)
(0.00124617 -0.970478 -0.241187)
(0.00117018 -0.970073 -0.242812)
(0.00166854 -0.969685 -0.244354)
(0.00292152 -0.969355 -0.245646)
(0.00442849 -0.969179 -0.246318)
(0.0045033 -0.969244 -0.246059)
(0.00258371 -0.969342 -0.245702)
(0.000547908 -0.969309 -0.245845)
(-0.00137839 -0.969143 -0.246493)
(-0.0057473 -0.967901 -0.251261)
(-0.00752615 -0.96773 -0.25187)
(-0.00859639 -0.968782 -0.24776)
(-0.00962429 -0.97007 -0.242629)
(-0.00748793 -0.970484 -0.241044)
(-0.00367076 -0.97002 -0.242994)
(-0.00106751 -0.969261 -0.246032)
(4.6601e-05 -0.968794 -0.247867)
(0.000369279 -0.968692 -0.248264)
(0.000432549 -0.968749 -0.248042)
(0.000445691 -0.96882 -0.247764)
(0.000607687 -0.968804 -0.247825)
(0.00114678 -0.968614 -0.248565)
(0.00207553 -0.968263 -0.249923)
(0.00316866 -0.967778 -0.251783)
(0.00313204 -0.967292 -0.253647)
(0.00149159 -0.966888 -0.255197)
(-0.000943336 -0.966587 -0.256335)
(-0.00239643 -0.965585 -0.260074)
(-0.00128324 -0.965492 -0.26043)
(-0.000440299 -0.966052 -0.258348)
(-0.0406323 -0.966816 -0.25222)
(-0.428896 -0.873694 -0.229581)
(-0.617767 -0.747133 -0.24527)
(-0.675283 -0.721995 -0.150717)
(-0.613847 -0.73316 -0.292691)
(0.000240414 -0.982004 -0.188854)
(0.000240525 -0.9818 -0.189907)
(0.00024063 -0.981594 -0.190972)
(0.00024073 -0.981387 -0.192035)
(0.000240827 -0.98118 -0.193092)
(0.000240917 -0.981049 -0.193753)
(0.000241016 -0.981223 -0.192869)
(0.000224215 -0.981497 -0.191472)
(-9.23463e-05 -0.981283 -0.192569)
(0.000202077 -0.980782 -0.195105)
(0.000339293 -0.9804 -0.197017)
(0.000228645 -0.979959 -0.1992)
(-0.000103703 -0.979981 -0.199091)
(-0.0111201 -0.988438 -0.151168)
(-0.597422 -0.113824 0.793726)
(-0.80713 -0.509149 0.298791)
(-0.417655 -0.907455 -0.0456766)
(-0.154326 -0.977174 -0.145991)
(-0.0313131 -0.980522 -0.193898)
(-0.00350537 -0.964622 -0.263612)
(0.0153467 -0.940764 -0.338714)
(0.0386137 -0.908219 -0.41671)
(0.0429223 -0.914304 -0.402747)
(0.0109719 -0.972435 -0.232916)
(0.00206778 -0.979596 -0.200966)
(0.000825553 -0.979347 -0.202185)
(0.000342328 -0.97909 -0.203425)
(0.000310672 -0.978704 -0.205273)
(0.000810864 -0.978071 -0.20827)
(0.00162193 -0.97721 -0.212266)
(0.00189151 -0.976123 -0.217208)
(0.00113013 -0.975488 -0.220048)
(-1.92349e-05 -0.975429 -0.220311)
(-0.00213588 -0.975138 -0.221587)
(-0.00708031 -0.967545 -0.252588)
(0.00457073 -0.957174 -0.289444)
(0.0130384 -0.993772 -0.110581)
(0.00406291 -0.997452 -0.0711475)
(-0.000521011 -0.989887 -0.141839)
(-0.00110128 -0.98259 -0.18578)
(-0.000824439 -0.976703 -0.214592)
(-0.000381736 -0.973077 -0.230477)
(-0.000216555 -0.972997 -0.230818)
(-0.000231611 -0.973193 -0.229988)
(-0.000251115 -0.974268 -0.225393)
(-0.000234144 -0.97425 -0.225471)
(-1.19316e-05 -0.973789 -0.227454)
(0.000503831 -0.973395 -0.229132)
(0.00162325 -0.972859 -0.231393)
(0.00277964 -0.97184 -0.235623)
(0.00187691 -0.970918 -0.239402)
(-0.00502213 -0.969858 -0.243618)
(-0.0072118 -0.968962 -0.247101)
(0.00198723 -0.973708 -0.227788)
(0.00872935 -0.978407 -0.206498)
(-0.0683892 -0.973352 -0.218877)
(-0.517891 -0.834545 -0.187944)
(-0.577662 -0.799165 -0.166261)
(-0.66904 -0.739199 -0.0772693)
(-0.99812 0.0145523 -0.0595398)
(-0.0132352 0.814262 -0.307252)
(-0.554387 0.0653703 -0.750607)
(-0.081959 -0.78019 -0.615123)
(-0.108209 -0.530874 -0.836189)
(0.059805 -0.499932 -0.861384)
(0.017348 -0.806509 -0.590215)
(8.8154e-05 -0.856728 -0.515534)
(1.32261e-05 -0.880666 -0.473671)
(-0.000352843 -0.892592 -0.450848)
(-0.000383962 -0.898146 -0.43969)
(-0.00053481 -0.895791 -0.444468)
(-0.000691204 -0.890564 -0.454848)
(-0.00159815 -0.798525 -0.601896)
(-0.0336954 0.0170785 -0.999139)
(-0.318562 -0.00189579 -0.947626)
(-0.185802 -0.621506 0.76099)
(-0.135802 -0.517107 0.84507)
(-0.334029 -0.422856 0.842386)
(-0.697788 -0.32647 0.63758)
(-0.761592 -0.636254 0.123117)
(-0.0326951 -0.818402 -0.573715)
(0.0385644 -0.776579 -0.628838)
(0.0590373 -0.763921 -0.642604)
(0.0736693 -0.765072 -0.639717)
(0.0773595 -0.811182 -0.579654)
(0.00299438 -0.946167 -0.323655)
(-0.00563232 -0.945495 -0.32558)
(-0.0131072 -0.940896 -0.338434)
(-0.00929238 -0.938301 -0.345686)
(0.00203824 -0.92934 -0.369211)
(0.0146002 -0.91517 -0.402793)
(0.0280024 -0.90714 -0.419879)
(-0.0390713 -0.960035 -0.27704)
(-0.777759 -0.469485 0.417776)
(-0.917474 0.0252515 -0.396736)
(0.64593 -0.324702 -0.69076)
(0.301314 -0.826668 -0.475159)
(0.0756807 -0.942944 -0.324181)
(0.00390147 -0.970068 -0.242727)
(-0.156278 -0.961662 -0.225262)
(-0.710053 -0.679669 -0.183903)
(-0.804121 0.554064 -0.215214)
(0.108607 -0.188967 -0.975931)
(0.395732 -0.56244 -0.725959)
(0.358409 -0.914678 -0.18673)
(-0.0202655 -0.980889 0.19339)
(-0.0563499 -0.951641 0.301923)
(0.118836 -0.976782 0.178117)
(0.147333 -0.942168 -0.300943)
(0.0473235 -0.91638 -0.397442)
(-0.115186 -0.769584 -0.628032)
(-0.284164 -0.358397 -0.88924)
(-0.000976493 -0.822747 -0.568283)
(0.373093 -0.855193 0.359696)
(0.2435 -0.846377 0.473561)
(-0.798656 -0.577516 -0.169093)
(-0.943762 -0.31299 -0.106532)
(-0.787894 -0.59105 -0.172868)
(-0.740124 -0.67113 -0.0424284)
(-0.93561 -0.353034 0.00135465)
(-0.420024 0.810708 0.150049)
(-0.874626 0.431857 0.0201425)
(-0.258032 -0.784863 0.556569)
(-0.168188 -0.469953 -0.864608)
(-0.149177 -0.395692 -0.905216)
(-0.118645 -0.856406 -0.501683)
(-0.0572439 -0.997702 -0.0324565)
(-0.00751367 -0.970483 0.240914)
(0.00267702 -0.937694 0.34743)
(0.00043541 -0.939821 0.341657)
(-0.00384402 -0.99213 0.125129)
(-0.00903917 -0.808189 -0.588848)
(-0.00638809 -0.325739 -0.945436)
(-0.00218448 -0.280928 -0.959725)
(0.00525142 -0.27748 -0.960714)
(0.0113713 -0.332803 -0.942919)
(-0.187803 -0.951905 0.241967)
(-0.391682 -0.696211 0.601547)
(-0.56995 -0.374642 0.731299)
(-0.525994 -0.425432 0.736436)
(-0.286701 -0.799759 0.527435)
(-0.0732367 -0.99689 0.0291089)
(0.120445 -0.899317 -0.420383)
(0.248998 -0.695473 -0.674031)
(0.391799 -0.511627 -0.764677)
(0.451878 -0.789023 -0.416227)
(0.00797468 -0.937661 0.347451)
(-0.00105941 -0.930281 0.366838)
(-0.00587516 -0.927664 0.373362)
(-0.00842382 -0.928343 0.371621)
(-0.00104442 -0.93389 0.357549)
(0.0213576 -0.947202 0.319901)
(0.0533713 -0.96716 0.248391)
(-0.768523 -0.566195 0.29774)
(-0.644615 0.107495 0.75684)
(0.0218361 -0.250396 0.967783)
(0.303141 -0.935448 0.181576)
(0.179613 -0.965202 0.189967)
(0.0591081 -0.978416 0.197921)
(0.00159866 -0.984615 0.174619)
(-0.0660339 -0.870003 0.488555)
(-0.341577 -0.505691 0.792193)
(-0.40439 -0.408543 0.818243)
(0.304026 -0.651632 0.694909)
(0.435425 -0.889522 0.138268)
(0.143833 -0.979833 0.138574)
(-0.106327 -0.962201 0.250634)
(-0.388582 -0.915855 -0.100791)
(-0.0982843 -0.645884 -0.757052)
(0.170425 -0.79229 -0.585822)
(-0.111954 -0.91641 -0.38419)
(-0.0979084 -0.497348 -0.861979)
(0.271776 -0.0745122 -0.959446)
(0.335761 -0.416239 -0.844955)
(0.120976 -0.83084 -0.543105)
(-0.777737 -0.625396 -0.0630546)
(-0.938172 -0.341915 0.0541007)
(-0.775405 -0.618453 0.127526)
(-0.728029 -0.684756 0.0328977)
(-0.929765 -0.36815 -0.00169051)
(-0.000107424 -0.982561 0.185926)
(-0.000107477 -0.982509 0.1862)
(-0.000657902 -0.98258 0.185826)
(-0.000989664 -0.982866 0.184308)
(-0.0010012 -0.98328 0.182091)
(-0.00165777 -0.984192 0.177089)
(-0.00304391 -0.985438 0.169997)
(-0.00498784 -0.986579 0.163203)
(-0.00693163 -0.986683 0.162504)
(-0.00987286 -0.987492 0.157356)
(-0.0141154 -0.991863 0.12652)
(-0.018013 -0.999836 -0.00152614)
(-0.0113889 -0.986912 -0.160853)
(0.00865923 -0.961005 -0.276396)
(0.067868 -0.874927 -0.479474)
(0.249689 -0.764966 -0.593699)
(0.465337 -0.853633 -0.233988)
(0.0953847 -0.8755 0.473424)
(-0.485082 0.457115 0.745467)
(-0.737213 0.357874 0.573098)
(-0.805133 -0.0569695 0.590352)
(-0.278061 -0.86455 0.41861)
(-0.00138798 -0.9792 0.20289)
(0.176 -0.984303 -0.0131305)
(0.271221 -0.941593 -0.199604)
(0.257682 -0.933108 -0.250818)
(0.0227964 -0.988583 0.148938)
(-0.000243954 -0.981939 0.189195)
(-0.000250258 -0.981695 0.190461)
(7.7728e-05 -0.981472 0.191603)
(0.000593532 -0.981326 0.19235)
(0.00126566 -0.98133 0.192329)
(0.00127014 -0.981641 0.190733)
(2.67796e-05 -0.982795 0.184695)
(-0.00526464 -0.983762 0.179393)
(-0.0282702 -0.972425 0.231461)
(-0.00351214 -0.904417 0.426606)
(0.0056024 -0.969531 0.244869)
(-0.00138395 -0.982407 0.186728)
(-0.0016917 -0.981833 0.189731)
(-0.00106483 -0.981689 0.190485)
(-0.00120239 -0.981639 0.190743)
(-0.00106874 -0.980326 0.19738)
(-0.000355715 -0.980388 0.197076)
(0.000292603 -0.98145 0.191717)
(0.000135281 -0.981762 0.190114)
(-0.00116766 -0.981391 0.192013)
(-0.00283015 -0.980998 0.193997)
(-0.000959925 -0.98024 0.19781)
(0.00282383 -0.980784 0.195075)
(-0.00281434 -0.981604 0.190905)
(-0.019564 -0.987239 0.158033)
(0.00432565 -0.993588 0.112964)
(0.0252433 -0.988317 0.1503)
(0.00882653 -0.9819 0.18919)
(-0.0809742 -0.978262 0.190906)
(-0.510269 -0.848666 0.139252)
(-0.541868 -0.830783 0.127191)
(-0.633062 -0.767403 0.101609)
(-0.96582 -0.249103 -0.0716826)
(-0.000181121 -0.975763 0.218768)
(-0.0045146 -0.9758 0.218513)
(-0.0359866 -0.975402 0.217249)
(-0.289586 -0.954484 0.0686312)
(-0.580526 -0.425881 -0.693675)
(-0.458075 -0.156237 -0.874942)
(-0.13453 -0.985597 -0.102251)
(-0.046455 -0.992098 0.116522)
(-0.0409904 -0.989396 0.139335)
(-0.0704698 -0.991345 0.11076)
(-0.116134 -0.984836 0.128881)
(-0.0597132 -0.979879 0.190449)
(-0.0119138 -0.977513 0.210539)
(0.017654 -0.976427 0.215126)
(0.0351239 -0.975787 0.215883)
(0.0500404 -0.97533 0.215004)
(0.0479003 -0.975799 0.213356)
(0.012465 -0.976978 0.212967)
(-0.0917094 -0.992487 0.0809467)
(-0.376374 -0.920173 -0.107793)
(-0.459608 -0.0382702 0.887296)
(-0.256389 0.141989 0.956088)
(-0.235655 -0.403025 0.884329)
(-0.028959 -0.906887 0.420378)
(0.109912 -0.966933 0.23013)
(0.27418 -0.947227 0.166093)
(0.416059 -0.892987 0.171664)
(0.0451996 -0.97623 0.211972)
(0.00134014 -0.977208 0.212276)
(0.000622846 -0.977809 0.209494)
(-2.68532e-05 -0.979451 0.201682)
(-0.0014423 -0.980889 0.194562)
(-0.00563481 -0.982471 0.186329)
(-0.0171387 -0.983767 0.178621)
(0.0130319 -0.980393 0.196582)
(0.739196 -0.412125 0.532582)