/*--------------------------------*- C++ -*----------------------------------*\
| =========                 |                                                 |
| \\      /  F ield         | OpenFOAM: The Open Source CFD Toolbox           |
|  \\    /   O peration     | Version:  2.1.1                                 |
|   \\  /    A nd           | Web:      www.OpenFOAM.org                      |
|    \\/     M anipulation  |                                                 |
\*---------------------------------------------------------------------------*/
FoamFile
{
    version     2.0;
    format      ascii;
    class       volScalarField;
    location    "0.0014";
    object      k;
}
// * * * * * * * * * * * * * * * * * * * * * * * * * * * * * * * * * * * * * //

dimensions      [0 2 -2 0 0 0 0];

internalField   nonuniform List<scalar> 
36520
(
0.143268
0.244919
0.472356
0.59157
0.696779
0.777567
0.849684
0.911168
0.963745
1.00712
1.04216
1.07431
1.10502
1.13768
1.16728
1.19066
1.20018
1.19111
1.15959
1.10498
1.02964
0.940442
0.854111
0.77893
0.715764
0.662703
0.615735
0.572553
0.53124
0.491384
0.452758
0.415405
0.379223
0.345213
0.313816
0.285706
0.261307
0.241057
0.225702
0.216691
0.215971
0.226307
0.2511
0.2926
0.350855
0.423748
0.505893
0.584399
0.632489
0.607049
0.536444
0.44381
0.359792
0.334174
0.461889
0.892822
1.5227
1.86102
1.53497
0.754768
0.101026
0.148523
0.188119
0.190976
0.19715
0.199835
0.204557
0.20534
0.204555
0.201152
0.19944
0.200191
0.20452
0.208146
0.207662
0.198865
0.180113
0.152695
0.121235
0.0925871
0.0738325
0.0703694
0.0635447
0.0539937
0.0478131
0.043955
0.0407757
0.0380908
0.0358969
0.0340933
0.0322792
0.0304171
0.02852
0.0265846
0.0249529
0.0237355
0.0230475
0.0229636
0.0237292
0.0259365
0.0304806
0.0385464
0.0515793
0.0707249
0.0967303
0.130401
0.17236
0.222476
0.276327
0.323396
0.372423
0.413636
0.420982
0.366964
0.282063
0.276465
0.389946
0.427084
0.3384
0.442172
0.0516521
0.0492268
0.0539067
0.04815
0.0457308
0.0430822
0.0422043
0.0400937
0.0381519
0.0357039
0.0345658
0.0349291
0.0369948
0.0397591
0.0426664
0.0454918
0.0496678
0.0582187
0.074831
0.102359
0.140549
0.182218
0.14631
0.0695317
0.0242499
0.0104902
0.00657158
0.00516726
0.00454152
0.00427119
0.00417765
0.00419386
0.0043032
0.00451109
0.00481857
0.00524834
0.00584716
0.00670181
0.00796311
0.0099101
0.0129961
0.0179366
0.0257919
0.0379868
0.0565881
0.0849762
0.129107
0.198769
0.309169
0.48817
0.718004
0.970552
1.15065
1.14362
0.903542
0.600911
0.352552
0.504104
0.338903
0.388718
0.0269853
0.0165498
0.0150143
0.0120375
0.0109656
0.0102797
0.0105442
0.0110794
0.0126426
0.0155815
0.02106
0.0301077
0.0446754
0.068161
0.107297
0.172697
0.280482
0.447948
0.683322
0.969339
1.25971
1.47255
1.17913
0.623112
0.240516
0.0982972
0.0528364
0.0355154
0.0262416
0.0199743
0.0159176
0.0137052
0.012739
0.0123943
0.0123898
0.012395
0.0125105
0.0128822
0.0135965
0.0146496
0.016167
0.018836
0.0234933
0.0314257
0.0443896
0.0650888
0.0990484
0.156589
0.257046
0.434878
0.744431
1.16342
1.55445
1.74599
1.65317
1.3368
0.692705
0.597841
0.371695
0.370174
0.0165137
0.00632405
0.0056224
0.00573569
0.00758834
0.0112571
0.0178431
0.0292084
0.0487
0.0809862
0.131442
0.207701
0.323996
0.509296
0.814868
1.31306
2.09929
3.25828
4.76936
6.39132
7.59749
7.87912
6.35929
3.86222
1.85971
0.936804
0.591467
0.454189
0.380508
0.323973
0.28145
0.256457
0.246122
0.240362
0.231827
0.221512
0.212824
0.206588
0.208613
0.219718
0.200974
0.158956
0.0957153
0.0451302
0.046593
0.0573462
0.0772323
0.111386
0.169437
0.267523
0.429362
0.660655
0.925351
0.98687
1.0217
1.05998
0.91047
0.69963
0.451271
0.363772
0.0142117
0.00693782
0.0114815
0.0203149
0.0354663
0.0627421
0.110063
0.192241
0.330413
0.544812
0.840098
1.21689
1.69952
2.3929
3.46326
5.09567
7.49454
10.7921
14.9738
19.5375
22.9474
23.2135
20.3742
14.9064
9.11884
5.65587
4.0502
3.33018
2.95366
2.67996
2.47021
2.36081
2.37411
2.47627
2.597
2.65565
2.67998
2.64378
2.62302
2.62517
2.43963
2.11311
1.5803
0.871454
0.514242
0.377967
0.303124
0.225096
0.194489
0.229642
0.305819
0.412727
0.49577
0.548299
0.573205
0.58989
0.593843
0.535079
0.412061
0.343637
0.0279956
0.0310224
0.0626578
0.118204
0.205094
0.356614
0.608491
1.0239
1.67518
2.56
3.54538
4.53382
5.52643
6.59324
8.2274
10.7727
14.6386
18.952
23.4519
27.9022
31.6121
33.0472
31.8017
28.3062
23.1259
17.8183
14.1052
11.8449
10.4105
9.30956
8.35739
7.65784
7.27481
7.19615
7.40359
7.78832
8.35032
8.83319
9.00932
9.04485
8.82752
8.25535
7.50002
5.88013
4.32553
3.36454
2.72634
2.12336
1.47739
0.93489
0.627253
0.478089
0.455155
0.495187
0.567537
0.557233
0.480786
0.438483
0.382189
0.32145
0.0891339
0.130023
0.267078
0.5089
0.845177
1.3908
2.17199
3.32724
4.79395
6.48926
7.89703
9.20083
10.5352
11.8977
13.3774
15.2951
17.5465
19.615
21.5526
23.6217
25.9192
28.1402
29.2693
28.6562
26.9791
25.4106
23.9409
22.1999
20.1795
17.9494
15.8149
14.0328
12.7715
11.9848
11.6065
11.5555
11.7781
12.2017
12.6084
12.8957
12.9649
12.6477
12.0882
11.0949
9.34856
7.439
5.79072
4.44836
3.39522
2.59441
1.97348
1.49222
1.23063
1.10381
1.05659
0.830468
0.58599
0.474597
0.400353
0.302306
0.172387
0.432959
1.11011
2.01105
2.82572
4.05166
4.86968
5.64569
6.3824
7.0227
7.51313
7.87148
8.37856
9.00655
9.71632
10.5157
11.3626
12.4075
13.5397
14.6776
15.6858
16.385
17.0355
17.7013
18.0105
18.1194
18.2775
18.4837
18.7261
18.7642
18.03
16.508
14.9299
13.6995
12.8137
12.2089
11.8313
11.6308
11.4856
11.3155
11.1268
10.9124
10.5629
10.0206
9.19437
8.07792
6.82232
5.55734
4.37206
3.36533
2.59477
2.05923
1.79819
1.72282
1.6067
1.20973
0.636262
0.40864
0.339815
0.257194
0.129682
0.30029
0.879321
1.42259
1.89017
2.30304
2.62306
2.91281
3.24122
3.69975
4.16169
4.42028
4.54048
4.70117
4.96293
5.32361
5.89958
6.68651
7.50162
8.32276
9.13184
9.77548
10.1987
10.4958
10.761
11.1191
11.6451
12.3127
13.0289
13.7079
14.289
14.6682
14.3864
13.286
11.8646
10.6127
9.69852
9.13262
8.81424
8.6508
8.56845
8.49891
8.358
8.05205
7.57375
6.91369
6.09303
5.16348
4.14818
3.12212
2.21485
1.53121
1.12101
0.896519
0.759034
0.617244
0.399174
0.282525
0.260015
0.230113
0.0904369
0.206815
1.11698
2.0002
2.42348
2.77034
3.02452
3.36057
3.9227
4.69137
5.29847
5.34221
5.06055
4.94181
5.17025
5.66012
6.28358
6.95903
7.68912
8.53934
9.42601
10.2497
10.9103
11.4191
11.9538
12.4407
12.9536
13.5538
14.2576
15.051
15.9064
16.7107
17.132
16.635
15.2116
13.6639
12.4939
11.8133
11.5712
11.6262
11.7679
11.8192
11.7155
11.395
10.8655
10.121
9.08642
7.77524
6.24969
4.65244
3.13817
1.95755
1.30635
1.01581
0.906362
0.796017
0.508466
0.359729
0.325363
0.255795
0.112607
0.248666
0.536963
0.900969
1.2891
2.05055
2.82278
3.85769
4.98639
5.89726
6.20008
5.93818
5.52606
5.37442
5.60766
6.22214
7.06197
7.77195
8.25365
8.72055
9.44857
10.4328
11.7847
13.3376
14.1768
14.6363
15.6332
16.737
17.7098
18.606
19.4138
19.9127
19.7411
18.6068
16.8147
15.0065
13.8088
13.4245
13.5604
13.9284
14.3343
14.5565
14.5011
14.0576
13.2852
12.2157
10.7989
8.96558
6.78444
4.56426
2.61958
1.3574
0.853171
0.789025
0.976028
0.969739
0.64228
0.501063
0.461744
0.320646
0.121158
0.261636
0.464013
0.711664
0.978112
1.57724
2.32126
3.42868
4.82561
6.23843
6.975
6.83853
6.18418
5.57009
5.2825
5.38162
5.71872
6.04563
6.21837
6.34011
6.78718
7.63257
9.02222
11.205
13.9692
15.961
17.0341
17.9287
18.6584
19.3557
19.9954
20.4042
20.2728
19.1356
17.1878
15.2524
13.9988
13.5609
13.6616
14.0779
14.5508
14.7102
14.5593
14.1598
13.4844
12.5005
10.7942
7.9989
4.96065
2.78524
1.47672
0.852734
0.761878
0.926035
1.1169
1.10073
0.705716
0.537831
0.496298
0.33525
0.102006
0.264162
1.35524
2.0253
1.9975
2.32937
2.78949
3.43025
4.17482
4.9196
5.43248
5.55786
5.58504
5.49517
5.27589
5.01707
4.83593
4.89144
5.08206
5.14924
5.20361
5.55214
6.3629
7.8215
10.1874
13.0037
14.9478
16.0069
16.7348
17.264
17.7113
18.1054
18.4048
18.1262
16.6358
14.6844
13.2419
12.3506
11.9521
11.8756
11.8762
11.7833
11.5101
11.0027
10.3534
9.58141
8.56459
7.0684
5.07311
3.10834
1.71964
0.98872
0.720539
0.684355
0.71086
0.66526
0.510347
0.415917
0.367733
0.279622
0.111571
0.159253
0.525675
1.20151
1.45805
1.70531
1.90109
2.05457
2.12046
2.08375
2.16403
2.58246
3.39171
4.36063
5.24457
5.94055
6.48217
7.15885
7.93064
8.36046
8.2268
7.87047
7.51206
7.80525
9.20954
11.8028
14.6146
16.5833
17.5659
18.1794
18.6821
18.9077
18.1796
16.3596
14.471
13.1784
12.4293
11.9675
11.6704
11.4722
11.1321
10.5579
9.74402
8.71345
7.70543
6.70036
5.6107
4.46601
3.30947
2.26615
1.46708
0.960226
0.718476
0.631965
0.58466
0.509098
0.402233
0.345978
0.316361
0.262524
0.132043
0.242275
0.640606
1.28641
1.94334
2.56836
3.23803
4.01956
4.9357
5.99725
7.59249
10.0948
13.052
14.6444
14.4418
14.1979
14.5792
15.5725
16.686
17.3536
17.5944
17.3445
16.6064
16.5025
17.8899
20.142
21.1443
20.8331
20.4964
20.1358
19.2918
17.8385
16.0613
14.5026
13.5002
12.8796
12.2654
11.5791
10.9521
10.2962
9.47593
8.51633
7.54939
6.59118
5.61422
4.6776
3.88873
3.16998
2.49061
1.85713
1.34204
0.996409
0.807143
0.722976
0.669166
0.548872
0.412445
0.349723
0.326669
0.268881
0.0959439
0.147004
0.314823
0.636596
1.13326
1.87562
2.97511
4.77758
7.5126
10.0609
11.4051
11.4231
10.7996
10.5861
11.4624
13.5868
16.8969
20.7278
24.5346
27.4689
28.9077
29.4737
30.0116
29.8855
28.5607
26.2023
24.1769
22.9904
21.7075
19.9198
17.9929
16.2192
14.7457
13.678
12.8757
12.129
11.5361
11.2374
11.0843
10.811
10.2713
9.44404
8.41774
7.20097
5.82334
4.52576
3.53274
2.79578
2.2065
1.76644
1.49435
1.3789
1.41653
1.5108
1.35117
0.97848
0.723878
0.57317
0.449485
0.322298
0.0270918
0.0253277
0.0515521
0.0975583
0.170232
0.290891
0.489618
0.816197
1.30918
1.91083
2.49046
2.89231
2.99729
3.41942
4.36258
5.94034
8.28891
11.1894
14.1076
16.4427
18.1073
19.3894
20.3517
20.5154
19.6832
18.2338
16.5555
14.6311
12.7405
11.131
9.70003
8.3303
7.06651
6.0405
5.30624
4.93768
5.07679
5.43473
5.77709
5.93286
5.70505
5.2911
4.76826
4.17646
3.50554
2.89321
2.57571
2.44653
2.42479
2.51013
2.69772
2.98121
3.18235
2.75481
2.03682
1.45958
1.14049
0.850266
0.568708
0.377605
0.0179474
0.00521269
0.00797591
0.0133851
0.0219841
0.0352078
0.0550743
0.0844967
0.12665
0.180631
0.242973
0.308801
0.354628
0.461708
0.638057
0.922804
1.35085
1.93307
2.64167
3.44079
4.33922
5.40321
6.59978
7.60808
7.60666
6.68022
5.24757
3.89383
2.91706
2.2618
1.73085
1.23935
0.82835
0.55936
0.447629
0.446194
0.472427
0.499293
0.512523
0.511573
0.533704
0.648874
0.682956
0.667453
0.642225
0.679137
0.861614
1.09486
1.35911
1.70525
2.25206
2.97542
3.39245
3.22821
2.65141
2.08675
1.67543
1.18074
0.7154
0.440819
0.0226248
0.00554538
0.00366042
0.00321561
0.00381192
0.00491707
0.00665892
0.0090076
0.0121216
0.0158588
0.0201472
0.0254551
0.0305092
0.0398385
0.0553699
0.0810165
0.122119
0.185258
0.278881
0.414148
0.607567
0.878977
1.22853
1.60897
1.62971
1.30481
0.869097
0.537148
0.339944
0.228002
0.149222
0.0879371
0.049351
0.0326576
0.0313044
0.0338354
0.0377349
0.0426593
0.048748
0.0569243
0.06966
0.090676
0.12268
0.172873
0.250282
0.367438
0.552042
0.845331
1.2894
1.90993
2.80096
3.83965
4.09549
3.68923
2.87078
2.22192
1.58475
1.09312
0.732592
0.479149
0.0359393
0.016551
0.0112145
0.0077283
0.0064621
0.00536452
0.00485854
0.00427814
0.0039819
0.00391483
0.00421199
0.00477666
0.00559539
0.00650164
0.00754535
0.00909831
0.011883
0.016849
0.0253521
0.0393847
0.0619852
0.0970292
0.148256
0.202332
0.197517
0.142783
0.0837141
0.0464094
0.0275765
0.018438
0.013116
0.0100264
0.00894946
0.0092772
0.010484
0.0124045
0.015179
0.0192318
0.0252932
0.0346621
0.0495957
0.0738066
0.113113
0.176506
0.27938
0.446261
0.721547
1.16061
1.81787
2.72718
3.61056
4.15534
4.14918
3.59219
2.72241
1.88334
0.91342
0.715202
0.578772
0.505877
0.0579407
0.0502412
0.0437711
0.0342642
0.0304346
0.0265223
0.0243915
0.0213697
0.0191926
0.0175902
0.0175173
0.0184435
0.0198095
0.0203348
0.019289
0.0168107
0.0136477
0.0106575
0.00842114
0.0074106
0.0078511
0.0100402
0.0144368
0.0179691
0.0166475
0.01204
0.00807759
0.00607872
0.00538971
0.00533393
0.00557421
0.00603313
0.00671349
0.00767362
0.00899864
0.0108206
0.0135115
0.0176652
0.0241796
0.0344982
0.0510345
0.0778497
0.121707
0.193762
0.313911
0.513282
0.838976
1.33743
2.02036
2.81565
3.40601
3.60707
3.41356
2.81749
1.93277
1.22154
0.60186
0.610732
0.443103
0.552639
0.117765
0.150746
0.169166
0.159882
0.158479
0.153884
0.152076
0.146434
0.141877
0.138092
0.138157
0.141229
0.145253
0.146227
0.141556
0.130897
0.115697
0.0983332
0.0806415
0.0646354
0.051365
0.0422815
0.0379538
0.0353037
0.0332284
0.0316705
0.0305039
0.0295834
0.0287701
0.028121
0.027679
0.0274559
0.027423
0.0276622
0.0281888
0.0290036
0.0306292
0.0336602
0.0387154
0.0465316
0.0582683
0.0759136
0.102694
0.144757
0.215178
0.342021
0.580094
0.89565
1.18205
1.32492
1.28007
1.07493
0.830922
0.623723
0.48727
0.458559
0.48104
0.509275
0.417808
0.559181
0.203347
0.305517
0.50606
0.602405
0.68491
0.745425
0.796981
0.839081
0.873307
0.901602
0.925961
0.949231
0.972003
0.993054
1.00884
1.01607
1.01216
0.996219
0.968037
0.92857
0.879199
0.822126
0.759898
0.69962
0.644028
0.59418
0.5484
0.505355
0.464927
0.427522
0.393394
0.363013
0.335949
0.311758
0.29034
0.272295
0.258074
0.248668
0.244808
0.247186
0.256328
0.271965
0.292279
0.312519
0.328648
0.340184
0.346656
0.3402
0.322787
0.294142
0.260717
0.232585
0.226876
0.28121
0.478545
0.886819
1.2911
1.2919
1.03273
0.857178
0.172914
0.288265
0.49042
0.594678
0.683928
0.74224
0.795069
0.83439
0.867551
0.895237
0.917352
0.938007
0.953725
0.967294
0.973534
0.97422
0.965566
0.949413
0.924623
0.892559
0.85402
0.810529
0.763272
0.713443
0.661753
0.609282
0.556427
0.504502
0.456398
0.413152
0.374279
0.339772
0.309224
0.282502
0.25927
0.239411
0.223339
0.212077
0.206766
0.208682
0.218983
0.238156
0.264534
0.292625
0.314326
0.322213
0.31383
0.290124
0.263133
0.237834
0.217292
0.204254
0.206791
0.253823
0.425717
0.842851
1.41147
1.69806
1.39827
0.935524
0.0963568
0.123643
0.145056
0.136304
0.13017
0.122212
0.118593
0.11219
0.108667
0.104331
0.10219
0.10021
0.0991233
0.0959484
0.0925255
0.0871071
0.0814278
0.0752624
0.0691301
0.0633936
0.0578803
0.0530069
0.0485248
0.0444542
0.040913
0.0378181
0.0353072
0.0333475
0.0318701
0.0308593
0.0301499
0.0297051
0.0294506
0.0292594
0.0289994
0.0289627
0.0297671
0.0319121
0.0360755
0.043199
0.0544111
0.0708631
0.0936067
0.123683
0.163854
0.206824
0.241682
0.262461
0.26743
0.264457
0.26145
0.262972
0.271365
0.290702
0.328128
0.39721
0.488909
0.523282
0.416184
0.574955
0.043803
0.0346734
0.0310396
0.0230962
0.0184518
0.0146475
0.0126693
0.01048
0.00931865
0.00814876
0.00765209
0.00738177
0.00728298
0.00697115
0.00664539
0.00612734
0.00566902
0.00527106
0.00498826
0.00484771
0.00479253
0.00483672
0.00494899
0.0051246
0.00538441
0.00575353
0.00628922
0.00692783
0.0073804
0.0076694
0.00778122
0.00789069
0.00820364
0.00891078
0.0100016
0.0114795
0.0136142
0.0167717
0.0215395
0.0288832
0.0404691
0.0589673
0.0884468
0.134597
0.205487
0.310553
0.461697
0.677425
0.829018
0.884792
0.889205
0.867734
0.82969
0.789411
0.729467
0.6566
0.459548
0.566233
0.5903
0.628572
0.0255886
0.0101508
0.00658493
0.00387079
0.00270773
0.00191549
0.00159379
0.00131698
0.00125813
0.00125925
0.00142969
0.00172693
0.00220641
0.00292333
0.00404754
0.00578012
0.00842323
0.0122813
0.0175526
0.024128
0.0317156
0.0395488
0.0469688
0.0536816
0.0596664
0.0633669
0.0639695
0.0605448
0.0559073
0.0505994
0.0422903
0.0329564
0.0256834
0.023404
0.0242328
0.0272083
0.0325886
0.0411373
0.0541778
0.0731792
0.10119
0.143357
0.209019
0.312574
0.474474
0.729607
1.1347
1.7463
2.56856
3.60976
4.59865
5.05486
4.79913
4.12433
3.4298
2.76111
1.66568
1.20421
0.947268
0.655457
0.0170633
0.00329063
0.00166573
0.000999558
0.000922779
0.00106779
0.00148233
0.00220156
0.00342551
0.00540377
0.00863537
0.0139303
0.0230394
0.038956
0.0670251
0.115811
0.197766
0.327519
0.515118
0.739664
0.986922
1.21857
1.40408
1.53079
1.59334
1.58868
1.5125
1.36409
1.16277
0.942615
0.740883
0.540853
0.367409
0.251046
0.181289
0.139453
0.115648
0.107234
0.114703
0.130384
0.153366
0.184049
0.233454
0.330427
0.492149
0.742455
1.14205
1.76672
2.79542
4.76308
7.19917
8.67689
8.5166
7.53355
6.12919
4.6382
3.04643
1.95977
1.2067
0.605682
0.0119534
0.00166276
0.00149168
0.00209859
0.00330749
0.00526339
0.00842292
0.0136914
0.0226852
0.0380469
0.0641132
0.109041
0.188765
0.329179
0.57128
0.974078
1.60925
2.51848
3.67928
4.95368
6.2743
7.51481
8.53953
9.29052
9.71904
9.84273
9.65691
9.18202
8.41953
7.44
6.37565
5.34412
4.41279
3.64774
3.04775
2.52155
2.05899
1.63498
1.28465
0.979274
0.809202
0.711729
0.513872
0.376794
0.41135
0.584326
0.8845
1.36936
2.19455
3.66087
5.82309
8.43421
10.1225
9.57088
7.45723
5.14485
3.54948
2.22134
1.17777
0.523251
0.0119691
0.00545613
0.0103796
0.0186426
0.0303368
0.048046
0.0750794
0.117841
0.186882
0.295809
0.456217
0.70591
1.10954
1.72998
2.6511
3.97359
5.83344
8.30106
11.0111
13.6787
16.1914
18.4696
20.3692
21.8306
22.8011
23.343
23.4863
23.2721
22.634
21.4623
19.9248
18.3178
16.8584
15.5825
14.7256
14.1397
13.7518
13.2113
12.7279
11.6478
10.1779
8.44002
6.42123
4.26651
2.32774
1.2613
1.02873
1.17588
1.61919
2.42603
3.56206
5.16669
6.68161
6.51114
4.8633
3.42701
2.7855
1.94714
1.06276
0.478031
0.0325052
0.0444315
0.102139
0.202537
0.34736
0.561966
0.867336
1.29439
1.8926
2.70904
3.4366
4.05757
5.0171
6.27721
7.81688
9.77696
12.4519
15.7674
19.2389
22.6362
25.7318
28.4517
30.6383
32.2518
33.2716
33.8272
34.0587
34.0136
33.6429
32.8917
31.6625
30.0666
28.3929
26.8777
25.7554
25.1948
25.2521
25.7065
26.5614
27.7358
28.6234
28.7146
27.1474
23.6611
18.4571
13.0451
8.00367
4.70267
3.37342
2.99967
3.02518
3.42542
3.91983
3.72525
2.73524
1.8363
1.4806
1.13804
0.746939
0.394356
0.155563
0.303705
0.693502
1.32536
2.20754
3.46689
5.0654
7.00342
9.49733
12.6552
15.166
16.1288
16.1042
15.8463
15.5324
15.5444
16.2219
17.6239
19.9304
22.8002
25.5853
28.0285
30.0525
31.5712
32.4988
32.8815
32.916
32.7958
32.5977
32.3564
31.9375
31.0974
29.7651
28.2136
26.7906
25.6471
24.8916
24.5367
24.3634
24.2338
23.7676
22.7381
21.2104
19.2914
17.1813
15.0451
13.0324
10.9117
8.64393
6.6137
5.06213
3.90945
3.04244
2.43587
1.8643
1.16797
0.798993
0.635156
0.508757
0.317108
0.291282
1.06807
2.56035
4.36261
6.9027
10.1459
12.8758
14.9777
16.1961
17.3862
19.0028
21.1502
23.6011
25.5951
25.3628
22.3019
18.7898
16.644
15.8276
16.0339
16.8087
17.7766
18.8037
19.7571
20.4966
20.9245
21.0348
20.9225
20.7314
20.5743
20.5234
20.52
20.344
19.7152
18.7055
17.7113
16.8855
16.185
15.5311
14.8903
14.1813
13.3728
12.3366
11.0357
9.54759
8.00732
6.51747
5.10823
3.8101
2.72928
1.99047
1.5749
1.33699
1.113
0.896414
0.615851
0.366593
0.283193
0.269181
0.231051
0.181445
0.355544
2.43176
3.69788
5.03685
6.8286
8.94602
11.1873
12.6562
13.2093
13.6814
14.2778
14.82
15.1193
15.2558
15.3667
15.9499
16.3504
15.5053
14.5883
14.3145
14.4518
14.6564
14.8537
15.0653
15.2191
15.2279
15.0355
14.6451
14.1236
13.5475
12.9919
12.4572
11.807
11.0364
10.2514
9.51103
8.89551
8.43086
8.11345
7.92494
7.76894
7.51991
7.09438
6.4287
5.55623
4.57192
3.56824
2.61967
1.79621
1.20442
0.852382
0.644337
0.510354
0.42271
0.334164
0.243918
0.210541
0.218147
0.211237
0.122639
0.140637
1.04348
1.59165
1.86337
2.12714
2.41765
2.60784
2.54299
2.40293
2.4254
2.69662
3.18655
3.62449
4.17319
5.16822
7.04911
10.2078
13.4655
15.3513
16.1003
16.6277
17.1995
17.7317
18.1071
18.1987
17.9334
17.3064
16.392
15.3124
14.1144
12.8875
11.7722
10.8028
9.94524
9.19261
8.5954
8.21633
8.0497
8.05095
8.13771
8.17032
8.03198
7.61092
6.8377
5.72749
4.36153
3.02397
1.94392
1.17441
0.719293
0.484834
0.367473
0.299641
0.268616
0.247451
0.217321
0.210945
0.219122
0.209507
0.121583
0.261476
1.5005
2.60118
2.96048
3.4781
4.01834
4.62925
5.24616
5.56709
5.48419
5.07391
4.53982
4.15037
4.30548
5.26266
7.11172
9.30587
11.144
12.8764
14.6982
16.533
17.9506
18.4398
18.2701
17.985
17.7825
17.5954
17.3082
16.708
15.6784
14.3796
13.0466
11.8687
10.908
10.1056
9.52384
9.20055
9.08072
9.12406
9.22574
9.26574
9.12437
8.62749
7.62221
6.14679
4.54148
3.12166
2.0001
1.22473
0.75179
0.488393
0.36942
0.305121
0.269726
0.252459
0.221445
0.211138
0.218833
0.210361
0.124066
0.320563
0.963652
1.7991
2.27335
3.03725
3.9084
4.92591
5.87614
6.43779
6.53433
6.40461
6.27692
6.21518
6.39943
6.96598
7.74009
8.57087
9.59442
11.0479
12.6463
13.8826
14.6004
15.0191
15.3307
15.6502
15.9701
16.2258
16.4273
16.5816
16.5862
16.1611
15.1521
13.9402
12.8111
11.7944
10.9903
10.5878
10.5348
10.6602
10.7676
10.7437
10.4523
9.77155
8.66916
7.18891
5.53577
3.96953
2.65073
1.67672
1.07633
0.780196
0.641335
0.545822
0.473972
0.401066
0.306359
0.252694
0.2486
0.226168
0.19819
0.486863
0.982723
1.34883
1.70792
2.30595
2.96889
3.83479
4.85113
5.70828
6.13356
6.27879
6.48946
6.86057
7.28467
7.976
9.29346
11.199
13.6335
16.4222
19.0705
20.5182
20.7885
20.7644
20.8581
21.1002
21.3829
21.6109
21.7689
21.9641
22.1893
21.971
21.015
19.5835
18.078
16.7699
15.9248
15.6775
15.8086
16.0573
16.0664
15.5925
14.5451
13.0289
10.9827
8.55522
6.19791
4.27855
2.84747
1.89041
1.27989
0.881376
0.623532
0.504532
0.500788
0.49623
0.395966
0.328038
0.311692
0.26074
0.265657
0.356648
0.453394
0.725493
1.13838
1.66206
2.33327
3.16628
4.13368
5.02676
5.59449
5.96296
6.58375
7.51351
8.73746
10.418
12.8485
16.1245
20.0066
23.7534
25.8298
26.0716
26.1538
26.4559
26.785
27.0807
27.2662
27.2585
27.014
26.5028
25.5793
24.1477
22.2973
20.204
18.3292
17.2272
16.8281
16.9667
17.2437
17.2888
16.9046
15.7811
13.8149
11.1603
8.26089
5.84435
4.00896
2.70078
1.80123
1.21089
0.843234
0.634074
0.551643
0.63241
0.80679
0.775034
0.584405
0.478491
0.419223
0.329927
0.138286
0.259624
0.536291
1.02198
1.64875
2.46267
3.38705
4.51202
5.7049
6.82698
7.82311
8.67302
9.85059
11.5738
13.9827
16.9591
20.4193
24.2555
28.1723
31.1963
31.9181
31.1894
30.6819
30.4353
30.3075
30.2742
30.1669
29.8357
29.2336
28.2983
27.0073
25.3424
23.4823
21.787
20.4792
19.5491
18.9652
18.7599
18.6449
18.2269
17.185
15.5016
13.4695
11.1907
8.55115
5.98063
3.91772
2.44928
1.52932
1.06582
0.862864
0.809091
0.9012
1.09066
1.19819
1.06738
0.81139
0.651938
0.520442
0.370808
0.0612988
0.089487
0.203756
0.402924
0.702555
1.11053
1.603
2.23754
3.01263
3.98074
5.12354
6.39292
7.9237
9.96274
12.9233
16.4453
20.0283
22.8926
24.7112
24.9719
24.0602
23.3173
23.1264
23.2729
23.4464
23.4774
23.2308
22.6494
21.8573
20.9618
19.9606
18.9032
17.9536
17.2615
16.8348
16.6454
16.7392
16.8279
16.5575
15.5834
13.8452
11.4974
9.18273
7.00896
4.9966
3.44484
2.39965
1.71541
1.33736
1.21786
1.3073
1.59637
1.91962
1.90277
1.67414
1.35563
1.09765
0.882041
0.609753
0.413035
0.0215355
0.00882984
0.0178634
0.0361339
0.0682816
0.120852
0.202879
0.328138
0.509903
0.761346
1.0846
1.48389
2.01168
2.74957
3.80885
5.22226
6.929
8.4685
9.08994
8.82549
8.16274
7.72449
7.70728
7.9619
8.19644
8.40832
8.54092
8.60293
8.53132
8.30205
7.91944
7.39738
6.89148
6.47882
6.19557
6.06681
6.06076
5.95989
5.68403
5.04201
4.42499
3.59845
2.83346
2.09961
1.56354
1.26601
1.23257
1.4724
2.03795
3.01517
3.94313
4.52511
4.25476
3.76991
3.23058
2.7512
2.20714
1.51479
0.840887
0.486418
0.026927
0.00525744
0.00330543
0.00339501
0.00476176
0.00720549
0.0112457
0.0174709
0.0268849
0.0404327
0.0592664
0.0856864
0.12605
0.189767
0.290336
0.438161
0.636724
0.889948
1.00624
0.925468
0.770636
0.671782
0.673301
0.734211
0.78762
0.83724
0.878416
0.912524
0.928925
0.898995
0.823198
0.713416
0.618462
0.557557
0.534877
0.547652
0.574219
0.605654
0.655631
0.629629
0.59103
0.495932
0.402578
0.355647
0.417039
0.618407
1.00832
1.68295
2.81357
4.5406
6.18756
6.57185
6.19084
5.2632
4.15691
3.24036
2.34019
1.56136
0.938137
0.540319
0.0343041
0.0146292
0.0089645
0.00554633
0.00418255
0.00332466
0.00310161
0.00294577
0.00306013
0.00320333
0.00352692
0.00397581
0.00469382
0.00590607
0.00798306
0.0113938
0.0167744
0.0249073
0.0338975
0.0313021
0.0240925
0.0197654
0.0203173
0.0225004
0.0239812
0.0251387
0.0260684
0.0269478
0.0277992
0.0288841
0.026809
0.0233496
0.0215996
0.0221996
0.0237729
0.0262052
0.0295731
0.0339833
0.0397983
0.0480197
0.0638281
0.0886981
0.13696
0.229053
0.402546
0.735115
1.38033
2.57738
4.57968
6.79649
7.93918
7.95285
6.95488
5.31546
3.69881
2.57164
1.4078
1.10625
0.801855
0.559616
0.0553893
0.0464643
0.038338
0.0283597
0.0234801
0.0195249
0.0178438
0.0159898
0.015048
0.0137636
0.0130383
0.0122685
0.0113841
0.0102657
0.00892414
0.00764552
0.0067498
0.00640407
0.00663554
0.00701777
0.00738938
0.00791474
0.00833308
0.00824234
0.00774129
0.00714916
0.00661847
0.00623843
0.00601204
0.00593276
0.00599448
0.00618608
0.00650132
0.0069664
0.00765591
0.008631
0.0100792
0.0123738
0.0162138
0.0228927
0.0350883
0.0582438
0.103967
0.196442
0.387598
0.791563
1.64718
3.33623
5.48791
7.04585
7.64356
7.11215
5.63137
3.85515
2.42572
1.5504
0.780503
1.0895
0.650689
0.562912
0.116679
0.146466
0.163362
0.15003
0.144721
0.137887
0.135768
0.131952
0.129965
0.126123
0.123776
0.120601
0.116743
0.111011
0.103443
0.0947137
0.0864187
0.079886
0.0753044
0.0728814
0.070764
0.0687532
0.0658284
0.0616653
0.0565165
0.0510788
0.0457272
0.0409191
0.0369285
0.0338032
0.0315336
0.0298505
0.0285005
0.0274233
0.0265868
0.0259408
0.025701
0.0263238
0.0285023
0.0331649
0.04188
0.058069
0.0886585
0.149435
0.279476
0.573092
1.23663
2.24517
3.11111
3.49494
3.3231
2.56045
1.66542
1.00077
0.640705
0.514087
0.532039
0.705369
0.495338
0.59446
0.191794
0.310395
0.518841
0.620506
0.706017
0.767956
0.822937
0.867252
0.905028
0.936634
0.962053
0.98519
1.00392
1.01932
1.02761
1.02835
1.01874
0.999842
0.971431
0.934794
0.89225
0.845083
0.794736
0.743472
0.691452
0.639814
0.588123
0.536866
0.487802
0.442658
0.401365
0.364365
0.331146
0.301649
0.27559
0.252989
0.233757
0.218431
0.208207
0.204788
0.210306
0.227449
0.259776
0.309335
0.378685
0.476423
0.61197
0.692479
0.684261
0.595177
0.468988
0.354498
0.284873
0.280968
0.409287
0.762375
1.17419
1.28346
1.07518
0.783205
0.175329
0.277314
0.469786
0.564842
0.645473
0.705424
0.754375
0.794538
0.826151
0.852248
0.874845
0.896901
0.918881
0.939328
0.954477
0.961164
0.957055
0.941659
0.915151
0.878585
0.833375
0.781578
0.72521
0.669132
0.617836
0.572796
0.532604
0.496154
0.462617
0.431707
0.403759
0.379441
0.358923
0.341975
0.328487
0.318672
0.312822
0.311571
0.315247
0.323102
0.333565
0.345832
0.361271
0.386178
0.420433
0.460893
0.505226
0.526713
0.50285
0.439994
0.36356
0.297571
0.266193
0.301665
0.473957
0.854138
1.22119
1.24305
1.02044
0.833892
0.139412
0.234615
0.409938
0.497841
0.568686
0.622762
0.664875
0.699793
0.726273
0.748083
0.767
0.785825
0.804832
0.822454
0.835113
0.840249
0.836058
0.822559
0.800324
0.770581
0.734682
0.694198
0.65062
0.606301
0.565112
0.529306
0.497575
0.469503
0.442782
0.417429
0.394005
0.372934
0.353968
0.337249
0.323209
0.312298
0.304054
0.298281
0.297353
0.306805
0.333009
0.384474
0.468791
0.589525
0.724411
0.850714
0.967308
1.02619
0.982103
0.844711
0.666543
0.495246
0.379737
0.35191
0.459035
0.778674
1.12346
1.17275
0.939696
0.739529
0.136408
0.213035
0.341947
0.407532
0.463824
0.508577
0.542568
0.571466
0.592953
0.610669
0.626132
0.641708
0.657441
0.671636
0.681184
0.68396
0.678694
0.665636
0.645646
0.62014
0.590139
0.556486
0.519495
0.480248
0.441739
0.40854
0.37911
0.352076
0.326841
0.304645
0.287769
0.278525
0.275502
0.278464
0.286685
0.295338
0.308499
0.337306
0.389885
0.470518
0.580755
0.721197
0.881508
1.06746
1.23976
1.38843
1.52859
1.60928
1.58413
1.44766
1.24067
0.9884
0.733098
0.568043
0.526316
0.690868
0.991659
1.07707
0.817908
0.599725
0.135681
0.185207
0.266431
0.304983
0.345474
0.380091
0.407391
0.432225
0.451301
0.466488
0.477638
0.487984
0.497976
0.506184
0.509842
0.507226
0.49741
0.480847
0.458552
0.432208
0.4068
0.385784
0.372007
0.371497
0.376349
0.382506
0.392011
0.412773
0.451365
0.51736
0.595945
0.654188
0.682257
0.71967
0.779287
0.819677
0.85652
0.924252
0.999476
1.08679
1.2103
1.35119
1.45965
1.57032
1.69589
1.86024
2.07018
2.24039
2.27016
2.11831
1.90989
1.72043
1.51847
1.17338
0.854251
0.728519
0.960885
1.16901
0.807479
0.540448
0.129457
0.134102
0.161928
0.185932
0.210109
0.234307
0.250547
0.266735
0.277199
0.286192
0.293291
0.300431
0.306376
0.309521
0.306927
0.298951
0.286862
0.27306
0.260161
0.250448
0.245477
0.246788
0.25843
0.282103
0.314857
0.357715
0.411982
0.479375
0.563368
0.665253
0.769239
0.860767
0.927697
0.983799
1.05061
1.11557
1.16906
1.21767
1.28225
1.35898
1.46074
1.56589
1.63001
1.65266
1.67053
1.74731
1.84595
1.92228
1.94345
1.9076
1.88966
1.89849
1.87752
1.58616
1.09163
0.881593
1.02685
1.2387
0.817775
0.491364
0.116367
0.0922735
0.113877
0.134104
0.157185
0.173878
0.189978
0.201248
0.210067
0.216295
0.221776
0.226803
0.23086
0.231929
0.229026
0.222655
0.214509
0.206838
0.201848
0.201264
0.206724
0.21987
0.239125
0.263047
0.291657
0.326917
0.370333
0.419977
0.477099
0.545418
0.62103
0.705163
0.786473
0.863769
0.9348
1.00066
1.07164
1.14152
1.21474
1.28646
1.36947
1.44373
1.49139
1.50605
1.5081
1.53286
1.55006
1.56878
1.63445
1.68347
1.73111
1.75453
1.7714
1.70111
1.25174
0.941529
1.08328
1.31289
0.783764
0.446862
0.114925
0.126287
0.165888
0.19241
0.221295
0.243627
0.265923
0.282479
0.296127
0.306476
0.315214
0.322405
0.327884
0.328744
0.322991
0.311063
0.294853
0.277287
0.261278
0.248758
0.241781
0.242374
0.249583
0.260514
0.275301
0.294943
0.319322
0.348867
0.38767
0.439947
0.500758
0.577683
0.670727
0.768638
0.8695
0.988205
1.11827
1.23452
1.33235
1.40403
1.4714
1.5338
1.55451
1.5381
1.48998
1.41283
1.25315
1.05142
0.965606
0.945069
0.974981
1.02395
1.05734
0.973437
0.791507
0.75956
1.01533
1.29839
0.795721
0.448054
0.0896025
0.145304
0.24324
0.299444
0.354145
0.394844
0.433692
0.463345
0.48725
0.505661
0.520026
0.530556
0.536082
0.534179
0.519717
0.493125
0.455327
0.411823
0.368958
0.332224
0.305847
0.291544
0.29055
0.3073
0.339191
0.38519
0.448896
0.530784
0.635636
0.764184
0.921395
1.09778
1.30344
1.52082
1.69648
1.82418
1.92684
2.04592
2.19145
2.32226
2.42171
2.51023
2.64067
2.82504
2.97086
3.03945
3.0333
2.91922
2.71436
2.41582
2.06091
1.83477
1.71685
1.55088
1.1548
1.05359
1.50091
1.90493
0.981717
0.545251
0.0812779
0.154771
0.289802
0.373696
0.454145
0.51418
0.571366
0.617636
0.656557
0.689677
0.721246
0.752262
0.783505
0.812855
0.834365
0.843078
0.834986
0.808428
0.763974
0.70289
0.637775
0.57928