/*--------------------------------*- C++ -*----------------------------------*\
| =========                 |                                                 |
| \\      /  F ield         | OpenFOAM: The Open Source CFD Toolbox           |
|  \\    /   O peration     | Version:  2.1.1                                 |
|   \\  /    A nd           | Web:      www.OpenFOAM.org                      |
|    \\/     M anipulation  |                                                 |
\*---------------------------------------------------------------------------*/
FoamFile
{
    version     2.0;
    format      ascii;
    class       volScalarField;
    location    "0.0014";
    object      Lzero;
}
// * * * * * * * * * * * * * * * * * * * * * * * * * * * * * * * * * * * * * //

dimensions      [0 1 0 0 0 0 0];

internalField   nonuniform List<scalar> 
36520
(
9.25456e-05
9.23936e-05
9.24003e-05
9.24047e-05
9.24021e-05
9.24008e-05
9.24086e-05
9.24277e-05
9.24544e-05
9.24798e-05
9.24964e-05
9.24974e-05
9.24888e-05
9.24836e-05
9.24979e-05
9.25435e-05
9.2623e-05
9.27336e-05
9.28687e-05
9.3021e-05
9.31738e-05
9.32599e-05
9.3231e-05
9.3157e-05
9.30771e-05
9.30258e-05
9.30177e-05
9.30448e-05
9.30863e-05
9.313e-05
9.31624e-05
9.31951e-05
9.32192e-05
9.32411e-05
9.32666e-05
9.32963e-05
9.33311e-05
9.33726e-05
9.34235e-05
9.34846e-05
9.35488e-05
9.36008e-05
9.36233e-05
9.36152e-05
9.36028e-05
9.36187e-05
9.36768e-05
9.37862e-05
9.40683e-05
9.44567e-05
9.49311e-05
9.56456e-05
9.70649e-05
0.000100594
0.000105483
0.000105453
0.000102156
9.91186e-05
9.69006e-05
9.37747e-05
0.000194577
7.06194e-05
6.97424e-05
6.57356e-05
6.31732e-05
6.10057e-05
5.94101e-05
5.78746e-05
5.65332e-05
5.52211e-05
5.40716e-05
5.29423e-05
5.18521e-05
5.05844e-05
4.90585e-05
4.70563e-05
4.44891e-05
4.13229e-05
3.76501e-05
3.36406e-05
2.95993e-05
2.68398e-05
2.80769e-05
3.35314e-05
3.81326e-05
3.97065e-05
4.03552e-05
4.06994e-05
4.0846e-05
4.07759e-05
4.05085e-05
4.01161e-05
3.97294e-05
3.95532e-05
3.96814e-05
4.01082e-05
4.07878e-05
4.16483e-05
4.26419e-05
4.38095e-05
4.53123e-05
4.72983e-05
4.96947e-05
5.20128e-05
5.36249e-05
5.40895e-05
5.30896e-05
5.0343e-05
4.56303e-05
3.98465e-05
3.47635e-05
3.08928e-05
2.82446e-05
2.6399e-05
2.7841e-05
4.24894e-05
5.9594e-05
5.97027e-05
6.90113e-05
0.000192014
0.000194654
4.58289e-05
4.30932e-05
3.85642e-05
3.57744e-05
3.33337e-05
3.16771e-05
2.98714e-05
2.82229e-05
2.63956e-05
2.47746e-05
2.33631e-05
2.22158e-05
2.10156e-05
1.95507e-05
1.77289e-05
1.58941e-05
1.47011e-05
1.45885e-05
1.54435e-05
1.68084e-05
1.81873e-05
1.65784e-05
1.30118e-05
1.0296e-05
9.96096e-06
1.09367e-05
1.2188e-05
1.35481e-05
1.48069e-05
1.55825e-05
1.58948e-05
1.60192e-05
1.61693e-05
1.64506e-05
1.6866e-05
1.73861e-05
1.80329e-05
1.88666e-05
2.0017e-05
2.15867e-05
2.35894e-05
2.59021e-05
2.82091e-05
3.01646e-05
3.16544e-05
3.28218e-05
3.39109e-05
3.52326e-05
3.74147e-05
3.97998e-05
4.21028e-05
4.32119e-05
4.18833e-05
3.84716e-05
3.53419e-05
3.9515e-05
4.58586e-05
4.9987e-05
0.000193774
0.000194699
2.88907e-05
2.47179e-05
2.03629e-05
1.76636e-05
1.52767e-05
1.36586e-05
1.21246e-05
1.11857e-05
1.08049e-05
1.12625e-05
1.23843e-05
1.40902e-05
1.63047e-05
1.92384e-05
2.30591e-05
2.79029e-05
3.35943e-05
3.9575e-05
4.48742e-05
4.84582e-05
4.92245e-05
4.41951e-05
3.52017e-05
2.63669e-05
2.05587e-05
1.72794e-05
1.541e-05
1.41576e-05
1.32836e-05
1.28018e-05
1.26615e-05
1.27027e-05
1.27997e-05
1.2913e-05
1.30868e-05
1.33861e-05
1.38369e-05
1.44612e-05
1.53657e-05
1.67725e-05
1.86104e-05
2.06833e-05
2.26281e-05
2.44189e-05
2.62668e-05
2.82864e-05
3.06934e-05
3.37984e-05
3.81259e-05
4.42765e-05
5.14349e-05
5.69002e-05
5.83082e-05
5.59156e-05
5.12077e-05
4.41969e-05
4.65664e-05
4.07222e-05
0.000195425
0.000194943
1.47095e-05
1.08643e-05
8.62937e-06
8.49764e-06
9.23282e-06
1.07269e-05
1.28623e-05
1.57527e-05
1.94053e-05
2.36895e-05
2.85071e-05
3.39542e-05
4.03193e-05
4.80293e-05
5.72663e-05
6.80334e-05
7.97519e-05
9.11274e-05
0.000100109
0.000104046
0.000101293
9.24866e-05
7.92765e-05
6.5749e-05
5.5816e-05
4.98354e-05
4.65322e-05
4.4241e-05
4.22612e-05
4.07159e-05
3.98097e-05
3.92974e-05
3.86063e-05
3.73824e-05
3.57785e-05
3.41074e-05
3.25353e-05
3.13568e-05
3.04692e-05
2.8159e-05
2.47912e-05
2.05177e-05
2.05289e-05
2.28371e-05
2.46836e-05
2.64714e-05
2.85188e-05
3.10604e-05
3.45089e-05
3.95061e-05
4.65347e-05
5.50641e-05
5.90459e-05
6.11728e-05
6.18154e-05
5.95002e-05
5.7234e-05
4.8946e-05
0.000195425
0.000195241
8.43663e-06
9.59646e-06
1.18742e-05
1.48593e-05
1.87071e-05
2.34382e-05
2.92996e-05
3.63595e-05
4.43746e-05
5.25951e-05
6.06595e-05
6.87094e-05
7.75158e-05
8.7769e-05
9.96788e-05
0.00011317
0.000127439
0.000141492
0.000153498
0.00016008
0.000157635
0.00014981
0.000138848
0.000127499
0.000118061
0.000111145
0.000107123
0.000104442
0.000102278
0.000100757
0.000100397
0.000101224
0.00010227
0.000102373
0.00010088
9.85769e-05
9.52832e-05
9.18446e-05
8.82829e-05
8.25897e-05
7.50368e-05
6.38729e-05
4.87254e-05
3.93769e-05
3.53432e-05
3.33118e-05
3.22042e-05
3.37041e-05
3.58441e-05
3.93931e-05
4.50987e-05
5.22544e-05
5.9797e-05
6.33298e-05
6.4991e-05
6.59643e-05
6.53652e-05
5.61758e-05
0.000194815
0.000195022
1.47922e-05
1.96016e-05
2.53369e-05
3.1507e-05
3.89107e-05
4.73251e-05
5.70826e-05
6.79473e-05
7.89316e-05
8.84015e-05
9.63612e-05
0.000103372
0.000111435
0.000120897
0.000131881
0.000145019
0.000157915
0.000170472
0.000182026
0.000190286
0.000192653
0.000190544
0.000185906
0.000180638
0.000176239
0.00017202
0.000167867
0.000163863
0.000159903
0.00015605
0.000153205
0.000152001
0.000152337
0.000153532
0.000154672
0.000155649
0.000155401
0.000153012
0.000148688
0.000142639
0.000134802
0.000125444
0.00011153
9.83394e-05
8.87369e-05
8.08909e-05
7.20072e-05
6.14106e-05
5.1931e-05
4.77204e-05
4.93019e-05
5.535e-05
6.15633e-05
6.5044e-05
6.37316e-05
6.19539e-05
6.52804e-05
6.3201e-05
0.000194659
0.000194472
2.67117e-05
3.41065e-05
4.33245e-05
5.26309e-05
6.32791e-05
7.38903e-05
8.54568e-05
9.6711e-05
0.000107374
0.00011502
0.00012102
0.00012653
0.000132765
0.000140163
0.000148813
0.000158433
0.000167994
0.000177743
0.000187598
0.000196945
0.000204291
0.000208236
0.000209354
0.000208412
0.00020603
0.00020288
0.000199613
0.000196148
0.000192149
0.000187634
0.000182897
0.000178898
0.000176187
0.000174998
0.00017499
0.000175575
0.000176117
0.000175979
0.000174649
0.000171559
0.000166612
0.000159788
0.000150467
0.000138752
0.000126314
0.000114375
0.000102967
9.19634e-05
8.15123e-05
7.22292e-05
6.49827e-05
6.22242e-05
6.38861e-05
6.81086e-05
6.74208e-05
5.76942e-05
5.73669e-05
6.26025e-05
0.000194257
0.00019484
3.39516e-05
4.66038e-05
5.83697e-05
6.74053e-05
7.82069e-05
8.49487e-05
9.10381e-05
9.66637e-05
0.000102128
0.00010754
0.000112754
0.000118194
0.000123665
0.000129457
0.00013588
0.000143128
0.00015157
0.000160631
0.00016963
0.000177713
0.000183857
0.000188225
0.000190961
0.000192309
0.000192875
0.000193094
0.000193042
0.00019274
0.000191989
0.000190261
0.000187698
0.000184711
0.000181157
0.000177663
0.00017512
0.000173911
0.00017384
0.000174001
0.00017375
0.000172811
0.00017084
0.000167428
0.000162132
0.000154587
0.000144985
0.000134
0.000122005
0.000109482
9.71794e-05
8.62516e-05
7.8385e-05
7.51778e-05
7.5943e-05
7.61958e-05
7.16586e-05
5.91254e-05
5.23841e-05
6.10585e-05
0.000193573
0.000194687
2.93356e-05
4.23061e-05
5.04239e-05
5.91177e-05
6.52475e-05
7.02563e-05
7.50552e-05
8.02428e-05
8.61401e-05
9.19989e-05
9.71665e-05
0.000102106
0.000107482
0.000113821
0.000121728
0.000131214
0.000141311
0.000150713
0.00015921
0.000166758
0.000173265
0.000178767
0.000183419
0.000187265
0.000190434
0.000193137
0.000195693
0.000198294
0.00020076
0.000202572
0.000202459
0.00019971
0.000195002
0.000189994
0.000186195
0.000184208
0.000183882
0.00018468
0.000186038
0.000187269
0.00018769
0.000186615
0.00018369
0.000178495
0.000170418
0.000159577
0.000146211
0.000130654
0.000113795
9.75932e-05
8.47712e-05
7.76864e-05
7.53189e-05
7.4317e-05
7.20639e-05
6.61732e-05
6.10565e-05
7.2882e-05
0.000193955
0.00019439
2.76996e-05
4.60067e-05
5.54982e-05
6.10494e-05
6.56272e-05
6.99801e-05
7.5388e-05
8.20439e-05
8.92637e-05
9.59829e-05
0.000101849
0.00010803
0.000114907
0.000122329
0.000130331
0.000138858
0.000147434
0.000155591
0.000163257
0.000169911
0.00017565
0.000181075
0.000186372
0.000191485
0.000196198
0.000200331
0.000203775
0.000206461
0.000208488
0.000209707
0.000209714
0.000208131
0.000204739
0.000199795
0.000195154
0.00019215
0.00019101
0.000191215
0.000191937
0.000192727
0.000193068
0.000192463
0.000190523
0.000186908
0.000181133
0.000172636
0.000160778
0.000145518
0.000126783
0.000105414
8.60898e-05
7.51525e-05
7.24442e-05
7.32475e-05
7.31594e-05
6.61102e-05
6.08203e-05
7.12144e-05
0.000194083
0.000194755
3.20028e-05
4.02146e-05
4.68885e-05
5.25067e-05
6.07755e-05
6.78526e-05
7.65511e-05
8.60128e-05
9.45378e-05
0.00010117
0.000106329
0.000110911
0.000116298
0.000123393
0.000132013
0.000140923
0.000148917
0.0001557
0.000161647
0.000167023
0.00017248
0.000178253
0.000184625
0.000191149
0.000196918
0.000201233
0.000203951
0.000205733
0.000207097
0.000208208
0.000208936
0.000208808
0.000207077
0.00020328
0.000197833
0.000193391
0.000190713
0.000189458
0.000189016
0.000189309
0.000189406
0.000188222
0.000185533
0.000181415
0.000175211
0.000166037
0.000152802
0.000134625
0.000111583
8.62183e-05
6.55758e-05
5.71285e-05
6.11186e-05
7.20025e-05
7.63008e-05
6.26946e-05
5.94801e-05
6.9081e-05
0.000193725
0.000194713
3.12808e-05
3.64442e-05
4.19418e-05
4.75847e-05
5.64061e-05
6.47227e-05
7.44252e-05
8.42246e-05
9.30379e-05
9.96297e-05
0.0001032
0.000104742
0.000106551
0.000110922
0.000118533
0.000127599
0.000135656
0.00014265
0.000149816
0.000156899
0.000164057
0.000171425
0.000179282
0.000187903
0.000196361
0.000202322
0.000205607
0.00020744
0.000208555
0.00020922
0.000209427
0.000208906
0.000206931
0.000203108
0.000197996
0.000193647
0.000190747
0.00018932
0.000188801
0.000188135
0.000186821
0.000184534
0.000180976
0.000175436
0.000166701
0.000152844
0.000132555
0.000108252
8.56414e-05
6.69226e-05
5.64359e-05
5.93221e-05
7.01214e-05
7.89341e-05
8.11728e-05
6.30279e-05
5.96182e-05
7.02724e-05
0.000193423
0.00019456
2.73622e-05
4.40511e-05
5.03246e-05
5.28588e-05
5.94136e-05
6.65796e-05
7.4451e-05
8.19493e-05
8.82727e-05
9.24814e-05
9.41116e-05
9.50688e-05
9.56982e-05
9.69801e-05
0.000100258
0.000105967
0.000113243
0.000120643
0.000127904
0.000136325
0.000146292
0.000157037
0.000168262
0.000180234
0.000192725
0.000203352
0.000210063
0.000213604
0.000215238
0.000215482
0.000214272
0.000211445
0.00020729
0.000202153
0.000197556
0.000194937
0.000193681
0.000193501
0.000193609
0.000193149
0.000191655
0.000188668
0.000183944
0.00017742
0.000168341
0.000155625
0.000138385
0.000116576
9.3143e-05
7.31404e-05
6.13598e-05
5.95733e-05
6.4619e-05
7.04911e-05
7.43093e-05
6.87253e-05
6.79116e-05
7.50993e-05
0.000194068
0.000194677
2.37215e-05
3.55563e-05
4.57241e-05
5.10118e-05
5.62563e-05
6.09102e-05
6.4807e-05
6.75463e-05
6.89988e-05
7.02932e-05
7.32253e-05
7.87846e-05
8.62938e-05
9.42445e-05
0.000101704
0.000109069
0.000117597
0.000126772
0.000134449
0.000139859
0.000144478
0.000149874
0.000158128
0.000169104
0.000182073
0.000195161
0.000205427
0.00021062
0.000211881
0.000210641
0.000207787
0.000203578
0.000198397
0.000193866
0.000190523
0.000187985
0.000186019
0.000184347
0.000182366
0.000179406
0.000175131
0.000169357
0.000162111
0.000153556
0.000142934
0.000130225
0.000115586
0.000100092
8.47389e-05
7.18196e-05
6.39485e-05
6.20501e-05
6.4593e-05
6.78962e-05
7.13063e-05
6.74664e-05
7.01606e-05
7.65574e-05
0.000194268
0.000194846
2.80192e-05
3.91459e-05
5.02985e-05
5.98934e-05
6.72224e-05
7.40205e-05
8.062e-05
8.645e-05
9.08553e-05
9.59126e-05
0.00010322
0.000111805
0.000118852
0.000123895
0.000130571
0.000139118
0.000148231
0.000157023
0.000164645
0.000170499
0.000174483
0.000177183
0.00017993
0.000184504
0.000191985
0.000199951
0.000205285
0.000207167
0.000206228
0.00020342
0.000199495
0.00019517
0.000191295
0.000188054
0.000185018
0.000182086
0.000179403
0.000176749
0.000173208
0.000168122
0.000161464
0.000153529
0.000144407
0.000134385
0.000124246
0.000114053
0.000103539
9.28238e-05
8.24054e-05
7.37596e-05
6.85747e-05
6.70793e-05
6.87546e-05
7.09462e-05
7.17004e-05
6.40901e-05
6.76634e-05
7.55904e-05
0.000194284
0.000194756
2.70782e-05
3.55358e-05
4.58151e-05
5.57729e-05
6.56305e-05
7.57188e-05
8.8345e-05
0.000102839
0.000113391
0.000118467
0.000119591
0.000119545
0.000120829
0.000125564
0.000134864
0.000147237
0.000160211
0.000171925
0.000180978
0.000187122
0.000191346
0.000194321
0.000195986
0.000197866
0.000201179
0.000205187
0.000206939
0.000205731
0.000202369
0.000198066
0.000193653
0.000189687
0.000186571
0.00018417
0.000182046
0.000180552
0.00017933
0.000177691
0.00017477
0.000169979
0.000163003
0.000153818
0.000142523
0.000129658
0.000117045
0.000106081
9.6149e-05
8.69906e-05
7.91931e-05
7.35119e-05
7.0627e-05
7.14716e-05
7.43391e-05
7.49658e-05
7.22937e-05
6.26387e-05
6.48082e-05
6.77249e-05
0.000194713
0.000195209
1.35198e-05
1.79535e-05
2.324e-05
2.91378e-05
3.59142e-05
4.36478e-05
5.26962e-05
6.25501e-05
7.13826e-05
7.76591e-05
8.10182e-05
8.35342e-05
8.76575e-05
9.49274e-05
0.000105769
0.000119105
0.000132945
0.000145279
0.000155077
0.000162948
0.000169892
0.000175652
0.000179348
0.000181916
0.000182947
0.000180566
0.000174702
0.000167816
0.000161345
0.000154444
0.000146541
0.000138096
0.000130286
0.000124018
0.000120646
0.000121719
0.000124384
0.000126623
0.000126672
0.0001236
0.000118418
0.000111424
0.000103758
9.5061e-05
8.62894e-05
7.94388e-05
7.28966e-05
6.74355e-05
6.54654e-05
6.7627e-05
7.33051e-05
7.97251e-05
8.13422e-05
7.99341e-05
7.66517e-05
7.31e-05
6.89378e-05
6.22863e-05
0.00019534
0.000194879
8.35325e-06
8.80634e-06
1.06722e-05
1.31107e-05
1.59252e-05
1.9113e-05
2.27303e-05
2.66716e-05
3.03974e-05
3.36923e-05
3.6343e-05
3.89127e-05
4.28223e-05
4.86038e-05
5.65064e-05
6.60999e-05
7.65685e-05
8.69778e-05
9.6831e-05
0.000106254
0.000115593
0.000123885
0.000129452
0.000130254
0.000125097
0.000114522
0.000102237
9.1424e-05
8.25482e-05
7.37098e-05
6.39382e-05
5.43093e-05
4.70872e-05
4.38495e-05
4.38439e-05
4.47983e-05
4.55572e-05
4.55767e-05
4.4797e-05
4.44251e-05
4.64589e-05
4.62684e-05
4.4759e-05
4.27619e-05
4.20492e-05
4.4655e-05
4.83339e-05
5.26191e-05
5.78283e-05
6.50263e-05
7.35234e-05
8.06026e-05
8.3727e-05
8.24486e-05
7.81162e-05
7.28318e-05
6.63852e-05
5.29496e-05
0.000195605
0.000194417
1.64297e-05
1.04721e-05
7.774e-06
7.27492e-06
7.40169e-06
8.00224e-06
8.78065e-06
9.71619e-06
1.07027e-05
1.17222e-05
1.279e-05
1.37984e-05
1.54011e-05
1.77567e-05
2.09937e-05
2.51445e-05
3.01276e-05
3.58402e-05
4.21877e-05
4.91501e-05
5.65504e-05
6.35959e-05
6.90544e-05
6.85678e-05
6.21679e-05
5.23331e-05
4.26995e-05
3.51484e-05
2.95963e-05
2.47096e-05
2.01776e-05
1.72066e-05
1.67605e-05
1.74544e-05
1.82807e-05
1.9194e-05
2.00749e-05
2.08858e-05
2.1676e-05
2.26265e-05
2.39861e-05
2.58785e-05
2.84482e-05
3.16919e-05
3.55606e-05
4.03382e-05
4.61652e-05
5.28591e-05
6.01309e-05
6.851e-05
7.60986e-05
7.69269e-05
7.52239e-05
7.21942e-05
6.74769e-05
6.06826e-05
5.62541e-05
5.20055e-05
0.000195904
0.000194428
2.97077e-05
2.2722e-05
1.81312e-05
1.57017e-05
1.3503e-05
1.20062e-05
1.04455e-05
9.2931e-06
8.54274e-06
8.38919e-06
8.57616e-06
8.89694e-06
9.03123e-06
8.97345e-06
8.98002e-06
9.40092e-06
1.04268e-05
1.2096e-05
1.43801e-05
1.72462e-05
2.05857e-05
2.427e-05
2.71707e-05
2.65185e-05
2.28769e-05
1.82698e-05
1.44897e-05
1.21527e-05
1.10564e-05
1.08867e-05
1.18671e-05
1.34602e-05
1.43469e-05
1.47064e-05
1.50368e-05
1.54651e-05
1.60569e-05
1.68903e-05
1.80739e-05
1.97358e-05
2.1984e-05
2.48891e-05
2.84763e-05
3.28264e-05
3.80183e-05
4.42857e-05
5.14655e-05
5.90555e-05
6.65996e-05
7.09121e-05
7.16761e-05
6.9574e-05
6.50401e-05
5.91076e-05
5.22934e-05
4.35782e-05
4.34285e-05
4.38092e-05
0.000196005
0.000194632
4.67599e-05
4.02007e-05
3.45553e-05
3.15333e-05
2.88735e-05
2.71153e-05
2.52256e-05
2.37754e-05
2.25732e-05
2.19522e-05
2.16521e-05
2.14593e-05
2.09554e-05
1.9963e-05
1.85063e-05
1.67127e-05
1.4667e-05
1.23605e-05
1.0121e-05
8.64544e-06
8.34841e-06
9.05063e-06
9.62999e-06
9.43945e-06
8.90336e-06
9.06008e-06
1.06251e-05
1.30956e-05
1.52445e-05
1.66093e-05
1.71358e-05
1.70898e-05
1.68552e-05
1.65836e-05
1.63304e-05
1.63003e-05
1.66629e-05
1.74972e-05
1.88296e-05
2.06958e-05
2.3153e-05
2.62635e-05
3.00527e-05
3.46136e-05
3.99918e-05
4.62437e-05
5.28778e-05
5.90777e-05
6.40513e-05
6.57808e-05
6.45591e-05
6.12068e-05
5.56505e-05
4.82002e-05
4.13356e-05
3.74568e-05
3.73554e-05
4.52625e-05
0.000194641
0.000194603
7.23588e-05
6.81683e-05
6.33938e-05
6.05978e-05
5.82048e-05
5.64972e-05
5.48069e-05
5.34644e-05
5.22653e-05
5.12568e-05
5.02964e-05
4.9301e-05
4.80807e-05
4.65191e-05
4.46246e-05
4.25276e-05
4.04331e-05
3.85574e-05
3.72061e-05
3.66296e-05
3.67465e-05
3.6597e-05
3.66048e-05
3.73159e-05
3.85909e-05
3.99269e-05
4.10583e-05
4.19637e-05
4.26911e-05
4.32317e-05
4.35287e-05
4.35364e-05
4.32589e-05
4.27472e-05
4.20766e-05
4.12821e-05
4.04464e-05
3.96355e-05
3.88403e-05
3.80353e-05
3.72314e-05
3.64304e-05
3.57093e-05
3.55569e-05
3.67837e-05
4.00061e-05
4.30471e-05
4.43684e-05
4.34331e-05
4.06541e-05
3.67269e-05
3.2978e-05
3.05917e-05
3.20434e-05
4.31716e-05
5.47825e-05
4.89029e-05
6.40187e-05
0.000197657
9.6744e-05
9.66964e-05
9.67005e-05
9.67116e-05
9.67179e-05
9.67297e-05
9.67491e-05
9.67742e-05
9.67977e-05
9.68107e-05
9.681e-05
9.68012e-05
9.67966e-05
9.68101e-05
9.68481e-05
9.69085e-05
9.6985e-05
9.7071e-05
9.71615e-05
9.72524e-05
9.73413e-05
9.74213e-05
9.74709e-05
9.74656e-05
9.74572e-05
9.74615e-05
9.74908e-05
9.75184e-05
9.75293e-05
9.75442e-05
9.75585e-05
9.75716e-05
9.75865e-05
9.76087e-05
9.76245e-05
9.76476e-05
9.76798e-05
9.77179e-05
9.77552e-05
9.7786e-05
9.78058e-05
9.78145e-05
9.78137e-05
9.7818e-05
9.78643e-05
9.80006e-05
9.82862e-05
9.8612e-05
9.89822e-05
9.9378e-05
9.98498e-05
0.000100657
0.000102546
0.00010597
0.000108084
0.000105759
0.000101912
9.87327e-05
0.000100036
0.000101234
9.71447e-05
9.70546e-05
9.70838e-05
9.7101e-05
9.71081e-05
9.71189e-05
9.71321e-05
9.71464e-05
9.71618e-05
9.71725e-05
9.71815e-05
9.71903e-05
9.72067e-05
9.72334e-05
9.72714e-05
9.73175e-05
9.73684e-05
9.74214e-05
9.74746e-05
9.75279e-05
9.75807e-05
9.76337e-05
9.76872e-05
9.77419e-05
9.78001e-05
9.78625e-05
9.79336e-05
9.79815e-05
9.79872e-05
9.79914e-05
9.79934e-05
9.79947e-05
9.79973e-05
9.80032e-05
9.80137e-05
9.80314e-05
9.80564e-05
9.80884e-05
9.81253e-05
9.81622e-05
9.81893e-05
9.81973e-05
9.81898e-05
9.81911e-05
9.82268e-05
9.83821e-05
9.86071e-05
9.8869e-05
9.91792e-05
9.95921e-05
0.000100181
0.000101163
0.000103248
0.000107557
0.000112102
0.000111356
0.000107234
0.000102543
9.94783e-05
9.94196e-05
0.000194657
6.901e-05
6.56231e-05
6.05535e-05
5.71105e-05
5.44544e-05
5.26895e-05
5.11104e-05
5.00065e-05
4.89882e-05
4.81328e-05
4.72199e-05
4.63355e-05
4.53512e-05
4.44248e-05
4.34918e-05
4.26834e-05
4.20053e-05
4.14871e-05
4.11241e-05
4.09038e-05
4.07959e-05
4.07867e-05
4.08748e-05
4.10667e-05
4.1369e-05
4.17548e-05
4.21869e-05
4.26569e-05
4.3134e-05
4.35921e-05
4.40234e-05
4.44265e-05
4.47383e-05
4.48384e-05
4.46596e-05
4.43135e-05
4.38834e-05
4.34777e-05
4.32346e-05
4.31228e-05
4.28388e-05
4.19469e-05
4.01445e-05
3.77731e-05
3.55768e-05
3.35612e-05
3.16713e-05
2.98475e-05
2.81487e-05
2.67347e-05
2.58166e-05
2.55782e-05
2.65076e-05
3.01444e-05
4.04278e-05
5.52061e-05
5.7343e-05
5.38637e-05
0.000199002
0.000194663
4.19347e-05
3.60565e-05
3.02574e-05
2.65411e-05
2.36345e-05
2.18534e-05
2.01946e-05
1.91943e-05
1.82747e-05
1.77207e-05
1.72536e-05
1.68739e-05
1.64335e-05
1.6043e-05
1.56265e-05
1.52811e-05
1.49679e-05
1.46641e-05
1.43558e-05
1.40159e-05
1.3694e-05
1.33998e-05
1.31309e-05
1.28972e-05
1.27225e-05
1.26099e-05
1.26296e-05
1.28917e-05
1.33623e-05
1.40622e-05
1.49158e-05
1.56605e-05
1.60351e-05
1.61212e-05
1.61737e-05
1.63497e-05
1.67527e-05
1.74479e-05
1.84947e-05
1.99485e-05
2.18093e-05
2.40004e-05
2.64128e-05
2.90456e-05
3.18839e-05
3.49418e-05
3.82277e-05
3.95058e-05
3.92459e-05
3.84277e-05
3.73212e-05
3.62429e-05
3.55371e-05
3.49989e-05
3.45312e-05
3.50632e-05
3.68803e-05
4.45872e-05
0.000198943
0.000194592
2.5721e-05
1.92474e-05
1.46243e-05
1.20908e-05
1.01655e-05
9.04218e-06
7.91519e-06
7.14163e-06
6.3854e-06
6.00959e-06
5.85126e-06
5.90662e-06
6.13363e-06
6.61431e-06
7.36212e-06
8.41427e-06
9.74819e-06
1.13089e-05
1.29943e-05
1.46916e-05
1.62462e-05
1.75755e-05
1.86684e-05
1.95244e-05
1.99811e-05
1.99658e-05
1.94072e-05
1.866e-05
1.77733e-05
1.65162e-05
1.5256e-05
1.45798e-05
1.47954e-05
1.54276e-05
1.62877e-05
1.73132e-05
1.85124e-05
1.99271e-05
2.15769e-05
2.35431e-05
2.593e-05
2.88975e-05
3.25735e-05
3.69728e-05
4.22182e-05
4.84719e-05
5.55099e-05
6.26094e-05
6.96065e-05
7.44072e-05
7.53036e-05
7.27059e-05
6.85468e-05
6.47232e-05
6.10978e-05
5.3734e-05
5.21987e-05
5.19543e-05
0.000198723
0.000194828
1.57867e-05
9.7598e-06
6.25875e-06
4.85748e-06
4.35442e-06
4.57012e-06
5.11793e-06
6.00922e-06
7.18207e-06
8.71895e-06
1.06469e-05
1.32091e-05
1.66272e-05
2.11692e-05
2.70296e-05
3.42701e-05
4.26808e-05
5.17389e-05
6.03173e-05
6.80688e-05
7.4289e-05
7.87037e-05
8.13972e-05
8.24147e-05
8.17605e-05
7.9337e-05
7.50889e-05
6.927e-05
6.24328e-05
5.52026e-05
4.73232e-05
3.94791e-05
3.29151e-05
2.81625e-05
2.50122e-05
2.3332e-05
2.30211e-05
2.3741e-05
2.4812e-05
2.61643e-05
2.79472e-05
3.057e-05
3.40804e-05
3.84597e-05
4.38481e-05
5.06489e-05
5.88648e-05
6.91629e-05
8.23643e-05
9.3142e-05
9.83463e-05
9.74963e-05
9.45766e-05
9.10713e-05
8.39148e-05
7.33898e-05
6.56653e-05
5.54482e-05
0.000197164
0.000194957
6.28053e-06
3.91542e-06
3.95946e-06
4.75441e-06
5.92635e-06
7.52736e-06
9.67404e-06
1.25124e-05
1.61839e-05
2.0927e-05
2.67373e-05
3.40982e-05
4.34167e-05
5.4895e-05
6.8484e-05
8.38337e-05
9.98206e-05
0.000115015
0.000128404
0.000139895
0.000149215
0.000156177
0.00016094
0.000163432
0.000163769
0.00016192
0.000158007
0.000152057
0.000144264
0.000135032
0.000124822
0.000114077
0.000103648
9.41153e-05
8.5043e-05
7.63358e-05
6.76955e-05
5.94639e-05
5.13472e-05
4.53648e-05
4.05985e-05
3.50733e-05
3.3251e-05
3.61743e-05
4.07327e-05
4.67315e-05
5.43207e-05
6.42535e-05
7.65797e-05
8.93983e-05
9.99845e-05
0.000105147
0.000103037
9.6872e-05
8.75287e-05
7.84892e-05
6.96294e-05
5.50025e-05
0.000195955
0.00019524
5.3682e-06
6.60989e-06
8.43102e-06
1.06222e-05
1.34755e-05
1.72325e-05
2.22297e-05
2.87895e-05
3.71496e-05
4.71149e-05
5.8115e-05
7.02739e-05
8.38125e-05
9.86047e-05
0.000114348
0.000130984
0.000147641
0.000162388
0.000174933
0.000185324
0.000193832
0.000200622
0.000205828
0.000209381
0.000211282
0.000211654
0.000210668
0.000208383
0.000204514
0.000199233
0.000192878
0.000185673
0.000177877
0.000170887
0.000164899
0.00015957
0.000153871
0.000147862
0.000139022
0.000127473
0.000113057
9.63206e-05
7.80764e-05
5.99234e-05
4.86875e-05
4.72624e-05
5.13597e-05
5.85713e-05
6.80894e-05
7.82744e-05
8.85613e-05
9.73012e-05
9.88386e-05
9.36245e-05
8.52682e-05
8.01619e-05
7.22834e-05
5.89583e-05
0.000195801
0.000195636
1.32054e-05
1.80172e-05
2.42235e-05
3.09397e-05
3.86665e-05
4.73322e-05
5.69557e-05
6.78409e-05
7.99588e-05
9.18935e-05
0.000103361
0.000114532
0.000125562
0.000136506
0.000147596
0.000159597
0.000172208
0.000183742
0.000194125
0.000203108
0.000210687
0.000216944
0.000221972
0.000225761
0.000228329
0.000229771
0.000230162
0.000229435
0.000227836
0.000225442
0.000222156
0.000217981
0.000213079
0.000207964
0.000203421
0.000199647
0.000196392
0.000193664
0.000190853
0.000187449
0.00018195
0.000172145
0.000157911
0.000139306
0.000117724
9.36761e-05
7.52918e-05
6.81611e-05
6.83841e-05
7.25199e-05
7.93672e-05
8.62718e-05
8.83858e-05
8.41971e-05
7.45791e-05
7.03069e-05
6.89496e-05
6.4252e-05
0.000195173
0.000194607
3.10702e-05
4.10659e-05
5.23819e-05
6.38092e-05
7.59769e-05
8.81122e-05
9.92629e-05
0.000110374
0.000123456
0.000134047
0.000142001
0.000147656
0.000151606
0.000155075
0.000158906
0.000164554
0.000172464
0.000181841
0.000191379
0.000200125
0.000207825
0.000214484
0.000220076
0.000224514
0.000227802
0.000230047
0.000231389
0.000231891
0.00023178
0.000231174
0.000230062
0.000228395
0.00022624
0.00022372
0.000220938
0.000218298
0.000215985
0.000214079
0.000212413
0.000210357
0.00020692
0.000200992
0.000192403
0.000181655
0.000169226
0.000155081
0.000139066
0.000121805
0.000105475
9.26313e-05
8.4569e-05
8.09273e-05
8.01692e-05
7.75429e-05
6.73468e-05
5.70653e-05
6.02054e-05
6.36022e-05
0.000194243
0.000195145
4.0942e-05
5.54743e-05
6.75688e-05
8.07388e-05
9.3563e-05
0.000103467
0.00011166
0.000118612
0.000125979
0.000133254
0.000139763
0.000145014
0.00014902
0.000151274
0.000151704
0.000153362
0.00015837
0.000165846
0.000174353
0.000182459
0.00018973
0.00019619
0.000201797
0.000206461
0.000210082
0.000212658
0.000214305
0.000215129
0.000215286
0.000214962
0.000214193
0.000212903
0.000210941
0.000208474
0.00020616
0.00020436
0.000202953
0.000201816
0.000200621
0.000198776
0.000195455
0.000190012
0.000182151
0.000171731
0.000159323
0.000145591
0.000130636
0.000114861
9.96425e-05
8.75852e-05
8.03629e-05
7.69841e-05
7.44471e-05
7.14135e-05
6.64884e-05
5.74677e-05
5.90574e-05
7.19149e-05
0.000193813
0.000194961
2.99775e-05
5.55204e-05
6.56774e-05
7.54806e-05
8.50563e-05
9.39323e-05
0.00010227
0.000109101
0.000114557
0.000120481
0.000126859
0.000132474
0.000137079
0.000141425
0.000145998
0.000150786
0.000155026
0.000159208
0.000165129
0.000171885
0.000178279
0.000183761
0.000188399
0.000192273
0.000195215
0.000197054
0.000197742
0.000197405
0.000196309
0.000194724
0.000192784
0.000190353
0.000187142
0.000183594
0.000180444
0.000178116
0.000176955
0.000176806
0.000177162
0.000177443
0.000176674
0.000173854
0.000168518
0.000160133
0.000148792
0.000135525
0.000120733
0.00010505
8.94309e-05
7.65975e-05
6.83775e-05
6.38026e-05
6.09979e-05
5.97418e-05
5.99965e-05
5.69041e-05
6.24189e-05
7.8803e-05
0.00019401
0.000194676
2.41589e-05
4.11347e-05
4.82776e-05
5.35411e-05
5.83291e-05
6.22785e-05
6.48438e-05
6.63601e-05
6.84203e-05
7.19347e-05
7.68526e-05
8.28097e-05
8.98077e-05
9.89461e-05
0.000110784
0.000124317
0.00013815
0.000151217
0.000162313
0.000170448
0.000176705
0.000181789
0.000185525
0.000188097
0.000189793
0.000190702
0.000190721
0.000189749
0.00018776
0.00018484
0.000181226
0.000177262
0.000173275
0.000169343
0.000165798
0.000163269
0.000162465
0.000163245
0.000164962
0.000166704
0.000167139
0.000165165
0.000160143
0.000151303
0.000138274
0.000121752
0.000103469
8.54288e-05
6.9689e-05
5.8877e-05
5.3347e-05
5.11419e-05
5.08148e-05
5.23842e-05
5.54906e-05
5.43893e-05
6.22556e-05
7.50506e-05
0.00019427
0.000194438
2.62369e-05
4.55737e-05
5.55168e-05
6.13389e-05
6.75502e-05
7.30618e-05
7.81269e-05
8.27725e-05
8.64428e-05
8.92343e-05
9.1087e-05
9.23669e-05
9.49048e-05
0.000101583
0.000112331
0.000125275
0.000137925
0.000149205
0.000159378
0.000168014
0.000175095
0.000180964
0.000185775
0.000189481
0.000192223
0.000194198
0.00019517
0.000195144
0.0001942
0.00019223
0.000189024
0.000184693
0.000179998
0.00017551
0.000171456
0.000168705
0.0001677
0.000168105
0.000169276
0.000170362
0.000170056
0.000167269
0.00016121
0.000151012
0.000136528
0.000119213
0.000100754
8.28059e-05
6.75526e-05
5.67476e-05
5.08402e-05
4.91124e-05
4.8632e-05
4.9602e-05
5.32656e-05
5.44679e-05
6.07154e-05
7.34473e-05
0.000194203
0.000194569
2.82259e-05
4.33347e-05
5.40764e-05
6.14714e-05
6.97546e-05
7.74676e-05
8.4572e-05
9.08453e-05
9.57957e-05
9.96173e-05
0.000102563
0.000105043
0.000107556
0.000111645
0.000119381
0.00013008
0.000141278
0.000152259
0.000163603
0.000174558
0.000183972
0.000191677
0.00019798
0.000203251
0.000207656
0.000211008
0.000213182
0.000214133
0.000213886
0.000212436
0.000209754
0.000205942
0.000201808
0.000197664
0.000193487
0.000190105
0.000188738
0.000188809
0.000188953
0.000188387
0.000186386
0.000181977
0.00017446
0.000163149
0.000147886
0.000129737
0.00011044
9.17346e-05
7.53961e-05
6.38672e-05
5.82696e-05
5.67746e-05
5.69013e-05
5.78712e-05
6.14445e-05
6.20947e-05
6.22693e-05
7.44754e-05
0.00019409
0.000194533
3.92153e-05
4.98838e-05
5.55124e-05
6.32684e-05
7.16736e-05
8.0455e-05
8.90831e-05
9.73851e-05
0.000104164
0.000109306
0.00011344
0.000117365
0.000121559
0.000126437
0.000133947
0.000145176
0.000157959
0.000170923
0.000183305
0.000194712
0.000204439
0.00021245
0.000219081
0.000224353
0.00022826
0.000230975
0.000232622
0.000233122
0.000232343
0.000230372
0.000227268
0.000223126
0.000218235
0.000213025
0.00020797
0.000203889
0.000201518
0.000200045
0.000198251
0.000195308
0.00019048
0.000183112
0.000172859
0.000158933
0.000141816
0.000123302
0.000105045
8.79201e-05
7.34617e-05
6.28474e-05
5.69072e-05
5.61942e-05
6.08197e-05
6.76545e-05
7.15279e-05
6.4104e-05
6.23456e-05
7.25055e-05
0.000193917
0.000194612
4.43471e-05
4.84879e-05
5.66275e-05
6.61301e-05
7.56182e-05
8.57639e-05
9.61453e-05
0.000106462
0.000115022
0.000121647
0.000127217
0.000132695
0.000139073
0.000146788
0.000155787
0.000166406
0.000178787
0.000192051
0.000205065
0.000215962
0.000224067
0.000230072
0.000234261
0.000237281
0.000239697
0.000241586
0.000242935
0.00024366
0.000243482
0.000241999
0.00023912
0.000234832
0.000229003
0.000221936
0.000215304
0.00020972
0.000205828
0.000203234
0.000200654
0.000196506
0.000188695
0.000176534
0.000160527
0.000141441
0.000121877
0.000103539
8.7126e-05
7.31611e-05
6.24532e-05
5.5918e-05
5.44065e-05
5.85032e-05
6.90766e-05
7.93469e-05
8.20374e-05
6.8648e-05
6.32432e-05
7.24636e-05
0.000193536
0.000194959
3.91264e-05
5.09023e-05
6.3973e-05
7.55775e-05
8.74408e-05
9.84918e-05
0.000109935
0.000120647
0.000130146
0.000138785
0.000145435
0.000151873
0.000158982
0.000166874
0.000175003
0.00018389
0.000193686
0.000204044
0.00021415
0.000222512
0.000228544
0.000232892
0.000236143
0.000238737
0.0002409
0.000242634
0.000243987
0.000244933
0.000245072
0.000244012
0.00024163
0.000237783
0.000232385
0.000225948
0.000220289
0.000215929
0.000212952
0.000210622
0.000207163
0.000201295
0.000192988
0.000182132
0.000168031
0.000149434
0.000127652
0.00010563
8.5201e-05
6.91626e-05
6.04841e-05