/*--------------------------------*- C++ -*----------------------------------*\
| =========                 |                                                 |
| \\      /  F ield         | OpenFOAM: The Open Source CFD Toolbox           |
|  \\    /   O peration     | Version:  2.1.1                                 |
|   \\  /    A nd           | Web:      www.OpenFOAM.org                      |
|    \\/     M anipulation  |                                                 |
\*---------------------------------------------------------------------------*/
FoamFile
{
    version     2.0;
    format      ascii;
    class       volScalarField;
    location    "0.0014";
    object      nut;
}
// * * * * * * * * * * * * * * * * * * * * * * * * * * * * * * * * * * * * * //

dimensions      [0 2 -1 0 0 0 0];

internalField   nonuniform List<scalar> 
36520
(
1.01514e-05
1.3251e-05
1.84036e-05
2.05964e-05
2.23524e-05
2.36124e-05
2.46852e-05
2.5568e-05
2.63029e-05
2.68957e-05
2.73645e-05
2.77837e-05
2.81753e-05
2.85872e-05
2.8961e-05
2.92641e-05
2.94061e-05
2.93297e-05
2.89812e-05
2.8337e-05
2.73988e-05
2.62093e-05
2.49697e-05
2.38265e-05
2.28204e-05
2.19461e-05
2.11523e-05
2.04031e-05
1.96619e-05
1.89189e-05
1.81664e-05
1.7407e-05
1.6636e-05
1.58762e-05
1.51412e-05
1.44517e-05
1.3826e-05
1.32854e-05
1.28623e-05
1.26112e-05
1.25988e-05
1.2904e-05
1.35957e-05
1.4675e-05
1.60675e-05
1.76608e-05
1.93089e-05
2.07773e-05
2.16803e-05
2.13275e-05
2.01496e-05
1.84654e-05
1.68727e-05
1.6852e-05
2.07753e-05
2.88761e-05
3.65315e-05
3.91855e-05
3.47914e-05
2.36095e-05
1.79227e-05
7.88706e-06
8.76614e-06
8.32502e-06
8.12879e-06
7.90319e-06
7.78686e-06
7.60011e-06
7.40976e-06
7.17732e-06
6.99795e-06
6.86469e-06
6.79563e-06
6.68799e-06
6.4787e-06
6.08124e-06
5.47168e-06
4.67949e-06
3.79905e-06
2.96643e-06
2.33078e-06
2.06332e-06
2.05109e-06
2.25797e-06
2.41638e-06
2.41247e-06
2.36154e-06
2.30194e-06
2.24271e-06
2.18189e-06
2.10913e-06
2.02755e-06
1.94438e-06
1.86892e-06
1.81653e-06
1.79072e-06
1.79447e-06
1.82899e-06
1.90359e-06
2.04465e-06
2.29257e-06
2.69112e-06
3.27072e-06
4.00859e-06
4.83329e-06
5.66041e-06
6.38738e-06
6.88138e-06
6.95122e-06
6.56677e-06
6.14804e-06
5.75787e-06
5.31083e-06
4.63441e-06
4.28503e-06
6.47435e-06
1.07845e-05
1.1307e-05
1.1634e-05
3.70019e-05
1.28204e-05
2.94669e-06
2.89951e-06
2.45232e-06
2.21703e-06
2.00506e-06
1.8859e-06
1.73336e-06
1.59755e-06
1.44539e-06
1.33482e-06
1.26537e-06
1.2383e-06
1.21438e-06
1.17031e-06
1.09583e-06
1.02652e-06
1.02796e-06
1.1565e-06
1.43187e-06
1.82615e-06
2.24988e-06
1.8377e-06
9.94317e-07
4.64642e-07
2.95656e-07
2.5693e-07
2.53897e-07
2.6459e-07
2.80437e-07
2.91876e-07
2.98302e-07
3.04531e-07
3.14723e-07
3.30929e-07
3.54094e-07
3.85274e-07
4.27815e-07
4.879e-07
5.77474e-07
7.13163e-07
9.1555e-07
1.20551e-06
1.59331e-06
2.07948e-06
2.6741e-06
3.41768e-06
4.38136e-06
5.67725e-06
7.57571e-06
9.77325e-06
1.20203e-05
1.34329e-05
1.29801e-05
1.05977e-05
7.93944e-06
6.79937e-06
9.43574e-06
8.43315e-06
3.50113e-05
9.26879e-06
1.07708e-06
8.77728e-07
6.47445e-07
5.36032e-07
4.48863e-07
4.06452e-07
3.69847e-07
3.64481e-07
3.90858e-07
4.7365e-07
6.22738e-07
8.63072e-07
1.2336e-06
1.82624e-06
2.77703e-06
4.2825e-06
6.5159e-06
9.48044e-06
1.28035e-05
1.57615e-05
1.73106e-05
1.39075e-05
8.05271e-06
3.74738e-06
1.86793e-06
1.15104e-06
8.41601e-07
6.64629e-07
5.4406e-07
4.68066e-07
4.2956e-07
4.15489e-07
4.12957e-07
4.1654e-07
4.22232e-07
4.33897e-07
4.55123e-07
4.88667e-07
5.38966e-07
6.18027e-07
7.40192e-07
9.18728e-07
1.16248e-06
1.49095e-06
1.94203e-06
2.57987e-06
3.51982e-06
4.96589e-06
7.28616e-06
1.10708e-05
1.60776e-05
2.05588e-05
2.23278e-05
2.08347e-05
1.71578e-05
1.06601e-05
1.04342e-05
7.19481e-06
3.4457e-05
7.25981e-06
3.38994e-07
2.3608e-07
1.89394e-07
2.14519e-07
2.83885e-07
4.15247e-07
6.37039e-07
1.00743e-06
1.60037e-06
2.48896e-06
3.76503e-06
5.60091e-06
8.33861e-06
1.25645e-05
1.90167e-05
2.85662e-05
4.17187e-05
5.76732e-05
7.3344e-05
8.31103e-05
8.2397e-05
6.75894e-05
4.51501e-05
2.59841e-05
1.56559e-05
1.11071e-05
9.08797e-06
7.90865e-06
6.97095e-06
6.25978e-06
5.84239e-06
5.64982e-06
5.48512e-06
5.21608e-06
4.87996e-06
4.55989e-06
4.28551e-06
4.15048e-06
4.13894e-06
3.65833e-06
2.86439e-06
1.83956e-06
1.26385e-06
1.42856e-06
1.713e-06
2.13192e-06
2.75831e-06
3.70516e-06
5.17257e-06
7.5019e-06
1.09612e-05
1.53503e-05
1.69987e-05
1.7919e-05
1.84434e-05
1.6453e-05
1.38734e-05
9.52863e-06
3.41578e-05
6.74513e-06
2.03646e-07
2.97992e-07
4.90462e-07
8.10966e-07
1.35794e-06
2.2534e-06
3.72289e-06
6.05678e-06
9.49189e-06
1.39703e-05
1.93919e-05
2.59582e-05
3.47494e-05
4.73346e-05
6.52076e-05
8.97839e-05
0.000121326
0.00015867
0.000196622
0.000222227
0.000220099
0.000195964
0.000155353
0.000111577
8.13676e-05
6.48221e-05
5.66513e-05
5.20175e-05
4.85225e-05
4.58923e-05
4.4704e-05
4.51991e-05
4.66383e-05
4.78096e-05
4.76416e-05
4.67666e-05
4.48977e-05
4.31072e-05
4.14525e-05
3.73838e-05
3.16104e-05
2.32692e-05
1.31817e-05
8.18314e-06
6.29692e-06
5.315e-06
4.42784e-06
4.3075e-06
4.97782e-06
6.31318e-06
8.39636e-06
1.06625e-05
1.28317e-05
1.3895e-05
1.44655e-05
1.47313e-05
1.38564e-05
1.04502e-05
3.30955e-05
9.45637e-06
7.55035e-07
1.42192e-06
2.52443e-06
4.13502e-06
6.73384e-06
1.06983e-05
1.67389e-05
2.54858e-05
3.65988e-05
4.82377e-05
5.94607e-05
7.04241e-05
8.29216e-05
0.000100494
0.000125441
0.000160794
0.000199226
0.000239243
0.000278643
0.000310049
0.00032095
0.000311397
0.000286635
0.00025174
0.000215591
0.000187225
0.000167427
0.000153218
0.000141389
0.000130735
0.000122863
0.00011881
0.000118427
0.000121064
0.000125092
0.000130344
0.000133847
0.000133096
0.00012959
0.000122815
0.000112243
9.95581e-05
7.83753e-05
5.9271e-05
4.71696e-05
3.87066e-05
3.04077e-05
2.16314e-05
1.45513e-05
1.09527e-05
9.87899e-06
1.08216e-05
1.25546e-05
1.42004e-05
1.37869e-05
1.24492e-05
1.25272e-05
1.13229e-05
3.19835e-05
1.68257e-05
2.7913e-06
5.10801e-06
8.95663e-06
1.4022e-05
2.16266e-05
3.15581e-05
4.51735e-05
6.13646e-05
7.92666e-05
9.36697e-05
0.000106381
0.000119017
0.000132712
0.000148564
0.000168661
0.000192325
0.000215617
0.000239132
0.000264228
0.00029057
0.000314056
0.000326481
0.000324778
0.000313712
0.000300977
0.000287677
0.000272558
0.000255349
0.000235916
0.000216243
0.000198552
0.000185277
0.00017676
0.000172774
0.000172387
0.000174621
0.000178282
0.000181087
0.000181754
0.000179017
0.000171715
0.000160998
0.000145244
0.000122944
9.98396e-05
7.97617e-05
6.29352e-05
4.91071e-05
3.80485e-05
2.94052e-05
2.30043e-05
2.0004e-05
1.94513e-05
2.02886e-05
1.78054e-05
1.27989e-05
1.1453e-05
1.14791e-05
3.09525e-05
2.34436e-05
6.4741e-06
1.42298e-05
2.3988e-05
3.28363e-05
4.56202e-05
5.43253e-05
6.2687e-05
7.07702e-05
7.8432e-05
8.54236e-05
9.16756e-05
9.91463e-05
0.000107553
0.000116942
0.000127693
0.000139816
0.000154722
0.000171289
0.000188333
0.000203971
0.000215675
0.000225138
0.000232832
0.000236514
0.000237926
0.000239233
0.000240515
0.000241708
0.000241011
0.000234122
0.000221004
0.000206832
0.000194314
0.000184301
0.000177325
0.000173356
0.000171811
0.000170893
0.000169378
0.000167052
0.000163547
0.000157695
0.000148734
0.00013584
0.000119418
0.00010143
8.335e-05
6.63409e-05
5.16634e-05
4.02635e-05
3.25972e-05
2.92148e-05
2.88871e-05
2.79894e-05
2.28406e-05
1.36674e-05
9.70433e-06
1.03148e-05
2.84492e-05
2.03176e-05
4.65865e-06
1.14967e-05
1.7429e-05
2.35539e-05
2.86952e-05
3.2975e-05
3.71221e-05
4.18654e-05
4.80161e-05
5.43892e-05
5.92021e-05
6.30518e-05
6.75356e-05
7.34828e-05
8.13933e-05
9.23602e-05
0.000105894
0.000119625
0.000133106
0.000146036
0.000156991
0.000165446
0.000172205
0.000178024
0.000184024
0.000190999
0.000198997
0.000207423
0.000215406
0.000221909
0.000224709
0.000219518
0.000205983
0.000189654
0.000175783
0.000166248
0.000161039
0.000158894
0.000158571
0.000158859
0.000158569
0.000156348
0.000151054
0.000142357
0.000129857
0.000114152
9.62824e-05
7.71163e-05
5.82699e-05
4.20908e-05
3.03991e-05
2.38366e-05
2.06671e-05
1.87635e-05
1.64075e-05
1.2116e-05
9.40494e-06
1.077e-05
2.69629e-05
1.69411e-05
3.65056e-06
1.40909e-05
2.27463e-05
2.7542e-05
3.16553e-05
3.52694e-05
4.00501e-05
4.70906e-05
5.60299e-05
6.40272e-05
6.82201e-05
7.04267e-05
7.40258e-05
8.06086e-05
8.9858e-05
0.000100872
0.000112711
0.000125031
0.000138254
0.000151175
0.000162966
0.000173329
0.000182513
0.000191859
0.000200545
0.000208948
0.000217408
0.000225921
0.000234401
0.000242378
0.00024844
0.000249652
0.000241996
0.000225822
0.000209054
0.000196827
0.000190255
0.000188498
0.000189659
0.000191596
0.000192353
0.000190907
0.00018638
0.000178545
0.000166995
0.000150807
0.000129921
0.000105425
7.92497e-05
5.41168e-05
3.49062e-05
2.48925e-05
2.11595e-05
2.02087e-05
1.89159e-05
1.36614e-05
1.05714e-05
1.17719e-05
2.84465e-05
1.89394e-05
4.62478e-06
8.53988e-06
1.28978e-05
1.72764e-05
2.52208e-05
3.3037e-05
4.35723e-05
5.56611e-05
6.65313e-05
7.30035e-05
7.50884e-05
7.55573e-05
7.81327e-05
8.4679e-05
9.54292e-05
0.000108527
0.000120311
0.00012963
0.000138336
0.000148783
0.000161448
0.000177334
0.0001954
0.000208572
0.000218321
0.000230578
0.000241802
0.000250903
0.000258879
0.000265856
0.000270192
0.000268861
0.000258858
0.000241565
0.000222093
0.000208262
0.0002025
0.000202183
0.00020443
0.000207709
0.000209419
0.000207714
0.000201592
0.000191625
0.000177467
0.000158121
0.00013259
0.00010162
6.90843e-05
4.04399e-05
2.21407e-05
1.52921e-05
1.57331e-05
2.06146e-05
2.17747e-05
1.45609e-05
1.22015e-05
1.36036e-05
3.17902e-05
1.96411e-05
4.63684e-06
7.1943e-06
1.02537e-05
1.36382e-05
2.05291e-05
2.85768e-05
3.99373e-05
5.36179e-05
6.73431e-05
7.62529e-05
7.82091e-05
7.54846e-05
7.2876e-05
7.38812e-05
7.96876e-05
8.84286e-05
9.6662e-05
0.000103087
0.00010932
0.000118457
0.000131348
0.00014922
0.000173915
0.000203524
0.000227342
0.00024199
0.000252294
0.000259672
0.000265901
0.00027112
0.000274149
0.000272586
0.000262327
0.000244023
0.000224089
0.000209967
0.000203562
0.000202788
0.00020529
0.000207974
0.000207649
0.000204053
0.000197354
0.000186694
0.000170803
0.000145526
0.000108644
6.98717e-05
4.14201e-05
2.35677e-05
1.51028e-05
1.50056e-05
1.95551e-05
2.4175e-05
2.468e-05
1.53442e-05
1.26706e-05
1.43467e-05
3.24555e-05
1.80079e-05
4.07551e-06
1.48614e-05
2.07548e-05
2.16499e-05
2.62785e-05
3.22254e-05
3.99603e-05
4.85243e-05
5.67396e-05
6.24667e-05
6.42972e-05
6.51098e-05
6.50114e-05
6.45544e-05
6.50785e-05
6.75317e-05
7.25813e-05
7.88167e-05
8.41108e-05
9.01207e-05
9.98955e-05
0.000114796
0.000136373
0.000166711
0.000201404
0.000227841
0.000243556
0.00025323
0.00025917
0.000262803
0.00026422
0.000262881
0.000255756
0.000238944
0.000219388
0.000205573
0.000197254
0.000193865
0.000193352
0.000192897
0.000190655
0.000185495
0.00017682
0.000165439
0.000151008
0.000131986
0.000106622
7.60925e-05
4.75893e-05
2.77953e-05
1.76814e-05
1.46547e-05
1.54916e-05
1.72235e-05
1.75644e-05
1.4228e-05
1.26924e-05
1.31977e-05
2.97396e-05
1.88446e-05
2.74335e-06
7.47086e-06
1.45246e-05
1.78505e-05
2.12896e-05
2.43381e-05
2.69202e-05
2.85044e-05
2.88641e-05
2.99668e-05
3.41015e-05
4.2048e-05
5.22216e-05
6.2547e-05
7.18365e-05
8.04741e-05
9.11825e-05
0.00010346
0.00011266
0.000116252
0.000117462
0.000119042
0.000128026
0.00014872
0.000181273
0.000216213
0.00024243
0.000255817
0.000261804
0.000263846
0.000261838
0.000251546
0.000232551
0.000213721
0.000200435
0.000192062
0.00018649
0.000182504
0.000179003
0.000173468
0.00016491
0.000153203
0.000138677
0.000123527
0.000107221
8.93917e-05
7.0788e-05
5.27683e-05
3.69677e-05
2.52096e-05
1.81599e-05
1.52421e-05
1.48808e-05
1.5045e-05
1.47443e-05
1.24e-05
1.19595e-05
1.24788e-05
2.88457e-05
2.05185e-05
3.99674e-06
9.07982e-06
1.65326e-05
2.41963e-05
3.12203e-05
3.86001e-05
4.68411e-05
5.56589e-05
6.44795e-05
7.65884e-05
9.50406e-05
0.000117056
0.000131807
0.000136445
0.000142578
0.000153938
0.000169517
0.000185881
0.000198764
0.000207254
0.000210586
0.000209245
0.000211823
0.000226154
0.000249698
0.00026645
0.000271536
0.000271804
0.00026818
0.000258926
0.000244178
0.000226672
0.000211116
0.000200239
0.000192425
0.000184805
0.000176914
0.000169512
0.000161065
0.000149979
0.000136551
0.000122248
0.000107439
9.22763e-05
7.78735e-05
6.51787e-05
5.34229e-05
4.24529e-05
3.25441e-05
2.47626e-05
1.98371e-05
1.74646e-05
1.69418e-05
1.68187e-05
1.5394e-05
1.1928e-05
1.15961e-05
1.25203e-05
2.91952e-05
1.74822e-05
3.00871e-06
5.77824e-06
1.05934e-05
1.72061e-05
2.60479e-05
3.78487e-05
5.59604e-05
8.16864e-05
0.00010423
0.000115943
0.000117135
0.000113849
0.000113929
0.000123196
0.000144062
0.000175394
0.00021138
0.000246788
0.000274879
0.00029156
0.000301046
0.000308503
0.000310493
0.000306444
0.000298433
0.000292379
0.000287548
0.00027778
0.000261746
0.000243476
0.000226013
0.000211089
0.000199963
0.000191513
0.000183733
0.000177717
0.000174213
0.000171441
0.000166531
0.000157871
0.000145168
0.000129331
0.000110835
9.06737e-05
7.21598e-05
5.77817e-05
4.65898e-05
3.74472e-05
3.05022e-05
2.60423e-05
2.40344e-05
2.46514e-05
2.64799e-05
2.5253e-05
2.07239e-05
1.54444e-05
1.42189e-05
1.31583e-05
3.20345e-05
9.31137e-06
6.23536e-07
1.18132e-06
2.1036e-06
3.48395e-06
5.61341e-06
8.85089e-06
1.37966e-05
2.07406e-05
2.85955e-05
3.55162e-05
3.99301e-05
4.19106e-05
4.69743e-05
5.74591e-05
7.4707e-05
9.93745e-05
0.000128876
0.000158134
0.000182234
0.000200942
0.000216796
0.00022964
0.000235414
0.000233891
0.000226391
0.000212913
0.000193656
0.000173589
0.000155998
0.000139397
0.00012257
0.000106384
9.27958e-05
8.27894e-05
7.76909e-05
7.94784e-05
8.40326e-05
8.81985e-05
8.94145e-05
8.55547e-05
7.89382e-05
7.05106e-05
6.14498e-05
5.15793e-05
4.25346e-05
3.69468e-05
3.30429e-05
3.04313e-05
3.00577e-05
3.21895e-05
3.66797e-05
4.12158e-05
3.91252e-05
3.306e-05
2.68368e-05
2.26234e-05
1.84217e-05
1.36123e-05
3.4786e-05
7.56588e-06
1.74776e-07
2.27919e-07
3.57815e-07
5.63345e-07
8.65964e-07
1.29986e-06
1.91478e-06
2.75072e-06
3.74393e-06
4.81288e-06
5.85268e-06
6.71542e-06
8.43236e-06
1.12511e-05
1.57307e-05
2.22638e-05
3.0851e-05
4.09678e-05
5.20522e-05
6.41426e-05
7.78671e-05
9.22317e-05
0.000103476
0.000104108
9.36997e-05
7.60259e-05
5.84647e-05
4.5251e-05
3.59774e-05
2.81028e-05
2.06278e-05
1.43244e-05
1.02057e-05
8.50197e-06
8.48723e-06
8.92328e-06
9.32889e-06
9.45571e-06
9.28535e-06
9.40532e-06
1.08454e-05
1.10809e-05
1.05971e-05
9.93107e-06
1.00423e-05
1.20122e-05
1.46563e-05
1.77773e-05
2.18842e-05
2.82797e-05
3.67532e-05
4.3023e-05
4.35955e-05
3.8906e-05
3.27018e-05
2.73199e-05
2.09047e-05
1.29787e-05
3.76362e-05
8.47464e-06
3.54562e-07
1.83609e-07
1.27753e-07
1.30165e-07
1.50411e-07
1.89238e-07
2.41505e-07
3.10007e-07
3.90592e-07
4.82183e-07
5.91361e-07
6.98457e-07
8.90835e-07
1.21086e-06
1.73169e-06
2.54641e-06
3.75792e-06
5.48498e-06
7.86791e-06
1.11024e-05
1.53645e-05
2.04276e-05
2.5384e-05
2.53671e-05
2.05795e-05
1.41386e-05
9.06912e-06
5.93887e-06
4.09546e-06
2.76616e-06
1.73401e-06
1.10774e-06
8.77759e-07
8.94958e-07
9.74483e-07
1.08052e-06
1.20159e-06
1.33636e-06
1.49873e-06
1.73063e-06
2.09316e-06
2.62676e-06
3.42779e-06
4.59472e-06
6.24678e-06
8.68556e-06
1.23005e-05
1.73944e-05
2.40825e-05
3.32278e-05
4.32133e-05
4.51155e-05
4.18715e-05
3.54485e-05
2.91484e-05
2.21381e-05
1.70445e-05
1.28996e-05
3.92982e-05
1.06817e-05
1.10758e-06
6.97319e-07
4.61916e-07
3.65786e-07
2.86609e-07
2.42524e-07
1.97995e-07
1.69942e-07
1.54899e-07
1.57782e-07
1.71771e-07
1.92864e-07
2.11034e-07
2.25889e-07
2.48229e-07
2.96981e-07
3.92225e-07
5.5814e-07
8.27029e-07
1.24432e-06
1.85829e-06
2.70814e-06
3.54184e-06
3.41543e-06
2.50514e-06
1.5319e-06
9.046e-07
5.84843e-07
4.35076e-07
3.61322e-07
3.44359e-07
3.69017e-07
4.00462e-07
4.3638e-07
4.85333e-07
5.52166e-07
6.45307e-07
7.78456e-07
9.75154e-07
1.27371e-06
1.73081e-06
2.42583e-06
3.46703e-06
5.02823e-06
7.36007e-06
1.09016e-05
1.60677e-05
2.30747e-05
3.18731e-05
3.90484e-05
4.23421e-05
4.10699e-05
3.57237e-05
2.82628e-05
2.07973e-05
1.20698e-05
1.06435e-05
9.65861e-06
4.04004e-05
1.35769e-05
3.03738e-06
2.43738e-06
1.85366e-06
1.59422e-06
1.3627e-06
1.22724e-06
1.06865e-06
9.54532e-07
8.67608e-07
8.41988e-07
8.5215e-07
8.75281e-07
8.65987e-07
8.0348e-07
6.95356e-07
5.65813e-07
4.38798e-07
3.28712e-07
2.52492e-07
2.21997e-07
2.42421e-07
3.15144e-07
3.74097e-07
3.52952e-07
2.83114e-07
2.35976e-07
2.40068e-07
2.78615e-07
3.22651e-07
3.59367e-07
3.85718e-07
4.05794e-07
4.27886e-07
4.55892e-07
4.92287e-07
5.49087e-07
6.41806e-07
7.88475e-07
1.01353e-06
1.35491e-06
1.87211e-06
2.65525e-06
3.83366e-06
5.62012e-06
8.30318e-06
1.2275e-05
1.77217e-05
2.43351e-05
3.11468e-05
3.51817e-05
3.55328e-05
3.27717e-05
2.70705e-05
1.94193e-05
1.32396e-05
8.42119e-06
8.46007e-06
8.73145e-06
4.19325e-05
1.93532e-05
8.14159e-06
8.1252e-06
7.34584e-06
6.99098e-06
6.61683e-06
6.38487e-06
6.07787e-06
5.83601e-06
5.6285e-06
5.5212e-06
5.47765e-06
5.44519e-06
5.32819e-06
5.07214e-06
4.6788e-06
4.19206e-06
3.67436e-06
3.17309e-06
2.74122e-06
2.40581e-06
2.18971e-06
2.06618e-06
1.99316e-06
1.97126e-06
1.99025e-06
2.02087e-06
2.04654e-06
2.06272e-06
2.07467e-06
2.08436e-06
2.0902e-06
2.08932e-06
2.08504e-06
2.07989e-06
2.07664e-06
2.09375e-06
2.15047e-06
2.26007e-06
2.42802e-06
2.66072e-06
2.97279e-06
3.38323e-06
3.93727e-06
4.77989e-06
6.23415e-06
8.8302e-06
1.18062e-05
1.39794e-05
1.44881e-05
1.33296e-05
1.10349e-05
8.71163e-06
7.00155e-06
6.48214e-06
8.4721e-06
1.1011e-05
1.01136e-05
1.1992e-05
4.28335e-05
1.26426e-05
1.5489e-05
1.99354e-05
2.17529e-05
2.31963e-05
2.42023e-05
2.50303e-05
2.56896e-05
2.62146e-05
2.66395e-05
2.69968e-05
2.73314e-05
2.7656e-05
2.79577e-05
2.81902e-05
2.83087e-05
2.82764e-05
2.80777e-05
2.77036e-05
2.71583e-05
2.64506e-05
2.55987e-05
2.46234e-05
2.36253e-05
2.26653e-05
2.17714e-05
2.09222e-05
2.009e-05
1.92718e-05
1.84831e-05
1.77327e-05
1.70365e-05
1.63916e-05
1.5794e-05
1.52443e-05
1.47665e-05
1.43804e-05
1.41214e-05
1.40168e-05
1.40891e-05
1.43502e-05
1.47827e-05
1.53248e-05
1.58472e-05
1.62587e-05
1.65646e-05
1.67702e-05
1.66683e-05
1.62971e-05
1.56194e-05
1.4775e-05
1.4068e-05
1.41549e-05
1.62853e-05
2.1668e-05
2.88622e-05
3.35581e-05
3.25215e-05
2.94608e-05
2.71617e-05
1.17066e-05
1.51011e-05
1.97027e-05
2.17e-05
2.32732e-05
2.42477e-05
2.50992e-05
2.57162e-05
2.62264e-05
2.66445e-05
2.69741e-05
2.72786e-05
2.75108e-05
2.77134e-05
2.78135e-05
2.78365e-05
2.77271e-05
2.75092e-05
2.71625e-05
2.67019e-05
2.61332e-05
2.54729e-05
2.47328e-05
2.39252e-05
2.30559e-05
2.21371e-05
2.11705e-05
2.01684e-05
1.91839e-05
1.82532e-05
1.73736e-05
1.65536e-05
1.57923e-05
1.50954e-05
1.4463e-05
1.39006e-05
1.34293e-05
1.30906e-05
1.29305e-05
1.29952e-05
1.33157e-05
1.38875e-05
1.46353e-05
1.5393e-05
1.59593e-05
1.61839e-05
1.60085e-05
1.54329e-05
1.47436e-05
1.40753e-05
1.35333e-05
1.32496e-05
1.36064e-05
1.57037e-05
2.11967e-05
2.96268e-05
3.692e-05
3.87238e-05
3.40894e-05
2.78673e-05
1.75108e-05
7.03222e-06
7.24302e-06
6.47872e-06
5.97127e-06
5.51677e-06
5.25834e-06
4.96115e-06
4.77718e-06
4.58557e-06
4.45902e-06
4.33188e-06
4.22763e-06
4.07102e-06
3.91607e-06
3.71989e-06
3.52972e-06
3.33955e-06
3.16113e-06
3.00064e-06
2.85183e-06
2.72194e-06
2.60373e-06
2.49751e-06
2.40722e-06
2.33142e-06
2.2737e-06
2.23256e-06
2.20687e-06
2.19588e-06
2.19354e-06
2.19884e-06
2.20945e-06
2.21772e-06
2.21279e-06
2.20257e-06
2.21564e-06
2.27182e-06
2.39314e-06
2.60413e-06
2.91505e-06
3.30478e-06
3.71919e-06
4.09144e-06
4.43104e-06
4.68881e-06
4.78141e-06
4.70212e-06
4.4731e-06
4.19499e-06
3.96154e-06
3.83662e-06
3.86137e-06
4.14181e-06
5.00407e-06
7.3839e-06
1.11865e-05
1.20211e-05
1.00701e-05
4.37291e-05
1.18068e-05
2.26291e-06
1.84093e-06
1.33259e-06
1.0448e-06
8.2894e-07
7.12836e-07
5.99116e-07
5.36963e-07
4.78069e-07
4.49227e-07
4.29591e-07
4.17316e-07
3.9763e-07
3.79003e-07
3.54481e-07
3.3343e-07
3.14924e-07
3.0014e-07
2.89661e-07
2.8119e-07
2.75994e-07
2.73182e-07
2.72407e-07
2.74258e-07
2.79664e-07
2.89805e-07
3.04637e-07
3.20955e-07
3.39122e-07
3.59478e-07
3.83972e-07
4.11058e-07
4.38656e-07
4.67225e-07
5.02189e-07
5.52843e-07
6.28737e-07
7.42088e-07
9.10889e-07
1.16296e-06
1.53477e-06
2.0685e-06
2.8082e-06
3.81563e-06
5.14914e-06
6.88048e-06
9.1181e-06
1.04241e-05
1.06982e-05
1.05012e-05
1.0075e-05
9.567e-06
9.15016e-06
8.66268e-06
8.10882e-06
6.8883e-06
8.04243e-06
9.92754e-06
4.57089e-05
9.02075e-06
7.50987e-07
4.52629e-07
2.63676e-07
1.82328e-07
1.28933e-07
1.04613e-07
8.32427e-08
7.341e-08
6.56659e-08
6.58509e-08
7.04663e-08
8.04039e-08
9.61063e-08
1.21948e-07
1.62206e-07
2.23795e-07
3.1307e-07
4.34197e-07
5.84937e-07
7.5823e-07
9.36297e-07
1.10385e-06
1.25348e-06
1.38209e-06
1.45763e-06
1.46342e-06
1.38388e-06
1.27862e-06
1.15861e-06
9.84294e-07
8.02611e-07
6.77131e-07
6.55942e-07
6.9598e-07
7.78586e-07
9.05742e-07
1.08812e-06
1.34416e-06
1.69153e-06
2.17035e-06
2.84516e-06
3.82868e-06
5.2776e-06
7.38046e-06
1.04506e-05
1.49633e-05
2.12581e-05
2.9079e-05
3.83252e-05
4.62408e-05
4.90643e-05
4.61579e-05
4.03422e-05
3.47368e-05
2.94213e-05
2.00974e-05
1.65999e-05
1.46539e-05
4.66247e-05
7.37529e-06
2.62438e-07
1.15435e-07
5.73439e-08
4.27617e-08
4.12352e-08
5.09912e-08
6.95913e-08
1.01924e-07
1.53e-07
2.34801e-07
3.64167e-07
5.81036e-07
9.51048e-07
1.58825e-06
2.66569e-06
4.41659e-06
7.07859e-06
1.07613e-05
1.50333e-05
1.95968e-05
2.37654e-05
2.70263e-05
2.91852e-05
3.01476e-05
2.98646e-05
2.8276e-05
2.54152e-05
2.16465e-05
1.75661e-05
1.37699e-05
1.00858e-05
6.93484e-06
4.77933e-06
3.47498e-06
2.70683e-06
2.29941e-06
2.18468e-06
2.33013e-06
2.59638e-06
2.9694e-06
3.47455e-06
4.28048e-06
5.67725e-06
7.81896e-06
1.09492e-05
1.56858e-05
2.26744e-05
3.35113e-05
5.20928e-05
7.24239e-05
8.39528e-05
8.24548e-05
7.52279e-05
6.53398e-05
5.23731e-05
3.71216e-05
2.66399e-05
1.76515e-05
4.44677e-05
6.17704e-06
7.42175e-08
4.38239e-08
5.25648e-08
7.92393e-08
1.24599e-07
2.00203e-07
3.2804e-07
5.46145e-07
9.14823e-07
1.53559e-06
2.55862e-06
4.29326e-06
7.21885e-06
1.20241e-05
1.95876e-05
3.08195e-05
4.59077e-05
6.39338e-05
8.28204e-05
0.00010155
0.000118541
0.00013226
0.000142161
0.000147654
0.000148896
0.00014582
0.000138752
0.000127863
0.000114035
9.88082e-05
8.36224e-05
6.94463e-05
5.73678e-05
4.76152e-05
3.91352e-05
3.17432e-05
2.50848e-05
1.95318e-05
1.47253e-05
1.18261e-05
9.92572e-06
7.28617e-06
5.91496e-06
6.7236e-06
9.02332e-06
1.27366e-05
1.84212e-05
2.75845e-05
4.24621e-05
6.25174e-05
8.41492e-05
9.69474e-05
9.23773e-05
7.66624e-05
5.7535e-05
4.28536e-05
3.00743e-05
1.72985e-05
4.10776e-05
6.19005e-06
1.14912e-07
1.95155e-07
3.33602e-07
5.36162e-07
8.55988e-07
1.36837e-06
2.21144e-06
3.60673e-06
5.85539e-06
9.22231e-06
1.41501e-05
2.14516e-05
3.19466e-05
4.65271e-05
6.60566e-05
9.16803e-05
0.000123273
0.000156158
0.000187495
0.000216107
0.000241407
0.000262398
0.000278697
0.000289741
0.000295826
0.000297254
0.000294518
0.000287301
0.000274572
0.000257724
0.00023923
0.000220929
0.000203485
0.000190038
0.000179693
0.000171485
0.000162078
0.000152873
0.000137499
0.000117854
9.5184e-05
7.07332e-05
4.6736e-05
2.64947e-05
1.58461e-05
1.38919e-05
1.61398e-05
2.15988e-05
3.07342e-05
4.2812e-05
5.83372e-05
7.28876e-05
7.30887e-05
5.98343e-05
4.57446e-05
3.87717e-05
2.92303e-05
1.7614e-05
3.92318e-05
1.02216e-05
8.06665e-07
1.6687e-06
3.15925e-06
5.28447e-06
8.40012e-06
1.27746e-05
1.87786e-05
2.70468e-05
3.8139e-05
4.93679e-05
6.03372e-05
7.43442e-05
9.11669e-05
0.000110602
0.000133744
0.000163207
0.000198165
0.000233557
0.000267657
0.000298578
0.000325677
0.000347997
0.000365318
0.000377382
0.000384848
0.000388601
0.000389005
0.000385658
0.00037867
0.000367623
0.000353017
0.000336604
0.000320134
0.000305856
0.000295901
0.000290742
0.000288563
0.000289247
0.000291283
0.00029063
0.000282552
0.000259928
0.0002226
0.000173439
0.000123221
7.68013e-05
4.73168e-05
3.628e-05
3.43231e-05
3.65534e-05
4.25689e-05
4.94991e-05
4.94373e-05
4.03543e-05
2.92876e-05
2.47921e-05
2.1316e-05
1.60925e-05
3.55188e-05
2.22436e-05
4.9621e-06
9.91061e-06
1.74761e-05
2.74747e-05
4.09965e-05
5.74696e-05
7.61268e-05
9.85738e-05
0.000127275
0.000151282
0.000165268
0.000171718
0.000174895
0.000177115
0.000181562
0.000192068
0.000209819
0.000235258
0.000264825
0.000293354
0.000318855
0.000340745
0.000358355
0.000370913
0.000378554
0.000382485
0.000384015
0.000383683
0.000382078
0.000378603
0.000371793
0.000361107
0.000348252
0.000335576
0.000324253
0.000315624
0.000310046
0.000306223
0.000303031
0.000297198
0.000285939
0.000268255
0.0002449
0.000218208
0.000190222
0.000162243
0.000133126
0.000103781
7.86077e-05
6.03976e-05
4.84578e-05
4.09074e-05
3.62601e-05
3.06828e-05
2.10925e-05
1.47822e-05
1.3905e-05
1.31469e-05
3.1699e-05
3.05218e-05
1.2262e-05
2.57239e-05
4.08991e-05
6.14733e-05
8.63662e-05
0.000107593
0.000125232
0.000138334
0.000152229
0.000168338
0.000186271
0.000204161
0.000218484
0.000220779
0.000207617
0.000192652
0.000187239
0.000191208
0.000202322
0.000216784
0.000231823
0.000246543
0.000259939
0.000270878
0.000278491
0.000282648
0.000284076
0.000283863
0.000282992
0.000282216
0.000281182
0.000278289
0.000271429
0.000261295
0.000251435
0.00024336
0.000236618
0.00023049
0.000224349
0.000216928
0.000207135
0.000193407
0.000175359
0.000153776
0.000130652
0.000107713
8.55644e-05
6.49734e-05
4.7705e-05
3.58099e-05
2.92265e-05
2.57965e-05
2.27609e-05
1.95943e-05
1.51209e-05
1.00835e-05
9.10775e-06
1.08128e-05
2.69981e-05
2.40666e-05
5.18009e-06
2.50905e-05
3.66005e-05
4.90919e-05
6.44121e-05
8.14189e-05
9.91304e-05
0.00011248
0.000120659
0.000129145
0.000138915
0.000147792
0.000154465
0.00016008
0.000165857
0.000174516
0.000181662
0.000181678
0.000182777
0.000188461
0.000196407
0.000203874
0.000210421
0.000216273
0.000220701
0.000222844
0.000222205
0.000218927
0.0002138
0.000207703
0.000201374
0.000194699
0.000186353
0.000176753
0.000167428
0.000159188
0.000152947
0.000148775
0.000146241
0.000144761
0.000142708
0.000138161
0.000130076
0.000117662
0.00010164
8.39776e-05
6.60918e-05
4.92736e-05
3.47345e-05
2.43613e-05
1.82947e-05
1.48419e-05
1.26283e-05
1.12563e-05
1.00508e-05
8.14443e-06
8.30002e-06
1.06663e-05
2.58407e-05
1.97571e-05
2.62556e-06
1.21771e-05
1.76508e-05
2.11803e-05
2.46535e-05
2.80627e-05
3.03462e-05
3.06672e-05
3.07362e-05
3.24658e-05
3.65733e-05
4.28388e-05
4.95487e-05
5.85771e-05
7.29866e-05
9.56513e-05
0.000127913
0.000160807
0.000184299
0.0001982
0.000208813
0.000218485
0.000226398
0.000231954
0.000234636
0.000234036
0.000229931
0.000222633
0.000212922
0.000201244
0.000188538
0.000176254
0.000165044
0.000154764
0.000145678
0.000138718
0.000134956
0.000134223
0.000135645
0.000137814
0.00013845
0.000135652
0.000128033
0.000114656
9.59002e-05
7.36869e-05
5.21429e-05
3.45175e-05
2.18862e-05
1.44708e-05
1.07647e-05
8.9843e-06
8.06094e-06
7.86795e-06
7.99943e-06
7.34783e-06
8.28625e-06
1.0181e-05
2.57691e-05
1.96477e-05
3.88797e-06
1.61781e-05
2.59481e-05
3.05853e-05
3.65084e-05
4.24433e-05
4.87137e-05
5.49417e-05
5.91068e-05
6.05597e-05
5.94598e-05
5.70337e-05
5.60308e-05
6.10838e-05
7.4679e-05
9.68163e-05
0.000121932
0.000144345
0.000165738
0.000186669
0.000206321
0.000222191
0.000231185
0.00023471
0.000236242
0.000237321
0.000237251
0.000235276
0.000230042
0.000220581
0.000207723
0.000193328
0.000179707
0.000167984
0.000157954
0.000150879
0.000147413
0.000146804
0.000148179
0.000149958
0.000150013
0.000146424
0.000137224
0.000120822
9.80936e-05
7.36239e-05
5.15884e-05
3.39377e-05
2.1665e-05
1.42591e-05
1.02964e-05
8.6506e-06
7.7849e-06
7.46544e-06
7.75599e-06
7.42794e-06
8.08496e-06
9.95699e-06
2.58128e-05
1.98607e-05
4.63127e-06
1.23279e-05
2.10199e-05
2.68597e-05
3.52297e-05
4.43828e-05
5.43958e-05
6.38181e-05
7.04384e-05
7.37956e-05
7.52198e-05
7.62668e-05
7.77065e-05
8.18477e-05
9.13109e-05
0.000104877
0.000119862
0.000136674
0.000157589
0.000179894
0.000198647
0.00021225
0.000222351
0.000230626
0.000238067
0.00024437
0.000248856
0.000251514
0.000252401
0.000250724
0.000244366
0.000232314
0.000218358
0.000205029
0.000192569
0.000182639
0.000177975
0.000177595
0.000178786
0.000179146
0.000177046
0.000170497
0.000158042
0.000139209
0.000114909
8.846e-05
6.37661e-05
4.32824e-05
2.82927e-05
1.9202e-05
1.49155e-05
1.31762e-05
1.21827e-05
1.15461e-05
1.12768e-05
9.96013e-06
9.07124e-06
1.07612e-05
2.67495e-05
2.50974e-05
7.92967e-06
1.43308e-05
1.86837e-05
2.39616e-05
3.15413e-05
4.0174e-05
5.05547e-05
6.21597e-05
7.21218e-05
7.84504e-05
8.23759e-05
8.66439e-05
9.22701e-05
9.8895e-05
0.000109628
0.000128257
0.00015319
0.000182894
0.000215271
0.000246416
0.000268366
0.000280714
0.000289308
0.000296937
0.000303857
0.000309523
0.000313388
0.000315207
0.00031556
0.000314483
0.000308715
0.000296421
0.000279875
0.000262483
0.000246809
0.00023579
0.000231232
0.0002305
0.000230222
0.000226869
0.000217974
0.000202382
0.000180818
0.000152638
0.000120209
8.89589e-05
6.29676e-05
4.29945e-05
2.92708e-05
2.06048e-05
1.54826e-05
1.28593e-05
1.25194e-05
1.38746e-05
1.4602e-05
1.16899e-05
1.03481e-05
1.17308e-05
2.86956e-05
2.90687e-05
7.67502e-06
9.46165e-06
1.39778e-05
2.04474e-05
2.82517e-05
3.79649e-05
4.9579e-05
6.27276e-05
7.47345e-05
8.33832e-05
9.00264e-05
9.86701e-05
0.000110474
0.000125741
0.00014572
0.000172858
0.000208053
0.000248942
0.000289633
0.000318078
0.000331556
0.000340978
0.000349186
0.000355879
0.000361482
0.000365577
0.000367567
0.000367007
0.000363252
0.000354693
0.000340526
0.00032135
0.000298301
0.000275357
0.000258972
0.000249317
0.000245696
0.000244571
0.000241783
0.000234138
0.000217232
0.00019015
0.000155411
0.00011781
8.53854e-05
6.00779e-05
4.14942e-05
2.84551e-05
1.9916e-05
1.48806e-05
1.2555e-05
1.25923e-05
1.59193e-05
2.06541e-05
2.09299e-05
1.52083e-05
1.26779e-05
1.35968e-05
3.22156e-05
2.10101e-05
5.77747e-06
1.08027e-05
1.87419e-05
2.81233e-05
3.97661e-05
5.25298e-05
6.76734e-05
8.35093e-05
9.85464e-05
0.000112494
0.000124122
0.000138136
0.00015674
0.000180833
0.000208854
0.00024081
0.000276438
0.000313855
0.000346628
0.000364307
0.000369886
0.000373844
0.000377537
0.000380882
0.000384122
0.000386201
0.000386216
0.000383781
0.000377807
0.000367491
0.000352508
0.000333924
0.000314342
0.000296319
0.000282262
0.000272512
0.000267296
0.000263559
0.000256308
0.000241825
0.000220198
0.000193713
0.000162897
0.000126636
9.04682e-05
6.05899e-05
3.8642e-05
2.47865e-05
1.80959e-05