/*--------------------------------*- C++ -*----------------------------------*\
| =========                 |                                                 |
| \\      /  F ield         | OpenFOAM: The Open Source CFD Toolbox           |
|  \\    /   O peration     | Version:  2.1.1                                 |
|   \\  /    A nd           | Web:      www.OpenFOAM.org                      |
|    \\/     M anipulation  |                                                 |
\*---------------------------------------------------------------------------*/
FoamFile
{
    version     2.0;
    format      ascii;
    class       volScalarField;
    location    "0.0014";
    object      p;
}
// * * * * * * * * * * * * * * * * * * * * * * * * * * * * * * * * * * * * * //

dimensions      [1 -1 -2 0 0 0 0];

internalField   nonuniform List<scalar> 
36520
(
6.92142
3.11582
2.64482
1.71344
0.763632
-0.471311
-2.80497
-6.559
-11.2919
-15.4573
-17.1167
-15.1632
-10.9965
-7.98839
-9.75737
-19.6574
-39.0695
-66.3151
-96.8415
-122.328
-132.383
-120.823
-88.3364
-42.1453
5.77629
42.471
62.7649
71.7879
75.314
76.9559
77.9837
78.7026
79.0762
78.855
77.9164
76.1339
73.4857
70.1624
66.5452
62.9632
59.5376
56.2259
52.6604
48.1806
42.1233
33.6387
21.8122
5.33743
-18.1598
-52.0818
-97.9471
-146.507
-181.83
-195.953
-194.597
-212.642
-321.655
-508.488
-668.908
1797.15
7.67538
3.64642
2.65767
1.66178
0.828537
-0.273937
-2.56115
-6.45168
-11.5102
-16.0364
-17.8145
-15.5719
-10.7532
-7.00063
-8.21
-18.0057
-37.9427
-66.3689
-98.6657
-126.276
-137.604
-125.985
-92.4326
-43.9551
6.80867
44.9484
64.9896
73.234
76.1371
77.4875
78.5648
79.2453
79.6787
79.3432
78.3615
76.5256
73.784
70.3282
66.596
62.9622
59.5843
56.4331
53.0847
48.8493
43.124
35.079
23.7328
7.61692
-16.0657
-51.4047
-100.553
-154.141
-192.647
-207.384
-207.713
-242.368
-435.52
-762.638
-1417.71
1063.77
9.3152
4.78591
2.7141
1.47246
0.856152
0.0210005
-2.13747
-6.29725
-12.0034
-17.2455
-19.2038
-16.2798
-10.2306
-5.14145
-5.26674
-14.802
-35.6979
-66.2949
-101.941
-133.726
-147.71
-135.876
-100.353
-47.3606
8.98988
49.8998
69.2876
75.9378
77.7166
78.5909
79.6285
80.2421
80.4545
80.2449
79.2433
77.289
74.3506
70.622
66.6451
62.897
59.6181
56.8331
54.1355
50.6712
45.7356
38.5219
28.1472
12.6879
-11.5362
-49.3833
-105.479
-169.778
-216.934
-231.753
-225.716
-260.823
-486.902
-697.924
-1411.12
314.787
10.1273
5.21175
2.57302
1.24427
0.952817
0.499458
-1.48037
-6.08747
-12.7923
-19.0772
-21.1507
-17.0383
-9.31507
-2.5459
-1.31115
-10.401
-32.4732
-65.9277
-106.117
-143.886
-161.986
-149.184
-111.439
-52.2997
11.9716
56.8285
75.0731
79.4012
79.7074
79.9952
80.9879
81.7338
82.0554
81.7906
80.6825
78.4779
75.2183
71.0551
66.6976
62.7745
59.6223
57.3434
55.5284
53.0477
49.2028
43.3375
34.5226
20.3398
-3.84266
-43.9193
-104.793
-178.334
-228.622
-240.526
-239.195
-270.733
-502.21
-741.063
-1339.21
396.892
10.4428
5.23118
2.17026
0.946759
1.05788
1.08594
-0.720268
-5.96084
-14.0019
-21.489
-23.2601
-17.3525
-7.56522
0.855378
3.15189
-5.80432
-29.2031
-65.645
-110.842
-155.791
-178.652
-164.267
-124.213
-58.1547
15.318
64.4825
81.1837
82.7939
81.5535
81.3895
82.5042
83.6182
84.1135
83.7803
82.47
79.9073
76.2336
71.3417
66.3248
62.0948
59.0508
57.4219
56.8485
55.598
53.0832
49.018
41.7959
28.9536
6.09003
-33.0855
-93.755
-168.821
-218.633
-211.675
-191.366
-233.808
-419.719
-595.954
-1071.21
1457.8
9.43531
4.57189
1.3774
0.474591
1.07019
1.72422
0.134907
-5.90283
-15.6165
-24.1513
-24.6067
-16.2652
-4.11651
5.47251
7.59385
-2.48801
-27.2655
-66.0124
-115.161
-166.78
-194.118
-178.499
-135.364
-63.7673
16.5535
70.0952
85.7184
85.1321
82.5726
82.2825
83.7386
85.5597
86.4354
86.2805
85.0075
82.2086
77.476
71.5525
65.6762
60.7999
57.6915
56.6584
57.7611
58.59
57.9923
55.9034
51.989
43.2962
24.309
-11.5594
-68.6224
-144.442
-199.611
-189.496
-110.473
18.9095
-222.293
-466.949
-181.251
15570.2
9.34647
3.68363
0.35492
0.121224
1.13084
2.43741
1.11136
-6.16758
-18.3667
-27.3539
-24.7491
-12.4531
1.58635
10.3622
10.4112
-1.73288
-28.0649
-67.1846
-117.354
-172.349
-200.739
-180.302
-131.129
-65.0474
12.9052
72.2439
87.9772
85.8336
82.3859
82.002
84.1858
86.7573
88.3059
88.5757
87.605
84.3056
78.6536
71.6995
64.7055
59.3021
56.1439
55.4627
57.3649
59.1772
59.5425
58.5278
55.9779
49.9841
36.7333
8.52534
-40.199
-105.735
-162.793
-160.322
-59.8491
124.08
419.661
1137.29
12583.5
96937.3
1.50814
1.59
-0.991583
-0.497347
1.08004
3.31185
2.00666
-7.68909
-23.3671
-31.8321
-22.8005
-4.21519
12.1565
16.4976
12.4066
-5.17866
-31.9923
-70.8384
-117.593
-169.852
-197.675
-176.495
-118.634
-46.0543
19.952
62.377
79.9482
81.4712
79.493
79.3725
83.3097
87.5586
90.1789
91.2274
91.0701
87.4017
81.0311
73.0356
65.2953
58.9977
55.1282
53.955
55.8029
59.8062
62.4217
62.8614
61.6955
57.1677
46.0056
22.5533
-15.0845
-65.7904
-119.441
-124.357
-29.5311
154.552
510.927
1909
42458.6
182598
20.1159
5.71408
-1.09766
-1.06358
0.241275
1.96615
-1.06889
-14.4934
-31.8363
-33.8526
-15.6372
8.79855
24.1448
22.154
10.6025
-12.7366
-41.6936
-77.0721
-118.832
-168.737
-188.937
-162.707
-107.586
-42.769
19.8735
61.0668
78.1317
79.8422
76.2137
80.3422
87.1377
88.9581
89.7152
92.2214
92.3788
88.9581
81.9757
73.3199
64.9735
57.8168
53.047
52.5732
55.4135
60.4838
64.3239
66.3221
67.109
66.3306
60.6367
43.9788
14.8389
-28.866
-87.361
-99.4421
-17.7451
189.59
577.963
3893.53
48126.4
206466
43.5138
7.55164
0.343512
0.188002
-0.238946
1.34905
-1.09204
-13.5782
-34.4347
-43.5083
-22.4402
10.4432
33.4405
32.9904
19.3095
-2.21808
-36.5294
-81.5971
-132.748
-177.909
-189.392
-158.092
-106.002
-39.878
21.6985
67.4342
86.2056
85.3816
81.5518
80.7634
82.3082
85.8401
93.3001
98.5898
96.1368
88.9917
80.0182
70.9372
62.6885
55.6947
51.5719
51.7993
55.6638
60.4197
66.2934
72.6872
76.9003
79.1192
76.8395
64.8429
40.9887
-0.514836
-63.3593
-74.2901
0.786372
216.7
636.201
3905.13
47745.6
210824
16.3627
0.945206
-2.4535
1.00591
3.85866
6.0577
2.04792
-15.7619
-40.5812
-44.5783
-23.3315
16.74
37.202
30.7144
18.5582
0.374558
-25.5977
-59.986
-119.613
-165.197
-193.74
-169.472
-110.608
-45.1141
24.9226
78.308
96.271
89.4109
80.2321
76.2681
76.6041
80.055
89.3254
100.904
101.815
91.0982
81.0136
70.8236
62.0937
56.3985
53.011
52.846
55.9888
60.2456
65.7015
73.2068
79.8617
84.5027
83.4329
74.7424
55.5778
24.4533
-38.1471
-57.9594
19.2908
239.095
590.722
3347.24
55999
214447
-8.00483
1.59922
-0.941847
1.29707
4.70056
8.64984
5.22148
-9.83257
-31.3363
-38.8632
-25.9087
2.28042
17.127
22.1193
18.9857
5.94926
-17.4577
-49.4623
-115.162
-195.185
-230.907
-196.498
-124.984
-48.1632
38.3815
94.3145
104.695
93.7215
81.606
76.0937
75.3833
79.0631
86.8562
95.3324
97.6876
90.6761
81.0648
71.7557
63.5554
58.4773
55.4131
54.8553
56.9199
60.4855
65.49
72.5839
79.2275
83.3809
83.1914
77.7994
63.4548
32.5045
-34.4164
-60.269
17.2311
227.801
552.404
2708.55
56546
214077
-7.4889
2.39946
0.0688215
3.28061
6.90164
9.85333
5.30372
-10.8177
-32.2342
-42.4501
-33.4251
-11.1166
8.18004
19.7629
24.4578
17.3381
-7.48912
-35.8775
-72.4857
-88.077
-190.992
-204.521
-156.059
-90.139
18.6732
108.362
121.064
101.115
84.8994
76.4279
74.1809
77.0384
84.9027
93.8027
99.4135
92.1522
82.2636
72.7387
63.9564
58.4295
55.4115
55.5199
58.1263
61.2068
66.4662
75.1656
85.6778
91.8388
87.772
73.9051
52.8608
14.8387
-53.5928
-67.4647
22.2362
230.315
553.205
2801.84
56652.2
210713
17.2095
3.73986
0.603639
4.89658
7.94197
9.83565
5.12453
-11.6924
-37.0945
-54.0235
-46.4596
-20.1536
4.51689
18.9095
29.6889
27.0298
-0.386244
-35.17
-75.1798
-130.932
-167.178
-50.1501
-63.121
-79.6125
-14.8198
102.474
132.1
103.179
82.5972
72.8353
70.7689
74.4158
81.7261
99.3138
109.393
96.6937
85.3647
73.4702
62.9304
56.5105
52.834
52.9142
56.1504
59.3351
63.116
69.0348
73.0311
76.5638
73.7909
58.4028
33.9283
-6.28031
-76.3521
-82.6031
22.1084
218.059
580.328
3942.41
59893.2
207322
49.9882
12.4232
2.88504
5.61425
8.31418
9.45052
4.41487
-10.654
-32.424
-52.2715
-49.8793
-19.1913
7.72299
37.017
57.099
45.2274
2.39904
-33.4574
-72.9495
-105.653
-108.873
-288.956
-232.862
-154.815
28.7994
51.5258
106.969
114.446
82.0391
69.5405
68.7439
77.158
95.2903
104.281
101.878
92.2504
83.0543
74.2919
64.8865
58.0907
54.3503
54.5178
57.1951
59.6348
62.6706
65.3941
62.5731
55.7258
44.3635
23.663
-4.14023
-54.8661
-116.544
-105.112
15.4991
193.511
671.199
4784.68
55547.8
205065
20.9804
9.39691
1.83669
3.63194
7.69934
9.4805
5.18108
-10.604
-41.8867
-63.8749
-46.0722
-25.7099
16.8325
83.5669
97.1961
56.4766
4.32531
-44.2118
-95.3535
-132.178
-141.53
-155.31
-171.41
-165.347
-82.8826
-3.41347
74.2697
94.257
73.7904
64.1358
64.7054
70.9255
82.7289
93.8139
96.136
91.5624
84.5158
75.3189
65.0661
58.8211
55.4191
54.7833
56.492
59.6385
60.8956
56.9062
48.1091
37.0919
20.3635
-6.90828
-43.9387
-98.2777
-142.893
-125.838
-13.3628
159.891
584.56
3683.33
55395.6
198322
-4.93952
-0.357876
-0.600102
1.93576
4.47695
5.41062
0.79859
-13.6654
-39.6454
-54.2221
-38.4264
-3.38467
26.9645
48.325
52.0389
31.9123
-6.74686
-51.8446
-100.213
-133.683
-146.344
-158.428
-170.669
-153.699
-83.3762
2.92194
61.0447
75.6384
66.9716
60.2287
60.3574
66.0016
76.5221
87.4785
92.1925
89.3031
81.7092
71.901
62.8898
57.4176
54.5477
53.7506
55.075
57.3528
58.1545
54.316
47.067
38.6584
21.8934
-8.5069
-49.109
-102.803
-152.838
-143.732
-49.5297
107.131
437.398
1887.36
37377.7
161536
7.99018
3.48528
0.593023
1.12595
1.9462
1.72689
-2.88427
-14.6158
-32.0373
-40.7822
-30.6806
-7.91118
23.818
47.0597
39.9092
16.0171
-14.9374
-49.1164
-85.359
-113.527
-129.543
-145.312
-153.483
-136.163
-78.7476
-7.71813
43.6354
59.8282
59.6683
58.813
61.3736
67.2317
75.8015
84.2135
87.7996
85.066
78.7238
71.2095
63.7021
58.08
54.3462
53.0948
53.8339
54.9622
54.9192
50.4159
42.0529
32.8559
13.4908
-22.0625
-71.1603
-132.623
-185.869
-179.303
-104.019
20.6746
242.116
661.526
6867.68
76071.6
6.59598
2.97673
0.519627
0.130589
0.262279
-0.683164
-5.10427
-14.163
-25.5257
-30.3781
-21.836
-4.46208
13.0991
25.399
22.0465
3.16232
-21.3347
-48.0566
-75.9603
-99.26
-114.732
-124.967
-125.242
-105.035
-60.7995
-7.89622
31.9717
48.4506
53.261
55.8618
59.8174
65.7331
73.1765
80.1392
83.4689
81.9443
77.3123
71.1133
64.6558
59.5406
55.9548
54.1137
53.5843
52.8785
50.6742
44.4131
34.2255
18.2171
-8.94002
-52.1026
-107.628
-170.629
-210.365
-196.757
-139.684
-61.4732
-144.617
-313.044
-230.444
16976.1
9.19163
3.56678
0.608389
-0.343277
-0.756012
-2.18026
-6.20079
-13.2683
-21.0572
-23.7927
-16.9202
-3.41928
10.568
16.3517
10.588
-4.931
-24.9521
-46.8484
-69.3453
-88.6972
-101.784
-108.391
-105.379
-84.7264
-48.563
-7.9897
23.2176
39.448
47.2211
52.3176
57.4575
63.4154
70.0437
75.9095
78.9204
78.5492
75.2954
70.3945
65.0118
60.4257
57.0536
54.8529
52.8487
49.941
44.9357
35.9667
21.8444
1.5438
-29.1918
-74.0679
-128.065
-181.891
-214.168
-209.747
-177.109
-145.998
-296.761
-425.072
-736.541
3452.72
8.05095
3.41899
0.773934
-0.559113
-1.4257
-3.14364
-6.76612
-12.317
-17.7511
-19.1729
-13.6705
-4.12763
4.87733
8.2809
2.71004
-10.203
-27.0675
-45.5999
-64.2172
-80.1319
-90.6198
-94.2476
-87.886
-70.0527
-40.8549
-8.87172
16.7356
32.7605
42.4355
49.251
55.2603
61.2955
67.4195
72.7666
75.8394
75.8446
73.3871
69.2978
64.5928
60.227
56.578
53.5355
50.2585
45.6905
38.8058
27.868
10.8697
-12.8106
-45.1432
-87.1493
-135.059
-177.683
-206.032
-213.105
-200.687
-191.717
-380.721
-563.271
-988.91
533.685
7.67303
3.20027
0.865571
-0.578944
-1.81899
-3.73986
-7.03328
-11.4398
-15.3147
-15.9802
-11.7113
-4.59062
1.61776
2.98115
-2.39067
-13.6153
-28.3863
-44.6274
-60.5928
-73.9349
-82.3019
-83.9826
-76.9626
-60.5191
-36.2018
-9.86461
12.2705
27.972
38.7104
46.6301
53.3027
59.4959
65.3543
70.3166
73.3395
73.815
72.0397
68.6696
64.5454
60.4073
56.5944
52.8744
48.3806
42.1569
33.4814
20.6009
1.60187
-22.8469
-53.2079
-90.4018
-127.055
-162.203
-190.882
-204.707
-202.55
-222.521
-467.217
-614.569
-1094.25
516.009
6.03402
2.53714
0.934626
-0.511542
-2.02383
-4.08811
-7.13983
-10.7977
-13.7148
-13.944
-10.5483
-5.02772
-0.542404
-0.213866
-5.46235
-15.6633
-29.1035
-43.8743
-58.171
-69.818
-76.7952
-77.4321
-70.1135
-54.8338
-33.5328
-10.5966
9.50684
24.8899
36.1631
44.729
51.8322
58.178
63.9242
68.6538
71.5988
72.2726
70.8208
67.8044
63.9354
59.7997
55.6108
51.148
45.8344
39.0029
30.0135
17.2015
0.248062
-21.3632
-48.3685
-80.5064
-115.305
-148.289
-175.562
-192.302
-194.8
-231.342
-568.569
-846.185
-1014.57
749.351
5.0188
1.96082
0.882257
-0.561561
-2.19615
-4.31322
-7.24893
-10.5573
-13.0437
-13.0846
-10.0648
-5.33735
-1.7017
-1.81744
-6.97589
-16.6991
-29.4807
-43.5189
-57.0063
-67.8135
-74.1306
-74.2704
-66.8513
-52.1863
-32.3075
-10.941
8.21746
23.4133
34.9058
43.7612
51.0676
57.4874
63.1897
67.8136
70.6993
71.46
70.1539
67.322
63.6072
59.5368
55.3643
50.8806
45.4447
38.5352
29.4449
16.6958
-0.325417
-21.8448
-47.3151
-76.9892
-109.097
-140.263
-166.23
-181.937
-179.261
-169.546
-388.702
-654.97
-217.136
1356.37
3.79792
-0.126579
-1.71663
-3.86616
-6.03053
-8.06832
-10.0487
-11.7722
-12.8666
-12.8539
-11.8886
-10.7629
-10.7923
-12.6775
-16.223
-20.6089
-24.948
-28.5069
-30.8077
-31.4926
-30.3837
-27.428
-22.7646
-16.733
-9.73077
-2.22006
5.43355
12.9111
20.151
27.2767
34.4168
41.4649
48.0037
53.4336
57.2326
59.1557
59.3515
58.0227
55.5277
52.2943
48.746
45.0896
41.1108
35.9099
28.3685
18.7041
5.65407
-11.4246
-32.3851
-57.6557
-85.1411
-112.51
-136.552
-152.08
-151.379
-137.598
-320.108
-654.88
-453.32
2838.88
4.74962
0.441414
-1.76714
-4.01001
-6.16237
-8.1973
-10.1931
-11.9858
-13.1529
-13.118
-11.9876
-10.6075
-10.5212
-12.5007
-16.2351
-20.7873
-25.1961
-28.7354
-30.9718
-31.6083
-30.4762
-27.5028
-22.8161
-16.7523
-9.71807
-2.17404
5.53589
13.0047
20.2045
27.3094
34.4956
41.676
48.3941
53.9871
57.8301
59.6768
59.7867
58.3603
55.7764
52.4592
48.8853
45.3463
41.5363
36.4873
29.1384
19.1456
5.76109
-12.0928
-34.0559
-60.4061
-89.4654
-118.929
-145.674
-164.476
-168.14
-183.69
-420.815
-779.313
-1065.21
1511.52
6.30332
1.17498
-1.93607
-4.36487
-6.51971
-8.51721
-10.5179
-12.4493
-13.7664
-13.6997
-12.2437
-10.3101
-9.99699
-12.2243
-16.382
-21.2846
-25.8012
-29.2499
-31.3084
-31.8254
-30.6418
-27.6337
-22.9123
-16.8164
-9.74164
-2.1231
5.64042
13.087
20.2253
27.2894
34.5556
41.9902
49.0537
55.0183
58.7587
60.5189
60.5549
59.0724
56.4526
53.2023
49.9853
47.1595
44.1478
39.7111
32.4591
21.7184
7.64702
-11.2225
-35.5609
-65.3358
-98.8841
-131.03
-160.076
-182.062
-191.635
-204.842
-402.588
-633.21
-1116.57
470.482
6.60399
1.12743
-2.30317
-4.78692
-6.95302
-8.93906
-10.9455
-13.0962
-14.6774
-14.6389
-12.6761
-9.82632
-9.18791
-11.909
-16.8108
-22.2636
-26.8959
-30.0277
-31.6177
-31.8453
-30.5968
-27.5791
-22.8441
-16.7495
-9.65848
-1.95963
5.83609
13.2788
20.3218
27.3077
34.7248
42.5633
50.0999
56.4029
60.1695
61.8006
61.654
59.9554
57.0614
53.6084
50.7889
49.3215
48.2596
45.6494
39.703
29.0531
13.3359
-8.07764
-35.4405
-68.3774
-108.809
-143.348
-171.386
-191.864
-195.51
-175.287
-316.839
-536.935
-991.611
542.125
6.77128
0.661634
-2.83467
-5.24249
-7.42592
-9.43621
-11.4148
-13.7713
-15.7142
-15.7344
-13.0943
-9.21166
-8.17833
-11.8149
-17.8399
-24.0397
-28.7391
-31.1822
-31.7786
-31.5695
-30.2133
-27.2552
-22.5733
-16.5499
-9.49317
-1.74503
6.07505
13.473
20.3438
27.2142
34.7736
43.0784
51.2398
57.7271
61.6516
62.964
62.4169
60.2926
56.957
53.1307
50.5964
50.757
52.398
53.1279
50.0128
41.4205
27.0431
5.45822
-27.2554
-68.7522
-114.129
-152.736
-180.125
-189.372
-172.443
-120.539
-192.403
-370.24
-644.009
3935.13
6.24052
0.193767
-3.17369
-5.43371
-7.8352
-10.1042
-12.1359
-14.6396
-16.9724
-17.2746
-14.1888
-9.01324
-7.35938
-12.5386
-20.0307
-27.076
-31.9217
-32.7173
-31.5637
-30.4178
-29.0112
-26.2481
-21.7992
-16.0083
-9.11963
-1.4219
6.41474
13.7118
20.4099
27.1929
34.9029
43.6668
52.5096
59.3709
63.3683
64.1508
62.9431
60.0397
55.797
51.215
48.4915
49.9032
53.938
57.769
58.2927
54.4324
46.1232
28.5038
-4.51807
-50.9778
-105.979
-153.666
-183.972
-184.808
-152.922
-81.1445
-52.1769
-190.62
85.4616
11738.9
2.47484
-0.524729
-2.9226
-5.08982
-8.11841
-11.0746
-13.1947
-15.3605
-17.6741
-18.3262
-15.3121
-9.13473
-7.41388
-14.3692
-23.4126
-31.5182
-36.9072
-35.4233
-30.9175
-28.2259
-27.0066
-24.7058
-20.5639
-15.0186
-8.38353
-0.915232
6.72268
13.7654
20.2078
26.8516
34.6955
43.9225
53.3545
61.3568
65.3901
65.3668
63.4908
59.7427
54.6912
49.6096
46.857
49.0305
54.4228
60.8035
64.1423
62.9961
57.5594
46.5396
19.1825
-24.73
-82.2106
-140.855
-181.748
-176.838
-124.106
-45.1821
70.0882
49.9603
3135.65
58132.2
-0.452987
-0.261144
-2.54479
-4.25333
-7.94206
-12.178
-14.7098
-16.0508
-17.8872
-19.3808
-16.8575
-9.29905
-7.05203
-15.4158
-26.3072
-37.2729
-44.7687
-39.7045
-30.1668
-24.7869
-24.1297
-22.5964
-18.7621
-13.4979
-7.26159
-0.217861
7.07449
13.8486
19.9739
26.3901
34.2162
43.6167
53.4279
61.8402
67.3972
66.1121
63.3848
58.7324
52.5288
46.3279
42.6705
44.242
51.2675
60.8622
67.5076
70.2887
72.3188
65.4927
44.3385
8.11374
-42.3477
-107.173
-160.445
-160.985
-92.2736
5.77821
237.432
903.54
24022.1
142363
-13.7437
-1.13189
-1.88505
-2.0709
-6.62633
-12.8845
-16.451
-15.992
-16.3966
-18.523
-16.3305
-7.66818
-5.78088
-19.2313
-36.0712
-47.9952
-50.8758
-44.1458
-27.6749
-18.1581
-19.4546
-19.3249
-15.7738
-10.9055
-5.33182
0.950981
7.63362
14.0533
20.0118
26.2851
34.0743
42.9904
52.2145
61.1241
65.7848
65.7689
63.3014
58.0883
51.3699
44.9946
41.104
42.0427
45.9936
52.4075
58.0233
60.0363
62.6191
63.3442
56.441
31.2659
-3.47649
-53.2337
-111.747
-128.607
-64.6969
66.0606
464.009
2304.54
69495.2
213699
9.18727
4.99059
0.276619
1.77908
-3.33374
-15.1704
-22.9586
-18.474
-14.5991
-15.4262
-17.1225
-16.6828
-14.8516
-28.5887
-36.1719
-42.3753
-67.3518
-57.9897
-27.1417
-12.4797
-16.4536
-16.7363
-12.2178
-7.60452
-2.64865
3.22418
9.83454
16.1309
21.6537
27.5565
35.144
44.0561
54.2904
65.246
69.1988
68.0371
64.1476
57.2114
49.6896
43.4126
40.3169
43.872
50.4284
58.2323
64.879
66.4637
65.3676
61.3691
46.6344
18.9976
-12.8689
-59.1308
-99.5629
-110.95
-42.8939
115.137
665.756
5814.76
83387.4
237240
61.9485
8.99012
4.5885
5.09705
-2.91106
-22.0572
-31.6535
-22.0453
-13.06
-12.9844
-1.48381
12.6114
-13.9907
-51.5471
-72.5365
-81.7854
-87.1817
-38.206
1.01855
11.5786
-4.37219
-8.95005
-4.75639
-1.0928
2.68436
7.76051
14.1711
20.7085
26.6035
32.471
40.0617
49.0148
58.5894
68.4428
70.7241
68.1443
62.6138
54.8286
47.1692
40.6668
37.001
41.2428
48.5855
57.2581
65.1163
68.3309
67.1736
63.3027
54.4998
30.359
-3.1034
-54.4378
-99.0386
-96.3202
-9.08115
151.427
749.482
6463.98
71014.7
228986
81.6718
18.1447
6.87097
6.83053
0.903552
-14.2034
-29.1705
-31.7756
-20.6662
-3.73944
11.0198
1.98518
-23.0817
-54.5179
-59.3058
-51.1434
-7.79482
-3.93173
30.6966
41.0191
2.44234
-8.34288
-1.24171
5.5945
9.75083
14.475
20.9088
25.8717
29.5717
34.5688
42.4073
51.1817
58.9083
65.55
67.986
66.6398
62.3509
54.4062
45.7804
39.1063
36.862
41.3001
48.3303
55.9479
63.5229
67.181
66.7814
61.1779
51.6101
32.0676
1.00027
-45.7211
-89.8673
-85.2659
0.237227
158.233
726.891
6021.25
65063.1
218527
74.12
15.7099
6.22489
4.85587
-2.71673
-16.6578
-30.3065
-34.3967
-22.4907
6.26583
35.0882
27.1988
-23.4349
-75.1639
-85.1598
-136.093
-117.16
-39.7824
43.6826
30.9133
-2.8481
-5.36231
8.94839
18.605
15.411
14.2856
15.8852
20.7335
26.7895
34.2292
42.9519
52.8108
63.4819
68.659
69.5919
68.6369
63.881
56.1929
47.7222
40.9777
38.1583
42.3829
49.5344
56.8242
64.5554
68.3661
66.5186
60.8263
49.1322
27.5103
-0.577448
-42.4516
-83.1644
-78.6226
-0.32353
161.542
685.026
5222.33
57301.9
211474
39.261
13.3499
1.93465
1.24559
-4.74056
-15.5881
-26.6212
-31.2976
-21.0697
6.14994
33.5957
26.6729
-18.0712
-66.4396
-93.0062
-114.614
-119.52
-89.7762
-12.774
1.09653
1.14708
5.30712
8.04549
7.55397
9.34586
12.7409
17.5858
22.75
27.7617
33.9783
43.091
55.9631
68.812
72.3948
71.5294
69.1151
63.2727
54.8335
46.1244
39.2606
37.741
42.9443
49.6571
55.1978
60.7043
64.4527
63.008
55.2963
39.9871
16.7264
-11.8156
-47.5337
-83.4529
-81.6136
-14.9366
138.402
536.513
4843.78
58952.4
211273
-4.8076
-0.237584
-2.34465
-1.13808
-5.15549
-10.5675
-18.1306
-25.7931
-22.8737
-1.28428
24.9933
22.292
-10.5533
-48.4203
-78.3728
-107
-120.474
-90.57
-50.1962
-22.3303
3.24422
15.2641
14.1774
9.09258
8.6221
11.1499
17.1072
23.7196
29.0738
33.891
41.9004
54.5175
67.6567
73.7471
73.4538
70.8699
65.2265
56.3323
47.068
40.2532
37.7164
41.5177
47.8682
52.0107
54.6522
54.4487
49.8584
40.4963
25.8437
5.81679
-18.863
-49.0051
-91.8533
-99.2478
-27.8864
125.814
365.756
3093.87
57599.1
202285
-13.2125
-4.95248
-5.38357
-4.15048
-6.94405
-9.72445
-13.2586
-18.51
-18.3526
-6.00368
10.3153
11.3661
-9.34042
-37.119
-66.5926
-95.0965
-110.685
-90.9602
-57.3475
-23.2759
4.80006
11.5392
8.00948
5.42799
8.27834
12.0953
18.2368
25.0917
30.781
35.7908
41.7285
51.6569
62.9662
70.0216
71.9182
70.9977
66.6177
57.8443
49.2199
44.3222
45
48.7783
54.2273
56.4565
52.95
48.0467
41.4481
30.7932
14.7812
-11.6306
-50.9013
-101.602
-150.612
-144.431
-49.134
95.2532
323.491
1724.82
37958.3
180140
-18.1675
-6.55035
-6.10422
-4.71084
-6.67839
-8.10341
-9.78501
-14.2803
-16.585
-10.1248
2.33417
7.05573
-2.85296
-24.1342
-54.9236
-87.0208
-102.62
-91.3941
-66.2934
-34.7093
-5.06499
4.5714
3.34154
4.47759
6.81377
12.1357
19.166
26.6967
32.6196
37.3128
44.3681
52.5944
61.0489
66.8767
70.3606
70.8187
66.7851
57.7577
48.7123
43.6059
42.2555
42.5161
44.2779
46.0853
45.786
41.9076
34.5075
22.544
2.43555
-33.3888
-80.3506
-132.46
-169.759
-148.712
-65.4236
52.7093
308.621
1759.89
21250.2
144957
1.85663
-0.282549
-3.20966
-4.35624
-5.95526
-7.10306
-9.12906
-12.909
-15.476
-12.4563
-4.59235
-0.698968
-6.02661
-21.1672
-45.2337
-69.5329
-82.7449
-81.3432
-67.0033
-45.1705
-22.9076
-10.9165
-7.36671
-3.5946
3.48728
11.5785
20.126
28.5988
35.8534
43.1067
49.7396
56.5725
62.9587
67.181
69.1576
69.126
64.5219
56.4306
48.9984
44.908
44.7295
47.3028
50.5675
52.9045
52.0229
45.9632
34.8037
15.8977
-13.9204
-56.7408
-106.974
-158.086
-184.518
-159.965
-84.3678
14.2652
205.043
1081.83
8874.05
78482.9
5.09479
-1.03612
-3.20726
-4.06938
-5.29233
-6.46867
-8.4367
-11.4198
-13.6286
-12.3595
-8.34597
-6.28701
-10.0919
-21.2797
-38.9682
-57.4741
-68.4372
-69.0418
-60.7422
-46.6258
-31.1048
-19.9398
-13.4334
-5.49533
2.65764
11.7953
20.9355
29.0795
36.5524
43.5057
50.3671
56.9721
62.6924
66.5653
68.8322
68.8406
64.6907
58.0176
52.0357
48.2495
47.1419
47.925
49.4399
49.5812
46.3226
37.7604
20.6575
-7.12398
-46.7895
-100.742
-159.356
-200.254
-214.935
-186.413
-121.766
-60.4501
-71.612
-147.407
217.219
17018.4
7.14188
1.51188
-1.81333
-3.41233
-4.77527
-6.16042
-8.13415
-10.8069
-12.9635
-12.8309
-10.7535
-9.6572
-12.5481
-20.751
-33.6021
-47.3659
-57.0746
-60.0194
-56.3434
-47.7051
-36.8157
-26.8032
-18.5233
-8.64062
1.76274
12.2712
22.1692
30.9672
38.7943
45.5157
51.5299
57.1239
61.6863
64.7804
66.565
66.2599
63.1879
58.192
53.5991
50.5081
49.2885
49.0264
48.7628
46.3843
39.6124
25.7444
2.32609
-33.0716
-77.9564
-131.279
-177.609
-201.667
-208.469
-196.32
-156.516
-147.596
-290.244
-360.371
-634.917
2858.89
7.60604
2.15
-0.860826
-2.73561
-4.26858
-5.8531
-7.87734
-10.3898
-12.5217
-13.0701
-12.1789
-11.7176
-14.0575
-20.397
-30.3235
-41.3223
-50.0548
-54.4261
-53.815
-48.7618
-40.6994
-31.0725
-21.5773
-10.753
0.979951
12.4627
22.8595
31.8248
39.5176
46.0801
51.8401
56.8617
60.9815
64.081
65.4617
64.9961
62.4354
58.5089
54.7007
51.7826
49.9058
48.454
46.149
41.4501
31.7454
14.0501
-13.3744
-50.5709
-91.5991
-134.277
-165.226
-185.342
-196.531
-197.033
-179.947
-194.525
-380.772
-484.658
-855.165
1245.25
7.5895
2.64451
-0.2722
-2.24645
-3.89957
-5.62615
-7.70081
-10.1141
-12.2341
-13.1894
-13.0173
-13.0161
-15.0621
-20.2437
-28.417
-37.8292
-46.0479
-51.23
-52.4547
-49.5923
-43.2739
-34.4297
-24.107
-12.2048
0.443651
12.6178
23.4002
32.5004
40.1074
46.4927
51.923
56.5482
60.2724
63.0136
64.3392
63.9347
61.8126
58.5772
55.2403
52.3408
49.9803
47.4971
43.6632
36.96
25.0766
5.41879
-22.9014
-55.9319
-89.4785
-120.64
-146.44
-166.647
-179.036
-185.564
-185.939
-217.468
-464.401
-550.985
-993.061
1061.81
6.01014
2.12069
0.0903482
-1.80636
-3.58136
-5.4021
-7.53374
-9.88323
-11.9923
-13.1616
-13.4338
-13.7536
-15.6634
-20.1752
-27.3277
-35.8264
-43.7427
-49.3831
-51.6233
-49.9999
-44.6761
-36.2037
-25.569
-13.0991
0.103194
12.7036
23.7374
32.9277
40.4969
46.7893
52.083
56.518
60.0468
62.6051
63.648
63.2694
61.4117
58.5514
55.4315
52.4652
49.6657
46.3587
41.3995
33.4578
20.8591
2.33369
-21.654
-49.5683
-78.8309
-107.104
-131.717
-151.886
-167.047
-176.458
-177.183
-217.741
-466.061
-659.287
-917.56
1881.54
5.06175
1.57052
0.188966
-1.65674
-3.47642
-5.33373
-7.47753
-9.79986
-11.8989
-13.169
-13.6334
-14.1068
-15.9701
-20.1978
-26.8932
-34.9723
-42.7321
-48.5635
-51.2728
-50.2277
-45.3697
-37.1485
-26.3172
-13.5804
-0.123762
12.6731
23.8274
33.0671
40.6257
46.8699
52.0921
56.4402
59.881
62.2577
63.2718
62.9216
61.178
58.4764
55.4473
52.4449
49.4631
45.8776
40.6344
32.4118
19.6715
1.92516
-20.8489
-46.6673
-72.761
-98.1358
-120.961
-140.981
-156.507
-166.889
-164.651
-185.055
-361.915
-469.929
-148.226
2602.45
3.96211
1.46325
0.582266
-0.57333
-2.14293
-4.27792
-7.41084
-11.0214
-13.7522
-13.6883
-10.0478
-4.48889
-0.237295
-0.249931
-5.76688
-16.0831
-29.3875
-43.6942
-57.2214
-67.9387
-74.1499
-74.3664
-67.2686
-52.9747
-33.5012
-12.4123
6.6853
21.9367
33.5429
42.5432
50.0551
56.7673
62.8293
67.8349
71.0317
71.8823
70.4534
67.3002
63.267
58.9028
54.3854
49.4042
43.1817
35.3049
24.8222
9.86824
-9.80139
-33.3869
-60.8248
-92.0969
-125.877
-158.901
-187.053
-205.568
-203.903
-193.238
-478.11
-720.155
-80.1933
2041.35
3.909
1.53971
0.521921
-0.671108
-2.18078
-4.27945
-7.5561
-11.4229
-14.3889
-14.1794
-9.94613
-3.6522
1.09976
1.0916
-4.79993
-15.6485
-29.3865
-43.8582
-57.2594
-67.6326
-73.4128
-73.4001
-66.5753
-52.7736
-33.9274
-13.5087
5.1384
20.2073
31.8555
41.0039
48.7527
55.8023
62.328
67.8924
71.5752
72.6247
71.1022
67.7198
63.4007
58.5668
53.4476
47.6406
40.314
30.9118
19.1637
2.9725
-18.0882
-41.8736
-68.8549
-99.4632
-133.103
-167.647
-198.067
-217.65
-217.387
-224.574
-530.216
-785.357
-326.334
2780.01
2.29245
0.982413
0.103116
-0.904567
-2.30279
-4.32888
-7.69772
-11.7663
-14.9161
-14.5234
-9.71205
-2.76019
2.31558
2.19592
-4.11076
-15.446
-29.5377
-44.0961
-57.2414
-67.1005
-72.2443
-71.6607
-64.8977
-51.7501
-33.6533
-14.2065
3.68451
18.3557
29.8751
39.1097
46.9948
54.2295
61.0598
66.9335
70.7723
71.8201
70.0699
66.1386
60.8962
55.3018
49.2853
42.4913
34.6872
25.6632
15.4612
1.15455
-17.484
-39.3858
-64.8629
-94.9827
-129.34
-166.558
-199.566
-222.704
-227.388
-256.573
-519.577
-833.514
-1077.85
5350.21
1.42067
0.431969
-0.371749
-1.31879
-2.53928
-4.47202
-7.87159
-12.0918
-15.3927
-14.77
-9.45463
-2.08493
3.2382
2.9002
-3.85435
-15.6185
-29.9452
-44.4512
-57.2256
-66.4014
-70.6254
-69.2191
-62.1873
-49.5439
-32.6265
-14.4471
2.4106
16.4947
27.7684
37.0045
45.1542
52.863
60.1326
66.5749
71.0264
72.4836
70.7541
66.8768
62.0069
57.0428
52.1014
46.9856
41.0805
33.9826
24.6644
11.4903
-5.88849
-26.9777
-50.8632
-81.201
-120.157
-163.496
-198.827
-217.483
-220.759
-235.991
-402.625
-691.346
-1801.71
25434.2
-0.614388
-0.295958
-0.991809
-1.82241
-2.88376
-4.7284
-8.08797
-12.3417
-15.6502
-14.6493
-9.02928
-1.6665
3.8222
3.09938
-3.91655
-15.8102
-30.1341
-44.4469
-56.7123
-65.0197
-68.096
-65.7008
-58.2405
-46.3843
-30.9938
-14.4327
1.15322
14.5505
25.579
34.8502
43.1919
51.192
58.9291
65.9827
70.7759
72.312
70.6732
66.9268
62.264
57.5854
52.9693
48.1685
42.8785
36.1669
26.9292
13.5229
-4.74784
-27.1086
-54.1501
-86.8733
-123.654
-162.877
-192.506
-203.615
-212.161
-183.644
-223.71
-289.922
1195.01
111252
0.432792
-0.63163
-1.51221
-2.49219
-3.5735
-5.36452
-8.45868
-12.3717
-15.2775
-14.0816
-8.60459
-1.65471
3.37979
2.59221
-4.34596
-16.0126
-30.0691
-44.0354
-55.6711
-63.037
-65.1472
-61.8748
-54.271
-42.8391
-28.7172
-13.683
0.613766
13.211
23.8905
33.0492
41.442
49.5615
57.4815
64.7878
69.9393
71.7738
70.321
66.5553
61.8581
57.2722
52.6903
48.005
42.7992
36.0169
27.1011
13.8719
-4.42032
-27.3232
-54.8965
-86.8095
-121.827
-158.5
-185.917
-195.329
-195.072
-118.014
-50.0612
123.087
4403.49
196234
-1.43509
-1.5335
-2.05098
-2.92776
-4.11906
-5.89541
-8.8509
-12.4179
-14.8516
-13.6051
-8.47545
-1.94867
2.45806
1.58871
-5.11018
-16.3065
-29.8146
-43.1196
-53.919
-60.3076
-61.3372
-57.9922
-50.477
-39.5554
-26.4959
-12.7283
0.438648
12.2145
22.4447
31.417
39.7532
47.9539
56.0488
63.4739
68.737
70.7297
69.3881
65.7066
61.2616
56.7173
52.1795
47.6905
42.6491
36.0474
26.8595
13.7657
-3.28808
-25.9541
-54.1935
-86.0442
-120.806
-157.305
-183.666
-197.745
-211.535
-51.8399
4.92901
87.0129
4702.93
258714
-0.930292
-1.51361
-2.2018
-3.28726
-4.68679
-6.53912
-9.33875
-12.5385
-14.6014
-13.3463
-8.47876
-2.40774
1.43728
0.478359
-5.89831
-16.4916
-29.1753
-41.6151
-51.6392
-57.4938
-58.6591
-54.9521
-47.2926
-36.7863
-24.5322
-11.7294
0.528495
11.5607
21.2713
29.9602
38.2328
46.508
54.7613
62.2805
67.6249
69.7635
68.7385
65.3579
60.8454
56.0446
51.4183
46.7768
41.3005
34.0451
24.85
12.4566
-3.98083
-25.596
-53.8713
-85.8665
-120.318
-156.419
-187.833
-206.21
-180.964
-69.9008
-85.9309
-255.629
2367.76
232210
-1.53386
-1.79164
-2.42678
-3.57892
-5.14117
-7.04643
-9.68175
-12.5823
-14.3951
-13.1498
-8.73869
-3.28022
0.107302
-0.940859
-6.93919
-16.7002
-28.3259
-39.6969
-48.7857
-54.0382
-54.8527
-51.1497
-43.9389
-34.0842
-22.6521
-10.7094
0.760323
11.1732
20.4421
28.8923
37.1103
45.4173
53.7252
61.2169
66.4818
68.6234
67.671
64.3258
59.705
54.6174
49.7171
44.8487
39.4267
32.8644
24.3496
12.4986
-3.24888
-24.6714
-53.6204
-85.6859
-119.543
-156.268
-190.945
-204.379
-177.662
-123.823
-262.526
-823.806
1633.95
138910
-0.375638
-1.51503
-2.43876
-3.7798
-5.54581
-7.4997
-10.0155
-12.6538
-14.291
-13.1836
-9.24715
-4.36861
-1.46421
-2.64483
-8.28276
-17.1967
-27.6856
-37.8588
-45.9018
-50.4454
-50.9668
-47.4659
-40.7027
-31.476
-20.7793
-9.59275
1.17172
11.0299
19.9005
28.161
36.2969
44.5985
52.8698
60.1994
65.287
67.3982
66.5683
63.3504
58.6383
52.9923
47.1933
41.2566
34.7273
27.0532
17.9189
5.45752
-9.96099
-30.4254
-56.8235
-86.8818
-120.724
-158.62
-194.831
-210.863
-194.775
-155.421