/*--------------------------------*- C++ -*----------------------------------*\
| =========                 |                                                 |
| \\      /  F ield         | OpenFOAM: The Open Source CFD Toolbox           |
|  \\    /   O peration     | Version:  2.1.1                                 |
|   \\  /    A nd           | Web:      www.OpenFOAM.org                      |
|    \\/     M anipulation  |                                                 |
\*---------------------------------------------------------------------------*/
FoamFile
{
    version     2.0;
    format      ascii;
    class       volScalarField;
    location    "0.0014";
    object      p_rgh;
}
// * * * * * * * * * * * * * * * * * * * * * * * * * * * * * * * * * * * * * //

dimensions      [1 -1 -2 0 0 0 0];

internalField   nonuniform List<scalar> 
36520
(
6.95818
3.15258
2.68159
1.7502
0.800392
-0.434551
-2.7682
-6.52224
-11.2551
-15.4205
-17.0799
-15.1264
-10.9597
-7.95163
-9.72061
-19.6206
-39.0327
-66.2783
-96.8048
-122.291
-132.347
-120.786
-88.2996
-42.1085
5.81305
42.5078
62.8017
71.8246
75.3507
76.9927
78.0204
78.7394
79.113
78.8918
77.9532
76.1707
73.5224
70.1991
66.5819
63
59.5744
56.2626
52.6971
48.2174
42.1601
33.6755
21.849
5.37419
-18.123
-52.045
-97.9103
-146.47
-181.793
-195.916
-194.561
-212.605
-321.618
-508.452
-668.872
1797.19
7.71216
3.6832
2.69445
1.69855
0.865313
-0.237161
-2.52438
-6.4149
-11.4734
-15.9997
-17.7777
-15.5351
-10.7165
-6.96385
-8.17322
-17.9689
-37.9059
-66.3321
-98.6289
-126.239
-137.567
-125.948
-92.3958
-43.9183
6.84544
44.9852
65.0264
73.2708
76.1739
77.5243
78.6016
79.2821
79.7155
79.38
78.3983
76.5624
73.8208
70.3649
66.6328
62.999
59.621
56.4699
53.1215
48.886
43.1608
35.1158
23.7696
7.6537
-16.0289
-51.3679
-100.516
-154.104
-192.611
-207.348
-207.676
-242.331
-435.483
-762.601
-1417.67
1063.82
9.35205
4.82276
2.75094
1.50931
0.892999
0.0578481
-2.10062
-6.2604
-11.9666
-17.2087
-19.1669
-16.2429
-10.1938
-5.1046
-5.22989
-14.7651
-35.661
-66.2581
-101.904
-133.689
-147.673
-135.839
-100.316
-47.3238
9.02673
49.9367
69.3245
75.9747
77.7534
78.6277
79.6654
80.279
80.4914
80.2818
79.2801
77.3259
74.3874
70.6589
66.682
62.9338
59.6549
56.8699
54.1724
50.708
45.7725
38.5588
28.184
12.7248
-11.4994
-49.3464
-105.442
-169.74
-216.896
-231.714
-225.679
-260.786
-486.866
-697.887
-1411.08
315.293
10.1643
5.24873
2.61
1.28125
0.989793
0.536434
-1.4434
-6.0505
-12.7553
-19.0402
-21.1137
-17.0013
-9.27809
-2.50892
-1.27418
-10.364
-32.4362
-65.8907
-106.08
-143.849
-161.949
-149.147
-111.402
-52.2627
12.0086
56.8655
75.1101
79.4382
79.7444
80.0322
81.0249
81.7707
82.0924
81.8276
80.7195
78.5149
75.2553
71.0921
66.7346
62.8115
59.6593
57.3803
55.5654
53.0847
49.2398
43.3745
34.5596
20.3768
-3.80564
-43.8822
-104.756
-178.294
-228.572
-240.462
-239.117
-270.665
-502.166
-741.026
-1339.17
401.09
10.4799
5.26833
2.20741
0.983909
1.09503
1.12309
-0.683117
-5.92368
-13.9647
-21.4519
-23.223
-17.3154
-7.52807
0.89253
3.18904
-5.76716
-29.166
-65.6078
-110.805
-155.754
-178.615
-164.229
-124.175
-58.1175
15.3551
64.5196
81.2209
82.8311
81.5907
81.4266
82.5414
83.6554
84.1507
83.8174
82.5071
79.9444
76.2708
71.3788
66.362
62.132
59.0879
57.4591
56.8857
55.6352
53.1203
49.0552
41.8331
28.9908
6.12721
-33.0482
-93.7176
-168.782
-218.589
-211.602
-191.211
-233.58
-419.502
-595.842
-1071.07
1476.79
9.47268
4.60926
1.41477
0.511962
1.10756
1.76159
0.172278
-5.86546
-15.5791
-24.1139
-24.5694
-16.2278
-4.07914
5.50988
7.63123
-2.45063
-27.2281
-65.975
-115.124
-166.743
-194.081
-178.461
-135.326
-63.7298
16.5909
70.1327
85.7558
85.1695
82.6101
82.32
83.776
85.5972
86.4729
86.318
85.0451
82.2462
77.5135
71.59
65.7137
60.8373
57.7289
56.6958
57.7985
58.6275
58.0297
55.9408
52.0265
43.3336
24.3465
-11.5218
-68.5844
-144.403
-199.567
-189.439
-110.36
19.2693
-221.451
-465.901
-179.454
15598
9.38412
3.72129
0.39258
0.158884
1.1685
2.47507
1.14902
-6.12991
-18.3291
-27.3163
-24.7114
-12.4154
1.62402
10.3999
10.4488
-1.69517
-28.0271
-67.1467
-117.316
-172.311
-200.7
-180.262
-131.089
-65.0089
12.9432
72.2817
88.015
85.8715
82.4238
82.0399
84.2238
86.7953
88.344
88.6139
87.6432
84.3439
78.692
71.738
64.7441
59.3407
56.1823
55.501
57.4033
59.2158
59.5811
58.566
56.016
50.0222
36.7716
8.56413
-40.1582
-105.675
-162.725
-160.253
-59.7935
124.136
419.962
1140.57
12596.1
96966.4
1.54623
1.62809
-0.953489
-0.459251
1.11814
3.34995
2.04476
-7.65099
-23.329
-31.794
-22.7624
-4.17692
12.1949
16.536
12.4451
-5.1399
-31.9529
-70.7981
-117.552
-169.81
-197.633
-176.453
-118.591
-46.0121
19.9915
62.4157
79.9869
81.5101
79.5319
79.4115
83.3488
87.5977
90.2182
91.2669
91.1096
87.4412
81.0713
73.0801
65.3414
59.0431
55.1712
53.998
55.8465
59.8504
62.4659
62.9053
61.7395
57.2122
46.05
22.5971
-15.0409
-65.745
-119.395
-124.312
-29.4887
154.594
510.999
1911.41
42482.4
182628
20.1538
5.752
-1.05974
-1.02565
0.279204
2.00408
-1.03095
-14.4555
-31.7983
-33.8145
-15.5992
8.8365
24.1831
22.1932
10.644
-12.6871
-41.6198
-76.9432
-118.636
-168.53
-188.765
-162.599
-107.512
-42.7056
19.9309
61.1188
78.1793
79.8867
76.256
80.3832
87.1785
88.9992
89.7569
92.2638
92.4215
89.001
82.0191
73.3643
65.0193
57.864
53.096
52.6248
55.4684
60.5421
64.3855
66.3864
67.1745
66.3949
60.6957
44.0291
14.8814
-28.8244
-87.3194
-99.3994
-17.7015
189.639
578.106
3896.19
48150.3
206495
43.551
7.58885
0.380731
0.225223
-0.201723
1.38642
-1.05399
-13.539
-34.393
-43.4634
-22.396
10.4832
33.4797
33.0306
19.3518
-2.17045
-36.4644
-81.4747
-132.495
-177.573
-189.09
-157.903
-105.896
-39.7952
21.776
67.5095
86.2795
85.4537
81.6196
80.8223
82.3557
85.8812
93.3407
98.6311
96.1799
89.0366
80.0649
70.9865
62.7411
55.7506
51.6306
51.8601
55.7256
60.4824
66.3566
72.7512
76.964
79.1803
76.894
64.8878
41.0292
-0.473259
-63.3133
-74.2376
0.83948
216.756
636.365
3908.44
47770.3
210853
16.3996
0.982049
-2.41665
1.04276
3.8955
6.09455
2.08476
-15.725
-40.5444
-44.5408
-23.2945
16.7769
37.2392
30.7519
18.5965
0.41933
-25.5177
-59.7638
-119.04
-164.42
-193.054
-169.096
-110.484
-45.05
24.978
78.3606
96.3229
89.4629
80.2836
76.3169
76.6482
80.0959
89.3661
100.945
101.859
91.1419
81.0567
70.8662
62.1363
56.4413
53.0547
52.8907
56.0344
60.2922
65.7493
73.2557
79.9115
84.5527
83.4816
74.7867
55.6177
24.4936
-38.1009
-57.912
19.335
239.136
590.854
3351.16
56024.3
214477
-7.96842
1.63563
-0.905436
1.33349
4.737
8.68624
5.25789
-9.79617
-31.2999
-38.8268
-25.8722
2.317
17.1636
22.156
19.0225
5.98684
-17.418
-49.4109
-114.966
-193.943
-228.815
-194.742
-124.161
-48.0137
38.42
94.3523
104.733
93.7607
81.6476
76.1356
75.4244
79.1021
86.8941
95.3725
97.7345
90.7233
81.1064
71.7941
63.5936
58.5155
55.4574
54.9144
56.9791
60.5415
65.5336
72.6257
79.2718
83.4247
83.2319
77.838
63.4937
32.5468
-34.3692
-60.2266
17.2693
227.839
552.483
2711.43
56570.6
214106
-7.45249
2.43586
0.105253
3.31707
6.93815
9.88993
5.34046
-10.7808
-32.1973
-42.4135
-33.3883
-11.079
8.21918
19.8032
24.4979
17.3768
-7.45013
-35.8338
-72.4102
-87.705
-188.754
-199.598
-151.861
-88.4726
18.887
108.402
121.102
101.153
84.9375
76.4675
74.2214
77.0782
84.9408
93.841
99.4599
92.1997
82.3098
72.7797
63.9949
58.4679
55.4499
55.5604
58.1821
61.2638
66.5113
75.2042
85.7167
91.8811
87.8221
73.9508
52.9048
14.8875
-53.5458
-67.4247
22.2744
230.354
553.286
2804.69
56676.9
210742
17.2463
3.7767
0.640478
4.93364
7.97921
9.87318
5.16258
-11.6534
-37.0535
-53.976
-46.3888
-20.0234
4.7179
19.1186
29.8488
27.1067
-0.344064
-35.1289
-75.1382
-130.852
-166.358
-44.0384
-53.7026
-73.4428
-13.2354
102.625
132.148
103.227
82.6461
72.8842
70.8167
74.4606
81.7669
99.3534
109.433
96.7365
85.4081
73.5132
62.9733
56.5538
52.8778
52.9587
56.1966
59.3825
63.1631
69.0808
73.0773
76.6137
73.8468
58.4554
33.9768
-6.22352
-76.2902
-82.5483
22.1525
218.105
580.521
3946.87
59918.7
207351
50.0254
12.4604
2.92239
5.65204
8.35273
9.49049
4.45659
-10.6091
-32.371
-52.1886
-49.6644
-18.4859
8.92003
38.0879
57.734
45.4308
2.45322
-33.4136
-72.9029
-105.584
-108.706
-288.311
-229.884
-149.409
32.934
52.7943
107.102
114.49
82.0811
69.5814
68.7842
77.1986
95.3328
104.328
101.929
92.2963
83.0933
74.3308
64.9262
58.1312
54.3921
54.5634
57.2476
59.6887
62.722
65.4428
62.6198
55.7721
44.4104
23.7098
-4.09193
-54.8035
-116.476
-105.054
15.5421
193.555
671.413
4788.15
55571.7
205095
21.0183
9.43479
1.87456
3.67032
7.73911
9.52222
5.22606
-10.551
-41.806
-63.6961
-45.7661
-25.4478
16.935
83.605
97.2341
56.5147
4.36371
-44.1704
-95.2899
-132.04
-141.28
-154.957
-170.87
-164.658
-82.2816
-3.14013
74.3354
94.3002
73.8342
64.1824
64.7593
70.9823
82.7833
93.861
96.1763
91.6013
84.5564
75.3837
65.1432
58.8981
55.4791
54.8257
56.5378
59.6887
60.9439
56.9534
48.1619
37.1447
20.4161
-6.84974
-43.8791
-98.2181
-142.837
-125.791
-13.323
159.931
584.699
3687
55420
198352
-4.90152
-0.319877
-0.562103
1.97376
4.51495
5.44862
0.836587
-13.6274
-39.6074
-54.1841
-38.3884
-3.34643
27.0026
48.3632
52.077
31.9504
-6.70874
-51.8066
-100.175
-133.645
-146.306
-158.388
-170.621
-153.643
-83.3213
2.96684
61.084
75.6782
67.0139
60.2721
60.4003
66.0434
76.5621
87.5173
92.2313
89.3445
81.7677
71.9678
62.9506
57.4682
54.5905
53.7904
55.1152
57.3933
58.1947
54.3567
47.1105
38.7053
21.9379
-8.46238
-49.0636
-102.759
-152.797
-143.692
-49.4909
107.17
437.518
1890.8
37398.8
161566
8.02763
3.52273
0.630473
1.1634
1.98365
1.76434
-2.84682
-14.5784
-31.9998
-40.7447
-30.6431
-7.87373
23.8554
47.0971
39.9466
16.0545
-14.8999
-49.0789
-85.3215
-113.489
-129.506
-145.275
-153.446
-136.125
-78.7101
-7.68041
43.6734
59.8665
59.7068
58.8511
61.4115
67.2696
75.8395
84.2517
87.838
85.1047
78.7632
71.2489
63.7408
58.1181
54.384
53.1326
53.8716
54.9999
54.9569
50.4537
42.0911
32.8946
13.5293
-22.024
-71.1218
-132.585
-185.83
-179.265
-103.981
20.7164
242.391
663.833
6875.66
76100.5
6.63297
3.01372
0.556617
0.167579
0.299269
-0.646174
-5.06728
-14.126
-25.4887
-30.3411
-21.799
-4.42509
13.1361
25.436
22.0834
3.19931
-21.2977
-48.0196
-75.9233
-99.223
-114.695
-124.93
-125.205
-104.998
-60.7625
-7.85915
32.0088
48.4876
53.298
55.8988
59.8544
65.7701
73.2135
80.1762
83.5059
81.9812
77.3492
71.1503
64.6928
59.5776
55.9918
54.1507
53.6213
52.9155
50.7112
44.4501
34.2626
18.2543
-8.90239
-52.0635
-107.586
-170.585
-210.32
-196.717
-139.642
-61.3951
-144.243
-312.454
-229.258
17003.5
9.22822
3.60337
0.644985
-0.306681
-0.719416
-2.14366
-6.16419
-13.2317
-21.0206
-23.7561
-16.8836
-3.38269
10.6046
16.3883
10.6246
-4.89441
-24.9155
-46.8118
-69.3087
-88.6606
-101.747
-108.354
-105.342
-84.6898
-48.5264
-7.95311
23.2542
39.4846
47.2577
52.3542
57.4941
63.452
70.0803
75.9461
78.957
78.5858
75.332
70.4311
65.0484
60.4623
57.0901
54.8895
52.8852
49.9776
44.9724
36.0033
21.8813
1.58135
-29.1524
-74.0246
-128.016
-181.84
-214.116
-209.695
-177.059
-145.938
-296.676
-425.012
-736.453
3466.68
8.08738
3.45543
0.810365
-0.522683
-1.38927
-3.10721
-6.72969
-12.2805
-17.7147
-19.1365
-13.6341
-4.0912
4.91375
8.31733
2.74647
-10.1666
-27.031
-45.5635
-64.1807
-80.0955
-90.5834
-94.2112
-87.8496
-70.0163
-40.8185
-8.83529
16.772
32.7969
42.4719
49.2874
55.2967
61.332
67.456
72.803
75.8758
75.8811
73.4236
69.3342
64.6293
60.2634
56.6144
53.5719
50.2949
45.727
38.8423
27.9046
10.9065
-12.7731
-45.1042
-87.1066
-135.011
-177.633
-205.983
-213.059
-200.642
-191.676
-380.684
-563.234
-988.873
535.261
7.70954
3.23678
0.902082
-0.542433
-1.78248
-3.70335
-6.99677
-11.4033
-15.2782
-15.9437
-11.6748
-4.55411
1.65427
3.01766
-2.35416
-13.5788
-28.3498
-44.5909
-60.5563
-73.8983
-82.2654
-83.9461
-76.9261
-60.4825
-36.1653
-9.8281
12.3071
28.0085
38.7469
46.6666
53.3392
59.5324
65.3908
70.3531
73.376
73.8515
72.0762
68.7062
64.582
60.4438
56.6309
52.9109
48.4171
42.1934
33.518
20.6376
1.63874
-22.8098
-53.1706
-90.3636
-127.015
-162.163
-190.841
-204.667
-202.512
-222.484
-467.18
-614.532
-1094.21
516.101
6.07065
2.57377
0.971257
-0.474911
-1.9872
-4.05148
-7.1032
-10.761
-13.6782
-13.9074
-10.5117
-4.99109
-0.505774
-0.177236
-5.42572
-15.6266
-29.0668
-43.8377
-58.1344
-69.7814
-76.7586
-77.3954
-70.0769
-54.7972
-33.4962
-10.56
9.54347
24.9265
36.1998
44.7656
51.8689
58.2146
63.9608
68.6904
71.6355
72.3092
70.8574
67.841
63.972
59.8363
55.6474
51.1846
45.871
39.0395
30.0501
17.2382
0.284716
-21.3266
-48.3319
-80.4697
-115.268
-148.252
-175.526
-192.266
-194.764
-231.305
-568.531
-846.146
-1014.53
749.388
5.05554
1.99756
0.918998
-0.52482
-2.15941
-4.27648
-7.21219
-10.5205
-13.0069
-13.0479
-10.0281
-5.30061
-1.66495
-1.7807
-6.93915
-16.6624
-29.444
-43.4821
-56.9695
-67.7767
-74.0938
-74.2337
-66.8146
-52.1496
-32.2708
-10.9042
8.2542
23.45
34.9426
43.7979
51.1043
57.5242
63.2264
67.8503
70.736
71.4967
70.1906
67.3588
63.6439
59.5735
55.401
50.9174
45.4815
38.5719
29.4816
16.7326
-0.288677
-21.8081
-47.2783
-76.9525
-109.06
-140.226
-166.193
-181.9
-179.224
-169.509
-388.663
-654.914
-217.069
1356.43
3.87886
-0.0456425
-1.6357
-3.78522
-5.94959
-7.98738
-9.96778
-11.6912
-12.7857
-12.773
-11.8076
-10.682
-10.7113
-12.5966
-16.1421
-20.528
-24.8671
-28.426
-30.7268
-31.4116
-30.3027
-27.347
-22.6837
-16.6521
-9.64984
-2.13912
5.51448
12.992
20.232
27.3577
34.4977
41.5458
48.0847
53.5145
57.3135
59.2367
59.4324
58.1036
55.6086
52.3753
48.8269
45.1705
41.1918
35.9909
28.4495
18.7851
5.735
-11.3436
-32.3041
-57.5747
-85.0602
-112.43
-136.471
-151.999
-151.298
-137.517
-320.027
-654.794
-453.198
2839.05
4.83057
0.522364
-1.68619
-3.92906
-6.08142
-8.11635
-10.1122
-11.9049
-13.0719
-13.037
-11.9066
-10.5266
-10.4403
-12.4198
-16.1541
-20.7063
-25.1151
-28.6544
-30.8909
-31.5274
-30.3953
-27.4219
-22.7351
-16.6714
-9.63712
-2.09309
5.61685
13.0856
20.2855
27.3904
34.5766
41.757
48.4751
54.0681
57.9111
59.7577
59.8677
58.4412
55.8574
52.5402
48.9663
45.4272
41.6173
36.5682
29.2193
19.2266
5.84204
-12.0119
-33.975
-60.3251
-89.3845
-118.848
-145.593
-164.395
-168.059
-183.609
-420.734
-779.227
-1065.03
1511.96
6.3843
1.25596
-1.85509
-4.28389
-6.43873
-8.43623
-10.4369
-12.3683
-13.6855
-13.6187
-12.1627
-10.2291
-9.91601
-12.1433
-16.3011
-21.2036
-25.7203
-29.1689
-31.2275
-31.7444
-30.5608
-27.5528
-22.8313
-16.7354
-9.66065
-2.04212
5.7214
13.1679
20.3063
27.3704
34.6366
42.0711
49.1347
55.0993
58.8397
60.5998
60.6359
59.1534
56.5336
53.2833
50.0663
47.2405
44.2288
39.7921
32.5401
21.7994
7.728
-11.1415
-35.4799
-65.2548
-98.8031
-130.949
-159.995
-181.98
-191.552
-204.759
-402.506
-633.128
-1116.48
470.872
6.68503
1.20848
-2.22213
-4.70588
-6.87198
-8.85802
-10.8644
-13.0152
-14.5964
-14.5578
-12.5951
-9.74527
-9.10686
-11.828
-16.7298
-22.1825
-26.8148
-29.9467
-31.5366
-31.7642
-30.5157
-27.4981
-22.7631
-16.6685
-9.57744
-1.87858
5.91713
13.3599
20.4029
27.3888
34.8059
42.6444
50.1809
56.4839
60.2506
61.8816
61.735
60.0365
57.1425
53.6895
50.87
49.4026
48.3407
45.7305
39.7841
29.1342
13.417
-7.99637
-35.3587
-68.2938
-108.718
-143.243
-171.266
-191.726
-195.355
-175.15
-316.736
-536.848
-991.511
545.557
6.85243
0.74278
-2.75352
-5.16135
-7.34477
-9.35507
-11.3336
-13.6902
-15.6331
-15.6533
-13.0131
-9.13051
-8.09718
-11.7338
-17.7588
-23.9585
-28.6579
-31.101
-31.6974
-31.4883
-30.1322
-27.1741
-22.4921
-16.4687
-9.41202
-1.66388
6.1562
13.5542
20.4249
27.2953
34.8548
43.1596
51.321
57.8082
61.7327
63.0451
62.498
60.3738
57.0381
53.2119
50.6775
50.8382
52.4792
53.2091
50.0941
41.5025
27.1303
5.56283
-27.1366
-68.6235
-113.993
-152.6
-179.989
-189.236
-172.314
-120.383
-192.221
-370.103
-643.758
3963.83
6.32173
0.274982
-3.09247
-5.3525
-7.75398
-10.023
-12.0547
-14.5584
-16.8912
-17.1934
-14.1076
-8.93203
-7.27817
-12.4573
-19.9495
-26.9947
-31.8405
-32.636
-31.4825
-30.3366
-28.9299
-26.1669
-21.718
-15.9271
-9.03841
-1.34069
6.49596
13.7931
20.4911
27.2742
34.9841
43.748
52.5908
59.4522
63.4495
64.232
63.0243
60.1209
55.8783
51.2963
48.5727
49.9845
54.0193
57.8505
58.3755
54.5218
46.2188
28.5994
-4.41962
-50.8753
-105.866
-153.544
-183.856
-184.712
-152.836
-81.0505
-51.9666
-190.309
86.7102
11798.5
2.55587
-0.443705
-2.84157
-5.00879
-8.03738
-10.9935
-13.1137
-15.2795
-17.593
-18.2452
-15.2311
-9.0537
-7.33285
-14.2882
-23.3316
-31.4372
-36.8262
-35.3422
-30.8365
-28.1448
-26.9255
-24.6248
-20.4828
-14.9376
-8.30249
-0.834184
6.80373
13.8464
20.2889
26.9327
34.7766
44.0036
53.4356
61.4379
65.4712
65.4479
63.5719
59.8238
54.7724
49.6907
46.938
49.1115
54.5038
60.8848
64.2241
63.0789
57.6431
46.6228
19.2665
-24.645
-82.1232
-140.766
-181.661
-176.756
-124.025
-45.0999
70.3694
51.8954
3146.59
58195
-0.37242
-0.180576
-2.46422
-4.17275
-7.86148
-12.0974
-14.6293
-15.9702
-17.8066
-19.3003
-16.7769
-9.21843
-6.97138
-15.3351
-26.2265
-37.1921
-44.6879
-39.6238
-30.086
-24.7061
-24.049
-22.5156
-18.6813
-13.4171
-7.18079
-0.137028
7.15537
13.9296
20.0549
26.4711
34.2974
43.6979
53.5091
61.9214
67.4785
66.1934
63.4661
58.8137
52.6102
46.4094
42.7519
44.3234
51.3487
60.9433
67.5887
70.3698
72.4001
65.5751
44.4217
8.19753
-42.2643
-107.091
-160.364
-160.905
-92.193
5.86078
237.757
912.58
24065.9
142427
-13.6637
-1.05195
-1.8051
-1.99096
-6.54639
-12.8045
-16.3711
-15.912
-16.3166
-18.443
-16.2505
-7.58814
-5.70073
-19.151
-35.9908
-47.9148
-50.7951
-44.0649
-27.5938
-18.0768
-19.3732
-19.2435
-15.6924
-10.8242
-5.25052
1.0323
7.71504
14.1349
20.0938
26.3677
34.1574
43.0739
52.2986
61.2092
65.8709
65.8556
63.388
58.1748
51.4562
45.0804
41.1893
42.1278
46.0791
52.4941
58.1112
60.1243
62.7069
63.4315
56.529
31.3559
-3.38347
-53.138
-111.65
-128.515
-64.6144
66.1445
464.34
2322.44
69552.4
213763
9.26726
5.07057
0.356602
1.85907
-3.25376
-15.0904
-22.8786
-18.394
-14.5191
-15.3453
-17.0399
-16.5987
-14.7694
-28.5084
-36.0916
-42.2942
-67.2681
-57.9036
-27.0538
-12.39
-16.3603
-16.6378
-12.1137
-7.49555
-2.53708
3.33462
9.94246
16.2386
21.762
27.6635
35.2465
44.1524
54.3832
65.3387
69.2923
68.1329
64.2484
57.3199
49.8093
43.5473
40.4716
44.0524
50.6371
58.4628
65.12
66.7086
65.6111
61.6012
46.8389
19.1606
-12.7434
-59.0097
-99.4368
-110.819
-42.7727
115.271
666.185
5829.11
83444.3
237304
62.0291
9.07071
4.66909
5.17787
-2.82626
-21.9575
-31.5113
-21.8692
-12.8896
-12.8165
-1.32437
12.7453
-13.8631
-51.4048
-72.3676
-81.601
-86.9679
-37.974
1.16513
11.6736
-4.27997
-8.8572
-4.66324
-0.999475
2.77735
7.85327
14.2633
20.8006
26.6957
32.5633
40.1539
49.1068
58.6816
68.536
70.8206
68.247
62.7234
54.9441
47.289
40.7906
37.1302
41.3811
48.7379
57.4317
65.3143
68.5419
67.3854
63.5064
54.6827
30.5092
-2.9745
-54.3085
-98.9096
-96.1976
-8.97528
151.553
750.057
6475.22
71070.7
229050
81.7526
18.2256
6.95314
6.9159
0.99491
-14.0967
-29.014
-31.4819
-19.9906
-2.24383
13.0398
4.00737
-20.8752
-50.6134
-48.8001
-36.3488
3.5784
-0.123266
31.0778
41.1237
2.55893
-8.23537
-1.15112
5.68363
9.84352
14.5697
21.0013
25.9585
29.6546
34.6514
42.4959
51.2842
59.0108
65.6525
68.0867
66.7408
62.454
54.5115
45.8881
39.2164
36.9748
41.4171
48.4566
56.091
63.6757
67.332
66.9234
61.3056
51.7195
32.1688
1.11077
-45.5793
-89.7394
-85.1662
0.323761
158.333
727.437
6031.02
65119.3
218592
74.2008
15.7908
6.30575
4.93677
-2.63587
-16.577
-30.2247
-34.3031
-22.3713
6.41288
35.2459
27.3715
-23.1762
-74.5129
-83.229
-132.414
-113.519
-37.5352
44.59
31.4625
-2.48958
-5.18261
9.04383
18.6912
15.4988
14.3763
15.9761
20.8225
26.8748
34.3123
43.035
52.9005
63.5844
68.7616
69.6824
68.7237
63.9732
56.2895
47.8187
41.0738
38.2543
42.4784
49.6298
56.9213
64.6605
68.4866
66.6429
60.946
49.2395
27.6116
-0.468031
-42.2936
-83.0301
-78.5201
-0.236961
161.638
685.48
5229.98
57357
211539
39.3418
13.4307
2.01542
1.32636
-4.65979
-15.5073
-26.5405
-31.2168
-20.9889
6.2307
33.6765
26.7579
-17.9789
-66.3307
-92.8547
-114.366
-119.014
-88.6499
-11.0125
2.73061
2.05429
5.55665
8.13922
7.63977
9.4316
12.8265
17.6712
22.8354
27.8472
34.0639
43.177
56.0496
68.9
72.4854
71.6223
69.209
63.3671
54.9287
46.2203
39.3566
37.8366
43.0387
49.7508
55.2916
60.7992
64.552
63.1145
55.4042
40.0918
16.825
-11.7161
-47.4263
-83.3394
-81.5048
-14.8426
138.508
536.966
4852.47
59007.9
211338
-4.72687
-0.156848
-2.26387
-1.05733
-5.07472
-10.4868
-18.0498
-25.7123
-22.793
-1.20356
25.074
22.3734
-10.4714
-48.3368
-78.2836
-106.891
-120.272
-90.1049
-49.62
-21.8663
3.46274
15.358
14.2585
9.17356
8.70309
11.2309
17.1882
23.8006
29.1548
33.972
41.9826
54.6031
67.7468
73.8411
73.5495
70.9652
65.3168
56.4199
47.1567
40.3423
37.8058
41.6084
47.959
52.101
54.7414
54.5358
49.9436
40.5811
25.9291
5.90475
-18.7682
-48.896
-91.7323
-99.1325
-27.7935
125.906
365.999
3102.26
57654.1
202349
-13.1316
-4.87139
-5.30244
-4.06935
-6.86291
-9.6433
-13.1775
-18.4289
-18.2715
-5.92264
10.3963
11.4472
-9.25917
-37.0372
-66.509
-95.009
-110.588
-90.8543
-57.2462
-23.1852
4.88602
11.626
8.09939
5.52025
8.37056
12.1858
18.3237
25.1782
30.8736
35.889
41.8266
51.7457
63.0515
70.1106
72.042
71.1185
66.7146
57.9314
49.3072
44.4193
45.1293
48.8957
54.3286
56.5789
53.0662
48.1388
41.5331
30.8782
14.8667
-11.5411
-50.7855
-101.441
-150.471
-144.328
-49.0505
95.3355
323.611
1729.03
38008.3
180204
-18.0871
-6.46998
-6.02385
-4.63047
-6.59802
-8.02304
-9.70463
-14.1999
-16.5046
-10.0444
2.41465
7.13621
-2.77249
-24.0538
-54.8432
-86.94
-102.538
-91.313
-66.2127
-34.6286
-4.98427
4.65243
3.42262
4.55866
6.89508
12.2174
19.2485
26.7813
32.71
37.405
44.4567
52.679
61.1344
66.9672
70.4526
70.9086
66.8716
57.8438
48.7997
43.6985
42.3537
42.6131
44.3693
46.1775
45.8796
42.0049
34.6131
22.656
2.54966
-33.2733
-80.2399
-132.352
-169.661
-148.628
-65.3422
52.7909
308.756
1762.03
21289.2
145020
1.93658
-0.202565
-3.12967
-4.27627
-5.87527
-7.023
-9.04898
-12.829
-15.396
-12.3761
-4.512
-0.618616
-5.94626
-21.0872
-45.1537
-69.4528
-82.6647
-81.2629
-66.9229
-45.0901
-22.8271
-10.8358
-7.28593
-3.51363
3.56859
11.6601
20.2077
28.6807
35.9355
43.1887
49.8214
56.6543
63.0406
67.2627
69.2389
69.2073
64.6034
56.5126
49.0806
44.9902
44.8116
47.3846
50.6487
52.9857
52.1056
46.0505
34.8971
15.9923
-13.8263
-56.6479
-106.885
-158.002
-184.436
-159.885
-84.2873
14.3508
205.389
1084.25
8888.47
78543.4
5.17523
-0.955628
-3.12675
-3.98893
-5.2119
-6.38819
-8.35606
-11.3391
-13.548
-12.2789
-8.26539
-6.20628
-10.0111
-21.1991
-38.8878
-57.3937
-68.3565
-68.9609
-60.6612
-46.5448
-31.0239
-19.859
-13.3525
-5.41433
2.73861
11.8763
21.0166
29.1605
36.6333
43.5866
50.448
57.053
62.7732
66.646
68.9129
68.9213
64.7714
58.0982
52.1163
48.33
47.2224
48.0055
49.5204
49.6618
46.4036
37.842
20.7394
-7.04201
-46.7066
-100.656
-159.267
-200.164
-214.848
-186.331
-121.682
-60.29
-70.602
-146.174
219.641
17077.3
7.22265
1.59265
-1.73256
-3.33156
-4.6945
-6.07965
-8.05338
-10.7261
-12.8827
-12.7501
-10.6727
-9.57643
-12.4673
-20.6702
-33.5214
-47.2851
-56.9938
-59.9386
-56.2625
-47.6243
-36.7349
-26.7224
-18.4425
-8.55985
1.84351
12.352
22.25
31.048
38.8751
45.5965
51.6107
57.2047
61.7671
64.8611
66.6458
66.3406
63.2687
58.2727
53.6799
50.5889
49.3693
49.1072
48.8436
46.4651
39.6932
25.8252
2.40724
-32.9884
-77.8631
-131.172
-177.497
-201.557
-208.362
-196.215
-156.403
-147.454
-290.008
-360.197
-634.636
2901.79
7.687
2.23096
-0.77987
-2.65465
-4.18763
-5.77214
-7.79639
-10.3088
-12.4407
-12.9891
-12.0979
-11.6367
-13.9765
-20.316
-30.2425
-41.2414
-49.9739
-54.3452
-53.7341
-48.6808
-40.6185
-30.9915
-21.4963
-10.672
1.06091
12.5437
22.9404
31.9058
39.5986
46.161
51.9211
56.9427
61.0625
64.1619
65.5426
65.077
62.5163
58.5898
54.7816
51.8635
49.9868
48.5349
46.2299
41.531
31.8264
14.1312
-13.2926
-50.4854
-91.5044
-134.171
-165.112
-185.228
-196.419
-196.922
-179.849
-194.439
-380.688
-484.577
-855.081
1256.79
7.67051
2.72552
-0.191194
-2.16544
-3.81856
-5.54515
-7.6198
-10.0331
-12.1531
-13.1084
-12.9363
-12.9351
-14.9811
-20.1627
-28.336
-37.7482
-45.9669
-51.149
-52.3737
-49.5113
-43.1929
-34.3487
-24.026
-12.1238
0.524658
12.6988
23.4812
32.5814
40.1884
46.5737
52.004
56.6292
60.3534
63.0946
64.4202
64.0157
61.8936
58.6582
55.3213
52.4218
50.0614
47.5781
43.7442
37.041
25.1576
5.49987
-22.8201
-55.85
-89.3949
-120.552
-146.345
-166.546
-178.943
-185.477
-185.856
-217.387
-464.32
-550.904
-992.979
1063.55
6.09113
2.20168
0.171341
-1.72537
-3.50036
-5.3211
-7.45275
-9.80224
-11.9113
-13.0807
-13.3528
-13.6726
-15.5824
-20.0942
-27.2467
-35.7454
-43.6618
-49.3021
-51.5423
-49.9189
-44.5951
-36.1227
-25.488
-13.0181
0.184188
12.7846
23.8184
33.0087
40.5779
46.8703
52.164
56.599
60.1278
62.6861
63.729
63.3504
61.4927
58.6323
55.5124
52.5462
49.7467
46.4397
41.4805
33.5388
20.9401
2.41469
-21.5729
-49.4871
-78.7495
-107.022
-131.635
-151.804
-166.965
-176.376
-177.102
-217.66
-465.98
-659.206
-917.474
1881.71
5.1427
1.65148
0.269924
-1.57578
-3.39546
-5.25278
-7.39658
-9.7189
-11.818
-13.088
-13.5524
-14.0258
-15.8891
-20.1169
-26.8122
-34.8914
-42.6511
-48.4825
-51.1919
-50.1468
-45.2887
-37.0675
-26.2363
-13.4994
-0.042803
12.754
23.9083
33.1481
40.7067
46.9509
52.173
56.5212
59.962
62.3387
63.3527
63.0025
61.2589
58.5574
55.5282
52.5259
49.544
45.9586
40.7154
32.4928
19.7525
2.00612
-20.7679
-46.5863
-72.6799
-98.0548
-120.88
-140.9
-156.426
-166.808
-164.57
-184.974
-361.832
-469.84
-148.138
2602.53
4.0017
1.50284
0.621859
-0.533737
-2.10334
-4.23833
-7.37125
-10.9818
-13.7126
-13.6487
-10.0082
-4.44929
-0.197703
-0.210339
-5.72729
-16.0435
-29.3479
-43.6547
-57.1818
-67.8991
-74.1103
-74.3268
-67.229
-52.9351
-33.4616
-12.3727
6.72489
21.9763
33.5824
42.5828
50.0947
56.8069
62.8689
67.8744
71.0713
71.9219
70.493
67.3398
63.3065
58.9424
54.4249
49.4438
43.2213
35.3445
24.8618
9.90784
-9.76177
-33.3473
-60.7852
-92.0573
-125.837
-158.862
-187.013
-205.528
-203.863
-193.199
-478.069
-720.11
-80.1462
2041.4
3.95146
1.58217
0.564384
-0.628646
-2.13831
-4.23699
-7.51364
-11.3804
-14.3464
-14.1369
-9.90367
-3.60973
1.14222
1.13406
-4.75747
-15.606
-29.344
-43.8158
-57.217
-67.5902
-73.3703
-73.3577
-66.5329
-52.7311
-33.8849
-13.4662
5.18086
20.2497
31.8979
41.0464
48.7952
55.8448
62.3704
67.9348
71.6177
72.6672
71.1447
67.7623
63.4432
58.6093
53.4901
47.6831
40.3564
30.9543
19.2062
3.01515
-18.0453
-41.8307
-68.8119
-99.4201
-133.06
-167.604
-198.024
-217.608
-217.344
-224.532
-530.173
-785.313
-326.283
2780.07
2.33782
1.02778
0.148487
-0.859196
-2.25742
-4.28351
-7.65235
-11.7209
-14.8707
-14.4781
-9.66668
-2.71482
2.36095
2.24129
-4.06539
-15.4006
-29.4923
-44.0507
-57.196
-67.0551
-72.1989
-71.6153
-64.8523
-51.7047
-33.6079
-14.1611
3.72988
18.401
29.9205
39.1551
47.0402
54.2749
61.1052
66.9789
70.8177
71.8654
70.1152
66.184
60.9417
55.3474
49.3311
42.5373
34.7332
25.7094
15.5076
1.20188
-17.4354
-39.337
-64.8146
-94.9348
-129.292
-166.51
-199.519
-222.657
-227.342
-256.528
-519.531
-833.461
-1077.73
5350.52
1.46901
0.480307
-0.32341
-1.27046
-2.49094
-4.42368
-7.82325
-12.0435
-15.3444
-14.7216
-9.40629
-2.03659
3.28653
2.94854
-3.80601
-15.5701
-29.8969
-44.4029
-57.1772
-66.3531
-70.5771
-69.1708
-62.1389
-49.4955
-32.5782
-14.3988
2.45894
16.543
27.8168
37.0529
45.2026
52.9113
60.1809
66.6232
71.0747
72.532
70.8025
66.9253
62.0556
57.0926
52.1523
47.0372
41.1319
34.0342
24.7183
11.5475
-5.82886
-26.9184
-50.8054
-81.1449
-120.102
-163.44
-198.77
-217.427
-220.706
-235.941
-402.575
-691.282
-1801.37
25435.9
-0.563025
-0.244595
-0.940446
-1.77105
-2.83239
-4.67704
-8.03661
-12.2903
-15.5989
-14.598
-8.97792
-1.61514
3.87356
3.15074
-3.86519
-15.7588
-30.0827
-44.3956
-56.6609
-64.9684
-68.0447
-65.6494
-58.1891
-46.3329
-30.9424
-14.3812
1.20471
14.602
25.6306
34.9019
43.2435
51.2436
58.9806
66.0342
70.8274
72.3634
70.7246
66.9783
62.3159
57.6387
53.025
48.2242
42.9334
36.2215
26.9894
13.5889
-4.68179
-27.0425
-54.0839
-86.807
-123.589
-162.812
-192.441
-203.548
-212.093
-183.579
-223.648
-289.838
1195.77
111257
0.487207
-0.577216
-1.45779
-2.43778
-3.51909
-5.31011
-8.40427
-12.3173
-15.2231
-14.0272
-8.55018
-1.60029
3.4342
2.64662
-4.29154
-15.9582
-30.0147
-43.981
-55.6167
-62.9826
-65.0928
-61.8204
-54.2166
-42.7846
-28.6628
-13.6285
0.668232
13.2654
23.945
33.1037
41.4965
49.616
57.5361
64.8424
69.994
71.8286
70.3757
66.6099
61.9128
57.3273
52.7467
48.0618
42.8543
36.072
27.1581
13.9325
-4.35861
-27.2603
-54.8274
-86.736
-121.75
-158.42
-185.836
-195.241
-194.978
-117.928
-49.9813
123.198
4404.68
196241
-1.37765
-1.47605
-1.99353
-2.87032
-4.06161
-5.83796
-8.79346
-12.3605
-14.7941
-13.5477
-8.418
-1.89122
2.51551
1.64616
-5.05273
-16.2491
-29.7571
-43.0621
-53.8615
-60.2501
-61.2798
-57.9348
-50.4195
-39.498
-26.4385
-12.6709
0.496122
12.272
22.5022
31.4745
39.8107
48.0114
56.1063
63.5315
68.7946
70.7873
69.4457
65.7644
61.3194
56.7752
52.2375
47.7492
42.7078
36.1065
26.9186
13.8246
-3.22847
-25.8946
-54.1335
-85.9824
-120.74
-157.231
-183.583
-197.646
-211.429
-51.7424
4.99629
87.1215
4704.34
258723
-0.869856
-1.45318
-2.14137
-3.22682
-4.62636
-6.47869
-9.27831
-12.4781
-14.541
-13.2859
-8.41833
-2.3473
1.49772
0.538795
-5.83787
-16.4312
-29.1149
-41.5546
-51.5788
-57.4333
-58.5986
-54.8916
-47.2321
-36.7257
-24.4716
-11.6686
0.589301
11.6216
21.3323
30.0213
38.294
46.5693
54.8227
62.342
67.6865
69.8256
68.802
65.4225
60.9102
56.1084
51.4826
46.8449
41.3747
34.1188
24.9211
12.5303
-3.90034
-25.5129
-53.7889
-85.7843
-120.239
-156.338
-187.744
-206.109
-180.869
-69.8272
-85.8639
-255.531
2369.12
232219
-1.4705
-1.72828
-2.36342
-3.51556
-5.07781
-6.98307
-9.61839
-12.5189
-14.3317
-13.0864
-8.67533
-3.21686
0.170664
-0.877497
-6.87583
-16.6369
-28.2625
-39.6336
-48.7223
-53.9748
-54.7893
-51.0862
-43.8754
-34.0208
-22.5887
-10.6459
0.823891
11.2368
20.5058
28.9561
37.1743
45.4816
53.7899
61.2819
66.5471
68.689
67.7374
64.393
59.7729
54.6869
49.791
44.9295
39.5143
32.956
24.4434
12.5924
-3.15508
-24.5776
-53.5266
-85.5966
-119.461
-156.189
-190.864
-204.298
-177.59
-123.757
-262.461
-823.704
1634.87
138914
-0.309375
-1.44877
-2.3725
-3.71354
-5.47955
-7.43344
-9.94929
-12.5875
-14.2248
-13.1174
-9.18089
-4.30235
-1.39795
-2.57857
-8.2165
-17.1304
-27.6193
-37.7925
-45.8355
-50.3791
-50.9006
-47.3996
-40.6365
-31.4097
-20.7131
-9.52647
1.238
11.0961
19.9668
28.2273
36.3633
44.665
52.9363
60.266
65.3537
67.465
66.6352
63.4173
58.7058
53.0606
47.2632
41.3288
34.8023
27.1315
18.0009
5.54238
-9.87416
-30.3385
-56.739
-86.8028
-120.649
-158.547
-194.758
-210.792
-194.707
-155.354
-322.429
-967.285