/*--------------------------------*- C++ -*----------------------------------*\
| =========                 |                                                 |
| \\      /  F ield         | OpenFOAM: The Open Source CFD Toolbox           |
|  \\    /   O peration     | Version:  2.1.1                                 |
|   \\  /    A nd           | Web:      www.OpenFOAM.org                      |
|    \\/     M anipulation  |                                                 |
\*---------------------------------------------------------------------------*/
FoamFile
{
    version     2.0;
    format      ascii;
    class       surfaceScalarField;
    location    "0.0014";
    object      phi;
}
// * * * * * * * * * * * * * * * * * * * * * * * * * * * * * * * * * * * * * //

dimensions      [0 3 -1 0 0 0 0];

internalField   nonuniform List<scalar> 
105695
(
-2.14778e-08
-1.10841e-07
-2.92843e-08
1.61603e-07
-5.38745e-08
-3.31333e-09
-4.97137e-09
4.06814e-08
-9.84211e-08
3.13568e-08
1.09164e-08
2.27345e-09
-1.23388e-07
2.68747e-08
3.71469e-08
-3.90547e-08
-1.45325e-07
2.63866e-08
5.46503e-08
-5.90996e-08
-1.61738e-07
2.59671e-08
6.96076e-08
-7.91622e-08
-1.81215e-07
2.99644e-08
8.56578e-08
-9.61447e-08
-2.02276e-07
3.25607e-08
9.77363e-08
-1.09237e-07
-2.24524e-07
3.41619e-08
1.0429e-07
-1.16204e-07
-2.43079e-07
3.0877e-08
1.04269e-07
-1.16591e-07
-2.55333e-07
2.50723e-08
9.67801e-08
-1.09598e-07
-2.60628e-07
1.92291e-08
9.19942e-08
-1.05928e-07
-2.64376e-07
1.85543e-08
9.56475e-08
-1.10454e-07
-2.73663e-07
2.49747e-08
1.12744e-07
-1.28431e-07
-2.94217e-07
3.79119e-08
1.38218e-07
-1.55577e-07
-3.29755e-07
5.41795e-08
1.67864e-07
-1.86505e-07
-3.79557e-07
6.87081e-08
1.8981e-07
-2.08716e-07
-4.37838e-07
7.58787e-08
1.93391e-07
-2.10989e-07
-4.9452e-07
7.12564e-08
1.70122e-07
-1.84697e-07
-5.37744e-07
5.28526e-08
1.18343e-07
-1.27971e-07
-5.53924e-07
1.92568e-08
4.41707e-08
-4.72481e-08
-5.39351e-07
-1.76199e-08
-3.47418e-08
3.77892e-08
-4.97952e-07
-5.17197e-08
-1.01384e-07
1.11704e-07
-4.41033e-07
-7.25713e-08
-1.38017e-07
1.5367e-07
-3.87049e-07
-7.39009e-08
-1.36133e-07
1.5605e-07
-3.51804e-07
-5.86679e-08
-1.0173e-07
1.25153e-07
-3.36189e-07
-3.97859e-08
-5.78041e-08
8.19751e-08
-3.32572e-07
-2.55412e-08
-2.08671e-08
4.27911e-08
-3.34089e-07
-1.62325e-08
5.07386e-09
1.2676e-08
-3.37807e-07
-1.04202e-08
2.21598e-08
-8.02118e-09
-3.42486e-07
-5.53977e-09
3.3378e-08
-2.31593e-08
-3.47752e-07
-1.24436e-09
4.17222e-08
-3.52123e-08
-3.53152e-07
2.00187e-09
4.86518e-08
-4.52539e-08
-3.586e-07
4.98342e-09
5.50421e-08
-5.45773e-08
-3.64231e-07
7.82761e-09
6.20416e-08
-6.42379e-08
-3.70353e-07
1.05201e-08
7.02032e-08
-7.46019e-08
-3.77173e-07
1.31836e-08
7.96529e-08
-8.60164e-08
-3.84585e-07
1.53915e-08
9.05829e-08
-9.85619e-08
-3.92015e-07
1.66834e-08
1.02738e-07
-1.11991e-07
-3.99297e-07
1.76136e-08
1.1702e-07
-1.27352e-07
-4.06991e-07
1.95669e-08
1.33081e-07
-1.44953e-07
-4.16535e-07
2.43068e-08
1.48445e-07
-1.63208e-07
-4.2994e-07
3.41578e-08
1.58685e-07
-1.79438e-07
-4.4939e-07
4.92703e-08
1.59387e-07
-1.89208e-07
-4.75877e-07
6.76472e-08
1.45517e-07
-1.86677e-07
-5.11516e-07
8.95271e-08
1.1763e-07
-1.71518e-07
-5.57348e-07
1.15191e-07
7.32547e-08
-1.42614e-07
-6.16629e-07
1.46228e-07
5.71471e-09
-9.26614e-08
-6.92845e-07
1.83021e-07
-8.10983e-08
-2.57063e-08
-7.93392e-07
2.1973e-07
-1.83328e-07
6.41452e-08
-9.16308e-07
2.46413e-07
-3.18487e-07
1.9499e-07
-1.03533e-06
2.26201e-07
-4.89889e-07
3.82711e-07
-1.12949e-06
1.78914e-07
-6.87442e-07
6.02682e-07
-1.20727e-06
1.26258e-07
-8.9374e-07
8.45265e-07
-1.35245e-06
1.53812e-07
-1.11286e-06
1.10423e-06
-1.73297e-06
3.26507e-07
-1.45082e-06
1.50483e-06
-2.37765e-06
5.092e-07
-2.32581e-06
2.46128e-06
-2.71404e-06
4.98171e-08
-4.10281e-06
4.38938e-06
-2.62664e-06
-3.45745e-07
-6.52801e-06
6.78636e-06
-2.72665e-06
-8.00407e-06
8.10408e-06
-1.44667e-07
-9.3345e-08
-8.03189e-09
1.35203e-07
-1.95946e-07
2.66036e-08
3.54389e-08
-1.4077e-08
-2.28887e-07
5.89737e-08
3.54453e-08
-3.01207e-08
-2.52023e-07
5.47452e-08
6.40719e-08
-6.88062e-08
-2.72835e-07
5.46364e-08
6.84814e-08
-7.59198e-08
-2.88324e-07
5.35241e-08
8.5105e-08
-9.71727e-08
-3.08224e-07
6.17363e-08
9.68234e-08
-1.08696e-07
-3.30074e-07
6.66573e-08
1.08524e-07
-1.2077e-07
-3.53644e-07
7.00157e-08
1.1326e-07
-1.25544e-07
-3.7313e-07
6.2523e-08
1.11237e-07
-1.23397e-07
-3.85899e-07
5.01234e-08
1.00695e-07
-1.12977e-07
-3.91226e-07
3.85574e-08
9.2733e-08
-1.06735e-07
-3.94828e-07
3.65145e-08
9.27482e-08
-1.07106e-07
-4.0354e-07
4.8729e-08
1.08335e-07
-1.23378e-07
-4.23466e-07
7.3372e-08
1.32928e-07
-1.48462e-07
-4.58637e-07
1.05453e-07
1.63581e-07
-1.79684e-07
-5.08368e-07
1.34567e-07
1.85356e-07
-2.01484e-07
-5.67024e-07
1.49888e-07
1.88405e-07
-2.03758e-07
-6.24338e-07
1.41797e-07
1.62619e-07
-1.75846e-07
-6.66612e-07
1.0428e-07
1.06461e-07
-1.15615e-07
-6.80545e-07
3.66181e-08
2.58822e-08
-2.93098e-08
-6.63284e-07
-3.53476e-08
-5.99157e-08
6.03823e-08
-6.18798e-07
-1.03378e-07
-1.30791e-07
1.37963e-07
-5.59138e-07
-1.45384e-07
-1.69062e-07
1.82214e-07
-5.03819e-07
-1.4751e-07
-1.64534e-07
1.82824e-07
-4.69486e-07
-1.16573e-07
-1.24183e-07
1.47755e-07
-4.55572e-07
-7.93418e-08
-7.50196e-08
1.00661e-07
-4.53172e-07
-5.19885e-08
-3.58968e-08
5.99445e-08
-4.55016e-07
-3.45993e-08
-9.58531e-09
2.97964e-08
-4.58147e-07
-2.33537e-08
7.44902e-09
8.61554e-09
-4.6187e-07
-1.4766e-08
1.90812e-08
-6.13264e-09
-4.6607e-07
-6.9569e-09
2.7511e-08
-1.75979e-08
-4.70468e-07
-6.06766e-10
3.44076e-08
-2.74015e-08
-4.74954e-07
5.31536e-09
4.06889e-08
-3.65348e-08
-4.79714e-07
1.08751e-08
4.76226e-08
-4.591e-08
-4.85306e-07
1.63482e-08
5.55905e-08
-5.58259e-08
-4.91757e-07
2.13061e-08
6.51335e-08
-6.68055e-08
-4.98785e-07
2.51945e-08
7.55478e-08
-7.83231e-08
-5.05762e-07
2.72372e-08
8.68619e-08
-9.04383e-08
-5.12358e-07
2.86583e-08
9.97923e-08
-1.04241e-07
-5.187e-07
3.15729e-08
1.1317e-07
-1.18834e-07
-5.24802e-07
3.9038e-08
1.23922e-07
-1.3255e-07
-5.31199e-07
5.46379e-08
1.28695e-07
-1.42778e-07
-5.39409e-07
7.9391e-08
1.25321e-07
-1.47231e-07
-5.51092e-07
1.09548e-07
1.13215e-07
-1.43433e-07
-5.7083e-07
1.46772e-07
9.21524e-08
-1.2966e-07
-6.01825e-07
1.94553e-07
5.36301e-08
-1.01998e-07
-6.48515e-07
2.55563e-07
-5.24106e-09
-5.74039e-08
-7.12561e-07
3.29781e-07
-8.17256e-08
-9.88413e-10
-7.99334e-07
4.07853e-07
-1.80452e-07
7.91019e-08
-9.01633e-07
4.58326e-07
-3.16687e-07
2.07073e-07
-1.01113e-06
4.46976e-07
-4.98354e-07
3.87071e-07
-1.09657e-06
3.49599e-07
-7.10576e-07
6.25337e-07
-1.14441e-06
2.13639e-07
-9.10529e-07
8.70987e-07
-1.16859e-06
1.88072e-07
-1.09931e-06
1.08924e-06
-1.18965e-06
3.41013e-07
-1.30756e-06
1.31411e-06
-1.24144e-06
5.57117e-07
-1.70933e-06
1.71322e-06
-1.19475e-06
-2.06297e-07
-2.35753e-06
2.56695e-06
-7.31991e-07
-1.37704e-06
-2.86752e-06
3.43605e-06
-4.38726e-06
-3.30214e-06
4.23076e-06
-1.98207e-07
-3.72083e-08
8.82165e-09
1.33249e-07
-2.6342e-07
7.09459e-08
4.26783e-08
-2.18085e-08
-2.99356e-07
9.16312e-08
4.80005e-08
-4.47215e-08
-3.19057e-07
8.1817e-08
6.81162e-08
-7.54871e-08
-3.3608e-07
8.24936e-08
7.20925e-08
-8.29262e-08
-3.50515e-07
8.1185e-08
9.04069e-08
-1.03634e-07
-3.69408e-07
9.39084e-08
1.01955e-07
-1.15233e-07
-3.91513e-07
1.02452e-07
1.16281e-07
-1.29972e-07
-4.16339e-07
1.07961e-07
1.22568e-07
-1.35687e-07
-4.36714e-07
9.55239e-08
1.1948e-07
-1.32106e-07
-4.48621e-07
7.58351e-08
1.04836e-07
-1.18641e-07
-4.52027e-07
5.93729e-08
9.14449e-08
-1.08854e-07
-4.52713e-07
5.72115e-08
8.58413e-08
-1.05853e-07
-4.58712e-07
7.58088e-08
1.01384e-07
-1.22464e-07
-4.77281e-07
1.11759e-07
1.29648e-07
-1.49466e-07
-5.13034e-07
1.59248e-07
1.68268e-07
-1.86309e-07
-5.64904e-07
2.03799e-07
1.97804e-07
-2.15166e-07
-6.26628e-07
2.28797e-07
2.06146e-07
-2.23331e-07
-6.8818e-07
2.18338e-07
1.82184e-07
-1.97173e-07
-7.33851e-07
1.61664e-07
1.20399e-07
-1.32111e-07
-7.47752e-07
5.70912e-08
2.57886e-08
-3.236e-08
-7.2843e-07
-5.20947e-08
-7.38374e-08
7.12624e-08
-6.78376e-07
-1.54807e-07
-1.60001e-07
1.61376e-07
-6.09131e-07
-2.21004e-07
-2.08076e-07
2.14451e-07
-5.45299e-07
-2.2502e-07
-2.00284e-07
2.13961e-07
-5.08622e-07
-1.76688e-07
-1.47001e-07
1.7044e-07
-4.96603e-07
-1.19892e-07
-8.61964e-08
1.14727e-07
-4.9673e-07
-8.00808e-08
-4.07828e-08
6.90023e-08
-5.00218e-07
-5.59834e-08
-1.17511e-08
3.66235e-08
-5.04121e-07
-4.03437e-08
6.00383e-09
1.48887e-08
-5.07987e-07
-2.75385e-08
1.75849e-08
-9.45993e-10
-5.12376e-07
-1.62197e-08
2.60484e-08
-1.23971e-08
-5.17013e-07
-6.63392e-09
3.30861e-08
-2.24217e-08
-5.21527e-07
1.70657e-09
3.99635e-08
-3.18413e-08
-5.26082e-07
9.93844e-09
4.74114e-08
-4.19191e-08
-5.3161e-07
1.8269e-08
5.63818e-08
-5.27745e-08
-5.38223e-07
2.54915e-08
6.6774e-08
-6.4347e-08
-5.4574e-07
3.04039e-08
7.84234e-08
-7.61156e-08
-5.53297e-07
3.16569e-08
9.15068e-08
-8.83688e-08
-5.602e-07
3.12198e-08
1.06508e-07
-1.02167e-07
-5.66513e-07
3.264e-08
1.22626e-07
-1.1738e-07
-5.71645e-07
3.96395e-08
1.37847e-07
-1.33317e-07
-5.75577e-07
5.88562e-08
1.48261e-07
-1.48547e-07
-5.80642e-07
9.306e-08
1.53097e-07
-1.61701e-07
-5.88079e-07
1.32698e-07
1.52717e-07
-1.6843e-07
-6.01552e-07
1.80996e-07
1.48165e-07
-1.68916e-07
-6.20089e-07
2.42571e-07
1.29628e-07
-1.59109e-07
-6.44325e-07
3.31322e-07
8.68526e-08
-1.38376e-07
-6.73519e-07
4.43306e-07
2.13825e-08
-1.05714e-07
-7.06196e-07
5.6049e-07
-7.84825e-08
-4.14771e-08
-7.30489e-07
6.37889e-07
-2.31745e-07
7.64755e-08
-7.2304e-07
6.16888e-07
-4.33062e-07
2.55701e-07
-6.86128e-07
4.16113e-07
-5.97646e-07
4.94219e-07
-7.00146e-07
1.89564e-07
-7.19378e-07
7.57471e-07
-7.10101e-07
1.17054e-07
-9.32029e-07
1.013e-06
-5.04962e-07
1.5279e-07
-1.22635e-06
1.20944e-06
-2.05083e-07
3.36066e-07
-1.37439e-06
1.29556e-06
-2.62799e-07
-2.30791e-07
-1.49211e-06
1.57432e-06
-3.10524e-08
-1.8578e-06
-1.77364e-06
2.02266e-06
-5.13349e-06
-2.22407e-06
2.93924e-06
-2.31709e-07
4.93564e-08
1.21681e-08
1.32976e-07
-3.07168e-07
1.23218e-07
5.54641e-08
-3.2277e-08
-3.50614e-07
1.30996e-07
6.14008e-08
-5.73194e-08
-3.69557e-07
1.10858e-07
7.34406e-08
-8.35388e-08
-3.82061e-07
1.12807e-07
8.00186e-08
-9.78275e-08
-3.94966e-07
1.13951e-07
9.63106e-08
-1.16172e-07
-4.12879e-07
1.31622e-07
1.11188e-07
-1.30988e-07
-4.37809e-07
1.45197e-07
1.29748e-07
-1.47563e-07
-4.66893e-07
1.50869e-07
1.39883e-07
-1.53707e-07
-4.91689e-07
1.3114e-07
1.35647e-07
-1.46468e-07
-5.04283e-07
1.02145e-07
1.12921e-07
-1.26637e-07
-5.05287e-07
8.11063e-08
8.98221e-08
-1.10552e-07
-5.02622e-07
8.39644e-08
7.7222e-08
-1.06641e-07
-5.05534e-07
1.13554e-07
9.27056e-08
-1.27539e-07
-5.21689e-07
1.62383e-07
1.27882e-07
-1.62352e-07
-5.56147e-07
2.22517e-07
1.78851e-07
-2.07661e-07
-6.08437e-07
2.78492e-07
2.24077e-07
-2.4648e-07
-6.7142e-07
3.08466e-07
2.44222e-07
-2.60908e-07
-7.37667e-07
2.96173e-07
2.23509e-07
-2.35097e-07
-7.90042e-07
2.23611e-07
1.50373e-07
-1.59944e-07
-8.03783e-07
8.39165e-08
2.96735e-08
-4.2758e-08
-7.83037e-07
-6.58418e-08
-9.32763e-08
8.62774e-08
-7.27627e-07
-1.96243e-07
-2.07747e-07
1.93773e-07
-6.45814e-07
-2.86533e-07
-2.72778e-07
2.56494e-07
-5.69448e-07
-2.9289e-07
-2.60295e-07
2.51799e-07
-5.29698e-07
-2.28633e-07
-1.81922e-07
1.94119e-07
-5.2117e-07
-1.55339e-07
-9.9291e-08
1.26209e-07
-5.25208e-07
-1.06849e-07
-4.25632e-08
7.33698e-08
-5.30825e-07
-7.96455e-08
-8.13641e-09
3.74149e-08
-5.3533e-07
-6.19927e-08
1.30307e-08
1.31233e-08
-5.39234e-07
-4.67808e-08
2.79456e-08
-4.79856e-09
-5.43808e-07
-3.19829e-08
3.92301e-08
-1.88934e-08
-5.49106e-07
-1.83251e-08
4.84017e-08
-3.14121e-08
-5.54886e-07
-6.29092e-09
5.69823e-08
-4.32057e-08
-5.60922e-07
5.93931e-09
6.61176e-08
-5.60824e-08
-5.68295e-07
1.83943e-08
7.73164e-08
-7.00687e-08
-5.77047e-07
2.85087e-08
8.99204e-08
-8.41847e-08
-5.86484e-07
3.42108e-08
1.03304e-07
-9.7674e-08
-5.95554e-07
3.28221e-08
1.17873e-07
-1.09968e-07
-6.02763e-07
2.6294e-08
1.34528e-07
-1.22393e-07
-6.077e-07
2.09003e-08
1.52815e-07
-1.36139e-07
-6.07985e-07
2.02882e-08
1.7059e-07
-1.50953e-07
-6.01516e-07
3.59323e-08
1.83629e-07
-1.67175e-07
-5.89657e-07
7.56609e-08
1.91483e-07
-1.85943e-07
-5.67771e-07
1.17717e-07
1.94169e-07
-2.01074e-07
-5.33147e-07
1.68521e-07
1.87823e-07
-2.09971e-07
-4.83601e-07
2.43436e-07
1.62275e-07
-2.12686e-07
-4.2352e-07
3.50904e-07
1.26818e-07
-2.06481e-07
-3.57675e-07
4.86684e-07
7.88005e-08
-1.88024e-07
-2.81159e-07
6.29914e-07
1.9491e-08
-1.65431e-07
-1.72303e-07
7.23151e-07
-7.764e-08
-1.16479e-07
-1.19192e-08
6.97783e-07
-2.88657e-07
4.73794e-08
1.7945e-07
4.13231e-07
-4.4286e-07
2.54374e-07
3.48722e-07
6.59062e-08
-4.86157e-07
4.40543e-07
4.51857e-07
-6.87197e-08
-4.81116e-07
5.63754e-07
5.19103e-07
-8.37077e-08
-5.0909e-07
6.78342e-07
8.09284e-07
-9.77581e-09
-6.55539e-07
7.11199e-07
9.44623e-07
-2.79528e-07
-7.05415e-07
6.18813e-07
6.229e-07
-1.55783e-06
-5.88853e-07
6.10606e-07
-5.27813e-06
-1.86925e-06
2.63679e-06
-2.6357e-07
1.59316e-07
5.42181e-08
9.93921e-08
-3.51419e-07
1.84019e-07
6.98744e-08
-4.28261e-08
-3.97242e-07
1.77651e-07
6.52558e-08
-6.60884e-08
-4.16565e-07
1.42276e-07
7.92316e-08
-9.13263e-08
-4.29537e-07
1.46299e-07
8.84841e-08
-1.09004e-07
-4.44681e-07
1.47822e-07
1.07392e-07
-1.26119e-07
-4.65158e-07
1.682e-07
1.30448e-07
-1.4655e-07
-4.95034e-07
1.84966e-07
1.58526e-07
-1.68417e-07
-5.29299e-07
1.87094e-07
1.74046e-07
-1.76006e-07
-5.55939e-07
1.54531e-07
1.6851e-07
-1.65261e-07
-5.66123e-07
1.16827e-07
1.3448e-07
-1.38978e-07
-5.59912e-07
9.81691e-08
9.50532e-08
-1.18327e-07
-5.4767e-07
1.1358e-07
7.27723e-08
-1.1463e-07
-5.40943e-07
1.60026e-07
8.86006e-08
-1.418e-07
-5.45691e-07
2.22466e-07
1.33921e-07
-1.89255e-07
-5.66627e-07
2.87907e-07
2.02146e-07
-2.466e-07
-6.02007e-07
3.38395e-07
2.69124e-07
-2.93648e-07
-6.41471e-07
3.57435e-07
3.03545e-07
-3.1305e-07
-6.81095e-07
3.35476e-07
2.89825e-07
-2.89504e-07
-7.14022e-07
2.51847e-07
2.09151e-07
-2.0446e-07
-7.19965e-07
9.58864e-08
5.68512e-08
-6.28775e-08
-7.11851e-07
-7.35345e-08
-1.05102e-07
1.0468e-07
-6.78251e-07
-1.96665e-07
-2.64306e-07
2.31128e-07
-6.00947e-07
-2.95747e-07
-3.7259e-07
3.04501e-07
-5.17846e-07
-3.14903e-07
-3.52209e-07
2.91121e-07
-4.78897e-07
-2.55656e-07
-2.25616e-07
2.13689e-07
-4.77158e-07
-1.82616e-07
-1.05826e-07
1.31364e-07
-4.87002e-07
-1.37207e-07
-3.23207e-08
7.25233e-08
-4.94712e-07
-1.1524e-07
8.32616e-09
3.49777e-08
-4.97996e-07
-1.01904e-07
3.37986e-08
9.39676e-09
-4.98867e-07
-8.75932e-08
5.10468e-08
-9.36335e-09
-5.00526e-07
-6.98543e-08
6.45691e-08
-2.50387e-08
-5.04754e-07
-5.0965e-08
7.63404e-08
-3.94727e-08
-5.12625e-07
-3.26201e-08
8.69058e-08
-5.27053e-08
-5.23088e-07
-1.47107e-08
9.84816e-08
-6.73695e-08
-5.36606e-07
1.90853e-09
1.14582e-07
-8.4578e-08
-5.52587e-07
1.21779e-08
1.34854e-07
-1.02542e-07
-5.69942e-07
1.41443e-08
1.57368e-07
-1.19946e-07
-5.8777e-07
4.13992e-09
1.81736e-07
-1.35226e-07
-6.03834e-07
-1.66118e-08
2.09709e-07
-1.50739e-07
-6.18696e-07
-3.83587e-08
2.42388e-07
-1.68267e-07
-6.3034e-07
-5.57066e-08
2.79151e-07
-1.91512e-07
-6.33093e-07
-5.42434e-08
3.18011e-07
-2.25082e-07
-6.31247e-07
-8.39358e-09
3.55217e-07
-2.73008e-07
-6.18764e-07
3.12998e-08
3.92934e-07
-3.19e-07
-5.91467e-07
7.21329e-08
4.2533e-07
-3.56239e-07
-5.42113e-07
1.26258e-07
4.539e-07
-3.86076e-07
-4.65132e-07
2.12564e-07
4.73019e-07
-4.1166e-07
-3.45522e-07
3.34852e-07
4.73755e-07
-4.41533e-07
-1.90645e-07
4.78245e-07
4.67787e-07
-4.70994e-07
-6.49589e-09
6.00887e-07
3.91525e-07
-4.5341e-07
2.71009e-07
6.13302e-07
1.31265e-07
-3.2429e-07
6.10972e-07
3.15322e-07
-2.26056e-07
-1.59972e-08
8.99635e-07
-7.4668e-08
-4.13229e-07
2.6514e-07
1.02906e-06
-2.11536e-07
-3.47906e-07
3.613e-07
1.10566e-06
-2.27609e-07
-2.67207e-07
3.34509e-07
1.20248e-06
-1.38054e-07
-2.62392e-07
2.93843e-07
1.27192e-06
-3.08297e-07
-2.90702e-07
2.5003e-07
1.01627e-06
-1.25705e-06
-5.19945e-07
4.74817e-07
-5.02292e-06
-1.71441e-06
2.47546e-06
-3.24842e-07
3.19909e-07
1.00485e-07
6.3764e-08
-4.15783e-07
2.40537e-07
9.34653e-08
-5.90414e-08
-4.65964e-07
2.27162e-07
8.67228e-08
-8.6052e-08
-4.82142e-07
1.71005e-07
9.38056e-08
-1.06357e-07
-4.90688e-07
1.74795e-07
1.09461e-07
-1.29412e-07
-5.014e-07
1.73861e-07
1.3328e-07
-1.48607e-07
-5.1811e-07
1.9361e-07
1.64928e-07
-1.73627e-07
-5.46641e-07
2.09675e-07
2.02585e-07
-1.98763e-07
-5.81496e-07
1.99779e-07
2.25921e-07
-2.03753e-07
-6.04139e-07
1.41702e-07
2.21415e-07
-1.85943e-07
-5.99806e-07
9.58309e-08
1.65522e-07
-1.48859e-07
-5.73111e-07
9.58934e-08
9.60015e-08
-1.2042e-07
-5.37061e-07
1.42903e-07
5.41519e-08
-1.19525e-07
-5.02827e-07
2.14059e-07
6.45905e-08
-1.52858e-07
-4.73196e-07
2.8213e-07
1.22242e-07
-2.11537e-07
-4.48292e-07
3.3173e-07
2.12547e-07
-2.81273e-07
-4.15615e-07
3.38254e-07
3.05926e-07
-3.38462e-07
-3.65501e-07
3.06306e-07
3.67161e-07
-3.66146e-07
-3.04716e-07
2.52301e-07
3.70525e-07
-3.48135e-07
-2.51509e-07
1.60377e-07
2.97999e-07
-2.59736e-07
-2.20577e-07
2.42122e-08
1.36063e-07
-9.53203e-08
-2.29332e-07
-1.2185e-07
-5.15764e-08
1.08647e-07
-2.67974e-07
-1.89121e-07
-2.375e-07
2.68599e-07
-2.684e-07
-1.90017e-07
-4.69877e-07
3.64572e-07
-2.18654e-07
-1.95391e-07
-5.14705e-07
3.45446e-07
-1.9258e-07
-1.94938e-07
-3.31742e-07
2.4495e-07
-2.01489e-07
-1.69274e-07
-1.51072e-07
1.46639e-07
-2.17618e-07
-1.53669e-07
-4.95478e-08
8.21387e-08
-2.24767e-07
-1.54624e-07
2.16236e-09
4.43712e-08
-2.20182e-07
-1.58351e-07
3.0288e-08
2.15751e-08
-2.07291e-07
-1.52746e-07
4.90796e-08
3.18225e-09
-1.91906e-07
-1.35015e-07
6.15026e-08
-1.17277e-08
-1.81001e-07
-1.07048e-07
7.04416e-08
-2.52639e-08
-1.78361e-07
-7.32402e-08
7.49092e-08
-3.69286e-08
-1.85409e-07
-3.69788e-08
7.78098e-08
-4.84934e-08
-2.00727e-07
-4.01565e-09
8.8375e-08
-6.71333e-08
-2.20565e-07
1.45119e-08
1.05681e-07
-8.8177e-08
-2.43928e-07
1.55053e-08
1.29408e-07
-1.07406e-07
-2.74405e-07
-1.0916e-09
1.59973e-07
-1.24265e-07
-3.1371e-07
-3.52363e-08
1.95447e-07
-1.37518e-07
-3.60236e-07
-7.74524e-08
2.34275e-07
-1.48654e-07
-4.11406e-07
-1.22658e-07
2.76731e-07
-1.5861e-07
-4.57676e-07
-1.52212e-07
3.26056e-07
-1.81818e-07
-4.86788e-07
-1.36099e-07
3.93859e-07
-2.37041e-07
-4.96479e-07
-1.2637e-07
4.70188e-07
-3.02827e-07
-4.9733e-07
-1.25771e-07
5.66312e-07
-3.67557e-07
-4.83325e-07
-1.26191e-07
6.72346e-07
-4.33902e-07
-4.45371e-07
-8.88569e-08
7.73537e-07
-5.1007e-07
-3.67234e-07
-7.30396e-09
8.58848e-07
-5.9483e-07
-2.36813e-07
1.11473e-07
9.05982e-07
-6.6963e-07
-3.60295e-08
2.1395e-07
8.80008e-07
-6.93854e-07
3.06881e-07
2.43241e-07
6.29431e-07
-6.0228e-07
6.6515e-07
8.85367e-08
1.5234e-07
-2.83825e-07
8.65095e-07
-1.4041e-07
-2.57647e-07
1.23445e-07
1.0332e-06
-3.93196e-07
-3.21872e-07
3.35422e-07
1.27566e-06
-6.30902e-07
-2.40164e-07
4.01001e-07
1.42916e-06
-2.94606e-07
-2.10729e-07
2.13782e-07
1.52209e-06
-4.28366e-07
-2.46375e-07
2.73516e-07
1.37071e-06
-1.24355e-06
-4.16742e-07
5.54614e-07
-4.45647e-06
-1.59563e-06
2.39989e-06
-4.00874e-07
5.03157e-07
3.02246e-07
-8.462e-08
-4.92566e-07
2.809e-07
1.31603e-07
-8.02735e-08
-5.42874e-07
2.8195e-07
9.89161e-08
-1.03397e-07
-5.48329e-07
1.91704e-07
9.88124e-08
-1.14056e-07
-5.41687e-07
1.97444e-07
1.12571e-07
-1.41863e-07
-5.30585e-07
1.82059e-07
1.44878e-07
-1.64178e-07
-5.23375e-07
1.96255e-07
1.9056e-07
-2.00415e-07
-5.29219e-07
1.9624e-07
2.52144e-07
-2.32864e-07
-5.41698e-07
1.51019e-07
2.96257e-07
-2.35018e-07
-5.32183e-07
4.98582e-08
2.84476e-07
-2.02147e-07
-4.87031e-07
-2.97819e-09
2.0215e-07
-1.48492e-07
-4.20244e-07
4.859e-08
8.67154e-08
-1.06199e-07
-3.42457e-07
1.6908e-07
9.19143e-10
-1.04883e-07
-2.55501e-07
2.91581e-07
-2.3073e-08
-1.41404e-07
-1.53314e-07
3.60637e-07
3.07373e-08
-2.11432e-07
-4.33353e-08
3.588e-07
1.54766e-07
-2.91814e-07
8.58828e-08
2.68658e-07
2.97783e-07
-3.57405e-07
2.35384e-07
1.46127e-07
4.03038e-07
-3.9236e-07
4.02718e-07
3.39086e-08
4.42645e-07
-3.91587e-07
5.6804e-07
-6.14453e-08
3.77944e-07
-3.21444e-07
6.89093e-07
-1.33244e-07
1.9677e-07
-1.60366e-07
6.92944e-07
-1.64187e-07
-3.59366e-09
4.20795e-08
5.74463e-07
-1.49745e-07
-1.45336e-07
2.24441e-07
4.52243e-07
-8.53251e-08
-3.22498e-07
3.40026e-07
4.25874e-07
-2.0471e-09
-5.19697e-07
3.52722e-07
4.13378e-07
-8.19178e-10
-4.42159e-07
2.60537e-07
3.62353e-07
-4.26291e-08
-2.24269e-07
1.48649e-07
3.0575e-07
-8.95591e-08
-8.36818e-08
7.61748e-08
2.66466e-07
-1.42473e-07
-8.10657e-09
3.52392e-08
2.48843e-07
-1.91909e-07
4.11287e-08
1.00529e-08
2.50503e-07
-2.22113e-07
7.83192e-08
-1.06123e-08
2.66634e-07
-2.25972e-07
1.04623e-07
-2.97968e-08
2.9304e-07
-2.04163e-07
1.16664e-07
-4.59554e-08
3.24943e-07
-1.59458e-07
1.11656e-07
-5.73417e-08
3.55993e-07
-9.63754e-08
9.475e-08
-6.64034e-08
3.82197e-07
-2.70152e-08
7.66194e-08
-7.9823e-08
4.02266e-07
1.92979e-08
7.01492e-08
-9.50046e-08
4.11873e-07
3.95472e-08
7.38202e-08
-1.07469e-07
4.12646e-07
3.42562e-08
7.95465e-08
-1.15667e-07
3.98753e-07
5.20374e-09
9.30937e-08
-1.1964e-07
3.60763e-07
-3.9587e-08
1.24816e-07
-1.24692e-07
2.94446e-07
-9.63896e-08
1.74111e-07
-1.34061e-07
2.09566e-07
-1.60039e-07
2.33316e-07
-1.40608e-07
1.56376e-07
-2.08128e-07
2.98107e-07
-1.72889e-07
1.76619e-07
-2.822e-07
3.56342e-07
-2.20756e-07
2.44693e-07
-3.65239e-07
4.45423e-07
-2.74028e-07
3.13238e-07
-4.57324e-07
5.85869e-07
-3.23281e-07
3.5995e-07
-4.98814e-07
7.34545e-07
-3.71301e-07
3.98855e-07
-4.80553e-07
8.78621e-07
-4.44277e-07
4.71908e-07
-4.21351e-07
9.92543e-07
-5.32772e-07
6.2346e-07
-3.76179e-07
1.02338e-06
-5.848e-07
7.50704e-07
-2.23008e-07
8.6287e-07
-5.23865e-07
7.51792e-07
-1.59349e-07
5.72853e-07
-3.26056e-07
6.92273e-07
-2.33127e-07
2.17145e-07
-6.49094e-08
7.71406e-07
-5.19295e-07
-1.22832e-07
1.69799e-07
1.20146e-06
-1.07093e-06
-3.52007e-07
3.61985e-07
1.88129e-06
-8.46295e-07
-2.53482e-07
1.25337e-07
1.92537e-06
-4.34727e-07
-2.41886e-07
2.04169e-07
1.6448e-06
-1.10757e-06
-4.04743e-07
5.49347e-07
-3.70356e-06
-1.54778e-06
2.43966e-06
-5.67667e-07
7.65905e-07
3.9471e-07
-8.97896e-08
-5.72344e-07
2.65246e-07
1.15508e-07
-9.51783e-08
-5.69041e-07
2.97617e-07
1.11484e-07
-1.30453e-07
-5.09735e-07
1.57403e-07
1.18362e-07
-1.43367e-07
-4.30258e-07
1.73629e-07
1.1281e-07
-1.68472e-07
-3.34818e-07
1.39382e-07
1.38542e-07
-1.91305e-07
-2.37631e-07
1.39306e-07
1.84004e-07
-2.24242e-07
-1.47923e-07
1.14411e-07
2.40269e-07
-2.48148e-07
-5.28034e-08
2.94554e-08
2.60539e-07
-2.34096e-07
5.99436e-08
-1.02603e-07
2.18093e-07
-1.7838e-07
1.91273e-07
-1.60162e-07
1.39517e-07
-1.13662e-07
3.37801e-07
-8.71634e-08
6.56252e-08
-7.63998e-08
4.76523e-07
1.07321e-07
-9.74403e-09
-6.72195e-08
6.11656e-07
3.1867e-07
-6.39328e-08
-9.8289e-08
8.02643e-07
3.98969e-07
-6.95093e-08
-1.5981e-07
1.06266e-06
3.20975e-07
1.01273e-08
-2.3232e-07
1.36291e-06
1.24591e-07
1.24004e-07
-2.80182e-07
1.61848e-06
-7.80906e-08
2.67934e-07
-2.99296e-07
1.79582e-06
-2.01686e-07
3.60109e-07
-3.01846e-07
1.90601e-06
-2.61692e-07
3.65598e-07
-2.75545e-07
1.97919e-06
-2.87846e-07
2.57052e-07
-1.75631e-07
1.96826e-06
-2.13355e-07
9.723e-08
-3.71343e-08
1.80999e-06
-6.55805e-08
-5.56081e-08
1.29713e-07
1.60882e-06
7.11043e-08
-1.88307e-07
2.3305e-07
1.53228e-06
1.22932e-07
-2.96907e-07
2.48468e-07
1.53233e-06
1.0396e-07
-3.02357e-07
1.97524e-07
1.49595e-06
6.1274e-08
-1.93605e-07
1.26082e-07
1.41489e-06
2.362e-08
-1.1282e-07
8.07102e-08
1.31163e-06
-1.83738e-08
-7.48946e-08
5.40493e-08
1.21101e-06
-8.74873e-08
-3.78794e-08
3.40744e-08
1.13739e-06
-1.72539e-07
1.25633e-08
1.14842e-08
1.09395e-06
-2.3001e-07
6.59605e-08
-1.84836e-08
1.081e-06
-2.65232e-07
1.2067e-07
-4.6651e-08
1.09655e-06
-2.58074e-07
1.51675e-07
-6.86097e-08
1.13054e-06
-1.97194e-07
1.50143e-07
-8.33157e-08
1.17268e-06
-9.6671e-08
1.25407e-07
-9.78902e-08
1.21801e-06
-1.49842e-08
1.01881e-07
-1.12931e-07
1.26543e-06
3.07823e-08
8.67286e-08
-1.25377e-07
1.31658e-06
4.49028e-08
7.05627e-08
-1.32356e-07
1.36495e-06
3.17969e-08
5.98521e-08
-1.34823e-07
1.40067e-06
1.37481e-09
5.80782e-08
-1.34761e-07
1.41274e-06
-4.15747e-08
6.85333e-08
-1.35419e-07
1.39236e-06
-9.38607e-08
9.25187e-08
-1.38318e-07
1.34191e-06
-1.26251e-07
1.27865e-07
-1.59286e-07
1.27697e-06
-1.87541e-07
1.86314e-07
-2.16029e-07
1.23036e-06
-2.90996e-07
2.59492e-07
-2.87129e-07
1.19076e-06
-4.28385e-07
3.73253e-07
-3.62597e-07
1.18109e-06
-5.77683e-07
5.25026e-07
-4.36484e-07
1.23152e-06
-7.28924e-07
7.10488e-07
-5.12541e-07
1.33701e-06
-8.64838e-07
9.36987e-07
-5.9899e-07
1.44269e-06
-9.33074e-07
1.11737e-06
-6.66157e-07
1.53642e-06
-7.67323e-07
1.13021e-06
-6.7962e-07
1.57731e-06
-6.11373e-07
1.01207e-06
-6.00941e-07
1.57408e-06
-5.57096e-07
7.58878e-07
-4.31678e-07
1.46585e-06
-5.41272e-07
1.37727e-07
-7.52217e-09
1.1347e-06
-9.21498e-07
-4.62468e-07
6.44183e-07
1.58592e-06
-1.18199e-06
-6.14246e-07
4.98718e-07
2.04665e-06
-7.26358e-07
-3.88537e-07
2.19433e-07
1.93143e-06
-1.01089e-06
-5.82017e-07
6.00559e-07
-2.72137e-06
-1.63564e-06
2.58488e-06
-4.87704e-07
4.93324e-07
1.66303e-06
-9.02746e-07
-4.67611e-07
1.56068e-07
3.65267e-07
-2.76182e-07
-2.99867e-07
1.4329e-07
1.42148e-07
-1.55565e-07
-1.24718e-07
2.88446e-08
7.72077e-08
-1.23799e-07
6.50502e-08
5.41696e-08
2.90903e-08
-9.93991e-08
2.52814e-07
3.92973e-08
8.36177e-09
-9.60409e-08
4.44227e-07
4.745e-08
1.8294e-09
-1.01387e-07
6.20617e-07
5.07697e-08
1.96692e-09
-1.14716e-07
7.36987e-07
3.24913e-08
-2.15884e-09
-1.17246e-07
7.74251e-07
-2.64868e-08
-5.96545e-09
-1.07414e-07
7.69308e-07
-7.74183e-08
1.03099e-09
-7.88329e-08
8.40203e-07
-1.14311e-07
3.0996e-08
-7.47435e-08
1.05326e-06
-8.82203e-08
7.6376e-08
-9.3894e-08
1.38231e-06
-3.86102e-09
1.29106e-07
-1.35627e-07
1.77846e-06
2.84929e-08
1.45539e-07
-1.71205e-07
2.15909e-06
1.58185e-08
1.07738e-07
-1.83215e-07
2.41423e-06
-2.0229e-08
5.92105e-08
-1.69528e-07
2.51585e-06
-5.7135e-08
1.89559e-08
-1.41539e-07
2.52791e-06
-9.12035e-08
-7.63591e-09
-1.14904e-07
2.48086e-06
-1.06376e-07
-2.5077e-08
-8.31915e-08
2.37275e-06
-1.04326e-07
-4.74882e-08
-2.79146e-08
2.27639e-06
-8.45836e-08
-7.53115e-08
4.28916e-08
2.24855e-06
-4.20017e-08
-8.6184e-08
9.04527e-08
2.29267e-06
-7.61335e-09
-7.73731e-08
1.11964e-07
2.38635e-06
-1.17762e-08
-6.40721e-08
1.05103e-07
2.47508e-06
-1.7451e-08
-4.80403e-08
8.07273e-08
2.51482e-06
7.98898e-10
-3.40091e-08
5.47406e-08
2.50884e-06
2.02493e-08
-2.50207e-08
3.43738e-08
2.45022e-06
3.59938e-08
-1.81639e-08
2.24135e-08
2.30776e-06
4.88167e-08
-8.5873e-09
1.47465e-08
2.11165e-06
2.74817e-08
3.93113e-09
-7.84846e-09
1.94702e-06
-4.35844e-08
1.58832e-08
-3.76725e-08
1.8734e-06
-1.53616e-07
1.892e-08
-5.69202e-08
1.8644e-06
-1.98798e-07
1.24265e-08
-6.26976e-08
1.88386e-06
-1.58511e-07
7.67121e-09
-6.58155e-08
1.9306e-06
-9.05644e-08
1.73622e-08
-7.02118e-08
1.99143e-06
-2.45443e-08
2.96742e-08
-8.09399e-08
2.0671e-06
1.44448e-08
2.59605e-08
-8.52987e-08
2.15477e-06
2.79702e-08
1.86297e-08
-8.93624e-08
2.24841e-06
1.97911e-08
1.26812e-08
-9.43184e-08
2.33298e-06
6.65662e-09
8.54133e-09
-9.83897e-08
2.39055e-06
-5.05715e-09
5.78908e-09
-9.98764e-08
2.40821e-06
-1.42096e-08
4.43922e-09
-1.01757e-07
2.40642e-06
-1.64854e-08
4.36085e-09
-1.12331e-07
2.38547e-06
-2.81618e-08
5.73382e-09
-1.44164e-07
2.3488e-06
-6.32616e-08
8.35279e-09
-1.99415e-07
2.30176e-06
-1.26381e-07
1.14787e-08
-2.66448e-07
2.25083e-06
-2.01686e-07
1.86655e-08
-3.43734e-07
2.21444e-06
-2.89086e-07
3.21201e-08
-4.35569e-07
2.24182e-06
-4.06158e-07
5.24289e-08
-5.38484e-07
2.38068e-06
-5.24407e-07
8.68673e-08
-6.34393e-07
2.69748e-06
-5.50568e-07
1.33794e-07
-6.67355e-07
3.01321e-06
-4.91033e-07
1.20399e-07
-5.56468e-07
3.04242e-06
-3.34354e-07
1.86805e-09
-2.53818e-07
2.63177e-06
-2.59426e-07
-9.5354e-08
2.24155e-07
1.70353e-06
-2.88372e-07
-3.72402e-07
6.67519e-07
1.16012e-06
-3.49006e-07
-1.15155e-06
8.61985e-07
1.57387e-06
-2.9563e-07
-1.45278e-06
6.08304e-07
1.56534e-06
-3.54365e-07
-1.59874e-06
9.50741e-07
-8.05348e-07
-3.21621e-06
2.86553e-06
-2.40692e-07
2.30755e-07
1.67908e-06
-1.17582e-06
-2.24322e-07
1.79715e-07
2.30434e-07
-2.70451e-07
-6.3886e-08
6.45108e-08
8.6465e-08
-1.68122e-07
1.01738e-07
-5.36783e-08
9.68621e-08
-1.79963e-07
3.07034e-07
-6.1644e-08
4.20364e-08
-1.31519e-07
5.06216e-07
-5.52079e-08
4.41637e-09
-1.09093e-07
6.9418e-07
-2.39323e-08
-9.22364e-09
-1.07358e-07
8.63741e-07
6.55536e-09
-1.16554e-08
-1.13691e-07
9.95442e-07
2.50726e-08
-9.14034e-09
-1.15142e-07
1.05392e-06
1.99007e-08
-1.38517e-08
-9.10187e-08
1.03146e-06
8.25156e-09
-1.83803e-08
-4.48281e-08
1.00167e-06
-3.29114e-08
-5.12408e-09
-4.64784e-08
1.045e-06
-8.49371e-08
2.54305e-08
-7.20522e-08
1.20823e-06
-1.12131e-07
5.34487e-08
-1.08403e-07
1.44893e-06
-1.27989e-07
6.81374e-08
-1.52353e-07
1.66285e-06
-1.02287e-07
7.71594e-08
-1.72975e-07
1.79106e-06
-5.69827e-08
6.5274e-08
-1.56732e-07
1.8394e-06
-2.22971e-08
2.27514e-08
-1.05925e-07
1.84448e-06
-2.20916e-08
-1.95134e-08
-5.46849e-08
1.82568e-06
-3.2863e-08
-4.58195e-08
-8.89094e-09
1.77531e-06
-3.67001e-08
-5.82055e-08
4.09507e-08
1.71757e-06
-4.46614e-08
-6.34626e-08
8.12853e-08
1.69542e-06
-5.98839e-08
-6.27173e-08
1.02744e-07
1.71812e-06
-8.36098e-08
-5.15835e-08
1.04879e-07
1.78087e-06
-1.29275e-07
-3.70602e-08
9.18169e-08
1.83998e-06
-1.23848e-07
-2.63396e-08
7.36217e-08
1.86424e-06
-6.15672e-08
-1.90759e-08
5.71796e-08
1.8651e-06
-9.61021e-09
-1.6041e-08
4.50474e-08
1.85511e-06
2.30321e-08
-1.48449e-08
3.7794e-08
1.84231e-06
4.09891e-08
-1.22716e-08
3.28998e-08
1.81253e-06
4.03683e-08
-7.2713e-09
2.41603e-08
1.73758e-06
2.11259e-08
7.98378e-11
1.0159e-08
1.61573e-06
-2.80799e-08
1.08927e-08
-1.45723e-08
1.53005e-06
-9.19912e-08
1.8366e-08
-3.94916e-08
1.51165e-06
-1.05027e-07
1.91072e-08
-5.41935e-08
1.54556e-06
-8.21036e-08
1.68822e-08
-5.9252e-08
1.6158e-06
-4.95373e-08
1.57343e-08
-6.09831e-08
1.69113e-06
-1.99472e-08
1.12695e-08
-5.22044e-08
1.76329e-06
-7.66687e-09
4.26981e-09
-4.08004e-08
1.82479e-06
-9.55772e-09
3.65861e-10
-3.25117e-08
1.86721e-06
-8.8694e-09
-2.99475e-10
-2.65989e-08
1.88627e-06
-4.35152e-09
5.98901e-10
-2.03613e-08
1.89007e-06
-6.74111e-10
6.0063e-10
-1.79346e-08
1.88511e-06
5.36007e-09
3.90504e-10
-1.72812e-08
1.87238e-06
9.52973e-09
7.0605e-10
-2.56649e-08
1.85832e-06
3.60897e-09
1.56382e-09
-5.4377e-08
1.83922e-06
-1.87257e-08
2.54718e-09
-9.10951e-08
1.82036e-06
-4.9296e-08
4.42534e-09
-1.37964e-07
1.80274e-06
-8.03308e-08
1.01684e-08
-2.01297e-07