/*--------------------------------*- C++ -*----------------------------------*\
| =========                 |                                                 |
| \\      /  F ield         | OpenFOAM: The Open Source CFD Toolbox           |
|  \\    /   O peration     | Version:  2.1.1                                 |
|   \\  /    A nd           | Web:      www.OpenFOAM.org                      |
|    \\/     M anipulation  |                                                 |
\*---------------------------------------------------------------------------*/
FoamFile
{
    version     2.0;
    format      ascii;
    class       volSymmTensorField;
    location    "0.0014";
    object      R;
}
// * * * * * * * * * * * * * * * * * * * * * * * * * * * * * * * * * * * * * //

dimensions      [0 2 -2 0 0 0 0];

internalField   nonuniform List<symmTensor> 
36520
(
(0.151718 0.00384153 0.048933 0.0516302 0.0117308 0.083187)
(0.2715 -0.0336932 0.0619575 0.113536 -0.00730634 0.104801)
(0.518795 -0.0541475 0.138661 0.223897 -0.0201115 0.20202)
(0.634617 -0.0684507 0.187659 0.287504 -0.0343493 0.261019)
(0.74717 -0.0729911 0.226846 0.336547 -0.0409164 0.309842)
(0.831225 -0.0773859 0.257168 0.375534 -0.0471788 0.348374)
(0.909608 -0.0791102 0.284408 0.408427 -0.0506063 0.381334)
(0.97618 -0.0786543 0.308569 0.435987 -0.0522879 0.410168)
(1.03412 -0.0773741 0.329756 0.458877 -0.052385 0.434491)
(1.0818 -0.0758509 0.347441 0.477494 -0.0518863 0.454953)
(1.12197 -0.074455 0.361067 0.491754 -0.0509697 0.470605)
(1.1608 -0.0735261 0.372663 0.504188 -0.0511336 0.483644)
(1.20084 -0.0702787 0.38368 0.514814 -0.050878 0.494382)
(1.24469 -0.0637471 0.396992 0.525245 -0.0496299 0.505432)
(1.28558 -0.0525367 0.411656 0.533591 -0.0453802 0.515389)
(1.31851 -0.0375674 0.426963 0.538694 -0.0378809 0.524129)
(1.33338 -0.0196134 0.439535 0.538031 -0.0265102 0.528943)
(1.32402 -0.0017785 0.446335 0.53018 -0.0125176 0.52801)
(1.2862 0.0129032 0.444439 0.513812 0.00226226 0.519162)
(1.22047 0.0213671 0.431953 0.488542 0.0152912 0.500952)
(1.13179 0.0219182 0.408419 0.454739 0.0240869 0.472751)
(1.0303 0.0148805 0.375682 0.414915 0.026966 0.435674)
(0.93581 0.00276598 0.340902 0.375819 0.0240421 0.396594)
(0.857703 -0.0109182 0.308401 0.340967 0.0167316 0.359191)
(0.794906 -0.0222474 0.279931 0.311148 0.0076718 0.325473)
(0.742617 -0.028724 0.2562 0.286211 -0.000166933 0.296578)
(0.694853 -0.0308782 0.236179 0.264813 -0.00533141 0.271803)
(0.649425 -0.0307943 0.218593 0.245759 -0.00822341 0.249921)
(0.60492 -0.0298201 0.202093 0.227975 -0.00968175 0.229586)
(0.561495 -0.0283827 0.186425 0.210887 -0.0102218 0.210385)
(0.519038 -0.026817 0.171532 0.194258 -0.0102678 0.19222)
(0.477556 -0.0253043 0.157402 0.178116 -0.0100618 0.175137)
(0.436961 -0.0239683 0.143871 0.162481 -0.00975536 0.159005)
(0.398511 -0.0229402 0.131157 0.147843 -0.0094855 0.144072)
(0.362839 -0.0221822 0.119336 0.134407 -0.00930274 0.130387)
(0.330789 -0.0216245 0.108657 0.12244 -0.00920602 0.118183)
(0.302859 -0.0212416 0.0992789 0.112149 -0.00922384 0.107606)
(0.279579 -0.0209604 0.09137 0.103725 -0.00935197 0.0988104)
(0.261861 -0.0207714 0.0851605 0.097514 -0.00961252 0.0920287)
(0.251484 -0.020635 0.0811063 0.0941817 -0.0100487 0.0877165)
(0.250801 -0.0202767 0.0798244 0.0946828 -0.0106168 0.086457)
(0.263058 -0.0192374 0.0820639 0.100476 -0.0112405 0.0890798)
(0.292154 -0.0166603 0.0886272 0.113481 -0.011726 0.0965655)
(0.340542 -0.0110767 0.0999856 0.13518 -0.0115996 0.109478)
(0.408148 -0.00088311 0.11598 0.165911 -0.0100334 0.12765)
(0.492587 0.0153323 0.135846 0.204706 -0.00597214 0.150203)
(0.586996 0.0386795 0.158035 0.24942 0.00154775 0.17537)
(0.675384 0.0673175 0.179355 0.293946 0.0127454 0.199467)
(0.726869 0.0952816 0.193392 0.322977 0.0264618 0.215133)
(0.693247 0.111771 0.18749 0.312683 0.0380844 0.208167)
(0.606267 0.115515 0.169281 0.278367 0.0463736 0.188254)
(0.4932 0.106876 0.144239 0.232238 0.0497597 0.162182)
(0.390189 0.0946115 0.118868 0.192071 0.0497147 0.137324)
(0.348748 0.0960994 0.109767 0.187086 0.0559522 0.132514)
(0.455958 0.146252 0.148426 0.279889 0.0921711 0.187932)
(0.835319 0.294864 0.278166 0.574226 0.201553 0.376099)
(1.32724 0.498218 0.466505 1.02514 0.392532 0.693023)
(1.44571 0.57522 0.543718 1.33172 0.568065 0.944602)
(1.00851 0.368834 0.364618 1.17188 0.554059 0.88956)
(0.425217 -0.112781 -0.0721529 0.509928 0.250778 0.574392)
(0.122691 -0.0100131 0.0237422 0.0395824 -0.00176296 0.039779)
(0.169315 -0.0226141 0.0379354 0.0683851 -0.00610724 0.0593454)
(0.207415 -0.020681 0.0548322 0.0887035 -0.00858387 0.0801194)
(0.206679 -0.0187711 0.0588991 0.091353 -0.00886393 0.0839205)
(0.212822 -0.0165994 0.0614645 0.0941656 -0.00857454 0.0873114)
(0.214806 -0.0153125 0.0629711 0.0955195 -0.00855195 0.0893456)
(0.219973 -0.0138615 0.0649731 0.0974562 -0.00821474 0.0916849)
(0.220634 -0.0123244 0.0658317 0.0975106 -0.0077226 0.0925349)
(0.219727 -0.0109428 0.0661013 0.0969203 -0.00703041 0.0924636)
(0.215997 -0.00970668 0.0653618 0.0950755 -0.0062361 0.0912301)
(0.214588 -0.00904849 0.0649162 0.0939459 -0.00562269 0.0903466)
(0.216256 -0.00866061 0.065156 0.0938569 -0.00529131 0.0902696)
(0.222312 -0.00810177 0.0667386 0.0951648 -0.00509113 0.0915631)
(0.227658 -0.00693389 0.0684285 0.0960572 -0.00482479 0.092577)
(0.228239 -0.00495976 0.0691437 0.0950929 -0.004112 0.0919921)
(0.219068 -0.00251084 0.0673281 0.0904837 -0.00289878 0.0881788)
(0.198086 -0.000205266 0.0619914 0.081695 -0.00127801 0.0804446)
(0.16685 0.0010325 0.0529698 0.0693493 0.000266028 0.0691901)
(0.13084 0.000854238 0.0414007 0.0554692 0.00132678 0.0561602)
(0.098097 -0.000522438 0.0295755 0.0429738 0.00170092 0.0441034)
(0.0767005 -0.00240695 0.0204176 0.0348708 0.00160779 0.0360936)
(0.0727306 -0.00417033 0.0167578 0.0334011 0.00150079 0.0346071)
(0.0663706 -0.00446348 0.0160956 0.0298698 0.000998384 0.030849)
(0.0575436 -0.0036627 0.0165207 0.0248847 0.000256373 0.0255591)
(0.0520183 -0.00311105 0.0161815 0.0215926 -0.000265144 0.0220154)
(0.0485601 -0.00275563 0.0152588 0.0195511 -0.000508204 0.0197988)
(0.0454971 -0.00239453 0.0142535 0.0179702 -0.000592347 0.0180841)
(0.0427714 -0.00209146 0.0133462 0.0167131 -0.000607435 0.0166971)
(0.0404855 -0.00188153 0.0125804 0.015731 -0.000606317 0.0155772)
(0.0385819 -0.00174793 0.0119447 0.0149432 -0.000603384 0.0146615)
(0.0366297 -0.00165423 0.0113151 0.0141526 -0.000601081 0.0137761)
(0.0345928 -0.0015875 0.0106743 0.0133397 -0.000599756 0.0129017)
(0.0324911 -0.00154403 0.0100067 0.0125173 -0.000600077 0.0120316)
(0.0303258 -0.00151213 0.00928787 0.0116918 -0.000601831 0.0111516)
(0.028494 -0.00149674 0.00863845 0.0110123 -0.000611853 0.0103996)
(0.0271246 -0.00149142 0.00809551 0.0105265 -0.000630102 0.0098199)
(0.0263496 -0.00149087 0.0076922 0.0102909 -0.000655479 0.00945447)
(0.0262569 -0.00148744 0.00743089 0.010351 -0.000687134 0.00931919)
(0.0271299 -0.0014737 0.00735368 0.010835 -0.000729322 0.00949357)
(0.0296536 -0.00144327 0.0075962 0.0120421 -0.000792508 0.0101772)
(0.0348508 -0.00136451 0.00835383 0.0144437 -0.000886262 0.0116667)
(0.0440539 -0.0011529 0.00983777 0.0187001 -0.0010148 0.0143388)
(0.0588673 -0.000615115 0.0122412 0.0256469 -0.0011601 0.0186445)
(0.0805047 0.000605505 0.0155254 0.0360128 -0.00124841 0.0249323)
(0.109689 0.002909 0.0192885 0.0502959 -0.00113439 0.0334762)
(0.147185 0.00648656 0.0227547 0.0689664 -0.000678785 0.0446499)
(0.193287 0.0110403 0.0244651 0.0924826 0.000169309 0.0589502)
(0.247379 0.0149955 0.0218163 0.12059 0.00121932 0.0769829)
(0.304516 0.015495 0.0104489 0.149931 0.00216585 0.0982084)
(0.354401 0.0103413 -0.0116968 0.173107 0.00260463 0.119283)
(0.407736 -0.000702036 -0.0436715 0.192981 0.00243642 0.144128)
(0.454875 -0.0134072 -0.0806204 0.203774 0.00089554 0.168623)
(0.466126 -0.0178751 -0.105215 0.195543 -0.00168939 0.180295)
(0.407468 -0.0102277 -0.102218 0.161989 -0.00306588 0.16447)
(0.308439 0.0061136 -0.0716155 0.123479 0.00157 0.132209)
(0.285112 0.0332131 -0.0356229 0.133057 0.0170191 0.13476)
(0.383597 0.0700106 -0.0287002 0.199682 0.0297827 0.196613)
(0.429951 0.0582124 -0.115863 0.186782 -0.0279423 0.237435)
(0.299929 0.0366 -0.0740732 0.152332 -0.0535225 0.224538)
(0.433932 -0.0577813 -0.118252 0.197606 -0.0144872 0.252807)
(0.0655318 -0.00460119 0.00787899 0.019021 -0.000830631 0.0187514)
(0.0560554 -0.00722559 0.0113051 0.0226499 -0.00210817 0.0197484)
(0.0592475 -0.00543507 0.0148866 0.0253999 -0.00250534 0.0231659)
(0.0519988 -0.00412846 0.014047 0.0229926 -0.00213353 0.0213087)
(0.0492238 -0.00335995 0.0134247 0.021824 -0.0019742 0.0204139)
(0.0462025 -0.00283053 0.0127212 0.0205518 -0.00177928 0.01941)
(0.0452259 -0.00241206 0.0125021 0.0200976 -0.00161543 0.0190852)
(0.0428465 -0.00198942 0.0118936 0.0190865 -0.00139459 0.0182544)
(0.0406444 -0.00166858 0.0112435 0.018201 -0.00116396 0.0174583)
(0.0378722 -0.00142994 0.0103031 0.0171041 -0.000919968 0.0164315)
(0.0365623 -0.00139789 0.00960146 0.0166351 -0.000759699 0.0159341)
(0.0368994 -0.00149553 0.00920755 0.0168541 -0.000690721 0.0161047)
(0.0391029 -0.00167699 0.00915734 0.0178227 -0.000697478 0.0170641)
(0.0419882 -0.00186826 0.00902812 0.0191188 -0.000723948 0.0184113)
(0.0448204 -0.0021101 0.00835239 0.0205655 -0.000690211 0.019947)
(0.0471925 -0.00258938 0.006588 0.0221573 -0.000558812 0.0216338)
(0.0504845 -0.00364189 0.00339008 0.0246732 -0.000317848 0.0241778)
(0.0578406 -0.00573546 -0.00134622 0.0296071 5.55944e-05 0.0289897)
(0.0731575 -0.0093877 -0.00766579 0.0387077 0.000694559 0.0377967)
(0.0996029 -0.0152135 -0.0156767 0.0532533 0.00187275 0.0518614)
(0.137565 -0.0237044 -0.0255937 0.0727476 0.00370326 0.0707853)
(0.181165 -0.0344157 -0.0366519 0.0929765 0.0057375 0.0902938)
(0.146426 -0.03015 -0.0313517 0.074479 0.00523568 0.0717146)
(0.0692557 -0.0150164 -0.0152416 0.0356083 0.00245694 0.0341995)
(0.023992 -0.00486233 -0.00458403 0.0123057 0.000534816 0.0122021)
(0.010474 -0.00164779 -0.00111731 0.00515222 2.05606e-05 0.00535408)
(0.00667968 -0.000771527 -0.000149842 0.0031413 -8.74294e-05 0.00332216)
(0.00533107 -0.000469713 0.000178667 0.0024345 -0.000119954 0.00256895)
(0.00473543 -0.000333819 0.000336069 0.00212787 -0.000137787 0.00221974)
(0.00448331 -0.000268223 0.000424298 0.00200104 -0.000153317 0.00205804)
(0.00439444 -0.00024045 0.000453303 0.0019624 -0.000168077 0.00199847)
(0.00440502 -0.000234559 0.000436502 0.00197716 -0.000183863 0.00200555)
(0.00450533 -0.000242989 0.00039484 0.00203687 -0.000202685 0.00206421)
(0.00470851 -0.000262429 0.000346043 0.00214393 -0.00022616 0.00216973)
(0.00502088 -0.000289435 0.00030144 0.00229933 -0.000255405 0.00231693)
(0.0054687 -0.000323152 0.000262507 0.0025148 -0.000290667 0.00251318)
(0.00610014 -0.000365468 0.000222638 0.00281631 -0.000332283 0.00277788)
(0.00700746 -0.000420358 0.000176231 0.00324951 -0.000384291 0.00314664)
(0.00835079 -0.000493006 0.000115319 0.00389517 -0.00045474 0.00368025)
(0.0104307 -0.000590436 3.72046e-05 0.00490383 -0.000557794 0.0044857)
(0.0137319 -0.000720508 -7.06025e-05 0.00652518 -0.000716715 0.00573508)
(0.0190134 -0.000888389 -0.000244706 0.00916068 -0.000963067 0.00769923)
(0.0274018 -0.00108799 -0.000581866 0.0134086 -0.00134123 0.0107733)
(0.0403996 -0.00129907 -0.00135771 0.0200582 -0.00190635 0.0155157)
(0.0601562 -0.00157552 -0.00325323 0.0301956 -0.00272559 0.0228243)
(0.0902443 -0.00212627 -0.00751521 0.0455748 -0.00395944 0.0341332)
(0.136839 -0.0035268 -0.0162484 0.0694019 -0.00599798 0.0519721)
(0.210183 -0.00725519 -0.0328142 0.106883 -0.00945994 0.0804716)
(0.326833 -0.0163122 -0.0627794 0.165298 -0.0148898 0.126208)
(0.517666 -0.0365209 -0.115705 0.257277 -0.0228251 0.201396)
(0.769246 -0.0711001 -0.189659 0.367823 -0.0295021 0.298938)
(1.05667 -0.113549 -0.278099 0.475086 -0.0312668 0.409346)
(1.27833 -0.128694 -0.350176 0.525901 -0.034659 0.497066)
(1.29705 -0.099136 -0.363722 0.483553 -0.0392936 0.506638)
(1.02958 -0.0424263 -0.304803 0.364204 -0.0378593 0.413296)
(0.670421 -0.0012707 -0.213016 0.240526 -0.0281235 0.290876)
(0.382725 0.0246132 -0.111915 0.143854 -0.0182275 0.178526)
(0.561788 0.0567829 -0.1237 0.205407 -0.0413148 0.241013)
(0.315689 0.0513056 -0.0164505 0.156271 -0.0404462 0.205845)
(0.419133 -0.0298754 -0.0679141 0.173859 -0.00837301 0.184445)
(0.0354717 -0.00198446 0.00159604 0.00913105 -0.00069199 0.00936796)
(0.0188471 -0.00248701 0.0035374 0.0075693 -0.000773727 0.00668321)
(0.0164258 -0.00144772 0.00383111 0.00708506 -0.000710782 0.00651781)
(0.0128265 -0.00100439 0.00311348 0.00582184 -0.000529918 0.00542662)
(0.0115419 -0.000799614 0.0026781 0.00535353 -0.000475664 0.00503574)
(0.0106544 -0.000704626 0.00225933 0.00508083 -0.000414203 0.00482411)
(0.0107463 -0.000700574 0.00196851 0.00528142 -0.000389187 0.00506081)
(0.0110283 -0.000781867 0.00152767 0.00566433 -0.000358119 0.00546611)
(0.0122636 -0.00102421 0.000995793 0.00661614 -0.000338041 0.00640545)
(0.0147519 -0.00152363 0.000225508 0.00834232 -0.000327742 0.00806868)
(0.0196881 -0.0024414 -0.000770139 0.0114244 -0.000362349 0.0110074)
(0.0281394 -0.00396221 -0.0021733 0.0163333 -0.000485676 0.0157428)
(0.0421194 -0.00639141 -0.00433694 0.0239789 -0.000798167 0.0232525)
(0.0650351 -0.0102673 -0.00796787 0.0360048 -0.00140432 0.0352823)
(0.103667 -0.0166998 -0.0144251 0.0557422 -0.00243447 0.0551856)
(0.16885 -0.027564 -0.0258603 0.0884303 -0.00392526 0.0881146)
(0.277225 -0.0459046 -0.0456408 0.142082 -0.00564133 0.141658)
(0.446929 -0.0756259 -0.0777292 0.225412 -0.0066504 0.223555)
(0.687105 -0.119917 -0.125155 0.342839 -0.00497543 0.336699)
(0.980584 -0.178711 -0.186609 0.486451 0.00249484 0.471642)
(1.28264 -0.246613 -0.25529 0.631656 0.0160915 0.605129)
(1.51625 -0.310366 -0.314458 0.733006 0.0298664 0.695851)
(1.21651 -0.264431 -0.26455 0.590323 0.0321031 0.55142)
(0.635793 -0.147232 -0.149234 0.317226 0.0198251 0.293205)
(0.240869 -0.0570392 -0.0619111 0.123042 0.00666956 0.117122)
(0.0971055 -0.0215538 -0.0265098 0.0492304 0.00177066 0.0502586)
(0.0517411 -0.0104795 -0.0145972 0.0259391 0.000551079 0.0279927)
(0.0346233 -0.00645324 -0.00996107 0.0172281 0.000155367 0.0191795)
(0.0255416 -0.00441048 -0.00741203 0.0126502 -3.97153e-05 0.0142914)
(0.0194535 -0.00309575 -0.00560768 0.00960383 -0.000166966 0.0108913)
(0.0155337 -0.00227694 -0.00436604 0.0076502 -0.000249945 0.0086514)
(0.0134067 -0.00183929 -0.00363681 0.00658139 -0.00030674 0.00742236)
(0.0124831 -0.00164882 -0.00327265 0.00610166 -0.000352155 0.00689317)
(0.0121588 -0.0015817 -0.00309222 0.00591272 -0.000396156 0.006717)
(0.0121682 -0.00157925 -0.00300544 0.00588131 -0.000447075 0.00673017)
(0.0121829 -0.00157036 -0.00290787 0.0058505 -0.000513358 0.00675661)
(0.0123014 -0.00156991 -0.00282421 0.00587609 -0.000591916 0.00684345)
(0.0126727 -0.00160708 -0.00278881 0.00603284 -0.000681056 0.00705881)
(0.0133851 -0.00169247 -0.00282162 0.00636471 -0.000785708 0.00744317)
(0.0144282 -0.00180459 -0.00290727 0.00687819 -0.000929143 0.00799279)
(0.0159157 -0.00193021 -0.00304514 0.00765633 -0.00115517 0.0087619)
(0.0185162 -0.00216012 -0.00334904 0.00907185 -0.00152267 0.010084)
(0.0230463 -0.00259087 -0.00393999 0.0115971 -0.00213134 0.0123431)
(0.0307524 -0.00337973 -0.00509022 0.0159442 -0.00309738 0.0161547)
(0.0432683 -0.00473141 -0.00734461 0.0230938 -0.00453352 0.0224171)
(0.0632529 -0.00688301 -0.0116189 0.0345287 -0.00666509 0.032396)
(0.0962162 -0.0101576 -0.019743 0.053186 -0.0100158 0.0486948)
(0.152994 -0.0157423 -0.0349252 0.0842322 -0.0153727 0.075951)
(0.254155 -0.0269476 -0.0629556 0.137293 -0.0240209 0.122644)
(0.436686 -0.0504508 -0.114573 0.22889 -0.0379264 0.20418)
(0.759542 -0.0953162 -0.208811 0.385352 -0.0575487 0.343968)
(1.21049 -0.168571 -0.340157 0.588112 -0.0687017 0.528239)
(1.65994 -0.247061 -0.47531 0.732695 -0.0611625 0.716259)
(1.91718 -0.257219 -0.558238 0.753701 -0.0604426 0.821108)
(1.85969 -0.183614 -0.544667 0.66297 -0.0730782 0.783678)
(1.51616 -0.0881153 -0.446569 0.511186 -0.0751804 0.646243)
(0.775673 -0.0125726 -0.24757 0.265393 -0.0556661 0.344344)
(0.702865 0.0173648 -0.122464 0.238414 -0.0566696 0.254404)
(0.40605 0.0456556 0.000597836 0.175459 -0.0283914 0.16188)
(0.418399 -0.00431427 -0.0340272 0.166777 -0.00980177 0.155171)
(0.0217536 -0.00114502 -0.000460598 0.00535455 -0.000363783 0.00591917)
(0.00693816 -0.000898157 0.00103938 0.00295908 -0.000305061 0.00275086)
(0.00571068 -0.000572678 0.00078297 0.00283887 -0.000255949 0.00269526)
(0.00543938 -0.000615314 0.000340849 0.00306712 -0.000226064 0.00296489)
(0.00697612 -0.000864662 -4.72216e-05 0.00413837 -0.000285684 0.00406219)
(0.0101914 -0.00140672 -0.000600028 0.0061806 -0.000390327 0.00614211)
(0.0160889 -0.002402 -0.00148713 0.00979401 -0.000566883 0.00980333)
(0.0263532 -0.00423039 -0.00307151 0.0160132 -0.000804983 0.0160503)
(0.0440622 -0.00759731 -0.00589962 0.0267009 -0.00106924 0.0266368)
(0.0735916 -0.0136685 -0.0108756 0.0444757 -0.00130398 0.043905)
(0.120345 -0.023994 -0.0190201 0.0722346 -0.00160885 0.0703043)
(0.192476 -0.0405384 -0.0316906 0.113291 -0.0024502 0.109635)
(0.305208 -0.0661832 -0.0514947 0.173506 -0.0047623 0.169278)
(0.488392 -0.107028 -0.0839636 0.265821 -0.00962153 0.264377)
(0.794676 -0.173958 -0.139502 0.413919 -0.0183639 0.42114)
(1.30026 -0.282907 -0.233404 0.651223 -0.032332 0.674632)
(2.10879 -0.457293 -0.387302 1.02175 -0.0519155 1.06803)
(3.31867 -0.722119 -0.622473 1.56504 -0.0739303 1.63285)
(4.92592 -1.07855 -0.937156 2.27196 -0.0897443 2.34083)
(6.68381 -1.47274 -1.28546 3.03616 -0.0800722 3.06268)
(8.02382 -1.77914 -1.56315 3.61923 -0.0315566 3.55192)
(8.39571 -1.88073 -1.66449 3.76641 0.0327478 3.59612)
(6.77967 -1.5529 -1.38968 3.08802 0.0799691 2.85087)
(4.06071 -0.97382 -0.893722 1.93123 0.0794874 1.7325)
(1.9119 -0.474475 -0.466839 0.946589 0.0417131 0.860943)
(0.950011 -0.226431 -0.251839 0.467813 0.0165752 0.455784)
(0.594853 -0.132611 -0.166297 0.288598 0.00832172 0.299484)
(0.453787 -0.0959721 -0.132022 0.218511 0.00538769 0.236079)
(0.378414 -0.0767843 -0.113671 0.181614 0.00375532 0.200989)
(0.321514 -0.0626687 -0.0990465 0.153988 0.00239056 0.172444)
(0.279772 -0.052353 -0.0872461 0.133631 0.00130415 0.149497)
(0.256421 -0.0463612 -0.0797168 0.121803 0.000651069 0.134689)
(0.248105 -0.0441025 -0.0759121 0.116922 0.000483445 0.127217)
(0.244125 -0.0434476 -0.0730902 0.114094 0.000669883 0.122506)
(0.236633 -0.0427076 -0.0693577 0.109777 0.000995262 0.117243)
(0.226541 -0.0416749 -0.0652663 0.104408 0.0011914 0.112076)
(0.217564 -0.0408333 -0.0619507 0.0996608 0.00138211 0.108423)
(0.210833 -0.0404557 -0.0593916 0.0960612 0.00168041 0.106282)
(0.212598 -0.0420673 -0.0590284 0.0964247 0.00220577 0.108203)
(0.223989 -0.046302 -0.0610551 0.10129 0.00311975 0.114156)
(0.204689 -0.0438945 -0.0552845 0.0922274 0.00366778 0.105031)
(0.161521 -0.0355025 -0.043667 0.0724656 0.0034238 0.0839261)
(0.0965338 -0.020948 -0.0263018 0.0431787 0.00159504 0.051718)
(0.0445771 -0.00785264 -0.0119355 0.0197839 -0.00146144 0.0258995)
(0.0453621 -0.00724915 -0.0114189 0.0207679 -0.00310077 0.027056)
(0.0549548 -0.00862832 -0.0130664 0.0264213 -0.00511546 0.0333164)
(0.0731692 -0.0117799 -0.0167839 0.0367665 -0.0079605 0.0445288)
(0.105065 -0.0175011 -0.0238796 0.0545263 -0.0123039 0.0631819)
(0.160391 -0.0276328 -0.0369647 0.0846359 -0.018969 0.0938461)
(0.256363 -0.0442306 -0.061314 0.1346 -0.0290625 0.144081)
(0.42019 -0.0742804 -0.103184 0.214816 -0.041996 0.223718)
(0.657644 -0.125547 -0.162896 0.328382 -0.0542265 0.335284)
(0.924524 -0.189511 -0.238885 0.457613 -0.0535325 0.468565)
(1.01201 -0.218356 -0.257598 0.462081 -0.0289933 0.499649)
(1.09684 -0.226719 -0.267118 0.438904 -0.0207533 0.507648)
(1.17458 -0.192093 -0.290173 0.42653 -0.0355568 0.518854)
(1.01117 -0.115583 -0.271058 0.358361 -0.0520148 0.451406)
(0.794729 -0.0292257 -0.144267 0.28031 -0.0543763 0.324221)
(0.502717 0.0300222 -0.0086658 0.20642 -0.0235931 0.193405)
(0.41177 0.00275141 -0.0180004 0.165642 -0.00788741 0.150132)
(0.0178567 -0.00112427 -0.00114813 0.00477057 -0.000896343 0.0057962)
(0.00656177 -0.000999797 -0.000122601 0.00365377 -0.000286973 0.00366011)
(0.01025 -0.00163998 -0.000825309 0.00640387 -0.000357545 0.00630903)
(0.0178508 -0.00319218 -0.00207953 0.0114517 -0.00055845 0.0113273)
(0.0313835 -0.00589201 -0.00432948 0.0197519 -0.000985148 0.0197972)
(0.0561607 -0.0110681 -0.00848037 0.0343913 -0.00167604 0.0349322)
(0.0995962 -0.0206177 -0.0160611 0.0595267 -0.00269116 0.0610022)
(0.17575 -0.0384332 -0.0298405 0.103023 -0.00373027 0.10571)
(0.304534 -0.0709339 -0.0542032 0.176598 -0.00396546 0.179694)
(0.505237 -0.125968 -0.0939232 0.292792 -0.0017637 0.291594)
(0.783526 -0.207618 -0.149929 0.456104 0.00226273 0.440565)
(1.14346 -0.316029 -0.220708 0.663395 0.00540637 0.626928)
(1.61377 -0.452379 -0.312053 0.916273 0.00359351 0.869009)
(2.30266 -0.641103 -0.446887 1.25616 -0.0067361 1.22697)
(3.38162 -0.92319 -0.662958 1.75345 -0.0299608 1.79146)
(5.04212 -1.34496 -1.00068 2.49204 -0.0685212 2.65718)
(7.50584 -1.96702 -1.4993 3.56462 -0.127595 3.91861)
(10.9565 -2.83313 -2.17347 5.02377 -0.211401 5.60398)
(15.4626 -3.93116 -3.00752 6.85078 -0.320142 7.63436)
(20.5655 -5.12847 -3.89621 8.83301 -0.413199 9.67636)
(24.593 -6.02658 -4.55253 10.331 -0.40666 10.9708)
(25.2104 -6.10713 -4.60029 10.5029 -0.291347 10.7136)
(22.2445 -5.38407 -4.08033 9.41894 -0.129469 9.08497)
(16.1127 -3.99044 -3.1377 7.19413 0.0197734 6.50602)
(9.63542 -2.48926 -2.10196 4.57938 0.0768695 4.02287)
(5.89194 -1.5066 -1.42275 2.82254 0.0584777 2.59726)
(4.19132 -1.02277 -1.0799 1.97432 0.0424496 1.93476)
(3.41934 -0.807277 -0.923171 1.59933 0.0363815 1.64169)
(3.00692 -0.695362 -0.844595 1.40622 0.0328993 1.49417)
(2.70661 -0.61461 -0.788913 1.26905 0.027579 1.38427)
(2.48194 -0.551892 -0.743783 1.16678 0.019503 1.29171)
(2.37193 -0.515068 -0.71966 1.11573 0.0110177 1.23395)
(2.40068 -0.511219 -0.721611 1.12573 0.00491301 1.22181)
(2.53089 -0.534903 -0.739935 1.17965 0.00242362 1.24199)
(2.68483 -0.571403 -0.75624 1.24238 0.00369871 1.26678)
(2.76997 -0.599776 -0.754011 1.27378 0.00676759 1.26755)
(2.81017 -0.6193 -0.748828 1.28535 0.0118073 1.26443)
(2.78041 -0.621745 -0.730933 1.2648 0.0192892 1.24234)
(2.7642 -0.627802 -0.716929 1.24875 0.0276679 1.23309)
(2.76895 -0.642613 -0.707663 1.24313 0.0379998 1.23826)
(2.57067 -0.611311 -0.652028 1.14912 0.0471071 1.15947)
(2.22082 -0.539422 -0.56609 0.988274 0.0532022 1.01712)
(1.65015 -0.413256 -0.427556 0.737852 0.0545921 0.772603)
(0.898518 -0.233451 -0.243305 0.407765 0.0385503 0.436625)
(0.522919 -0.138114 -0.150761 0.238939 0.0261799 0.266626)
(0.379067 -0.0978252 -0.116968 0.172022 0.020494 0.204846)
(0.299056 -0.0735954 -0.0982459 0.134217 0.0159626 0.172975)
(0.217496 -0.0486854 -0.0752559 0.0967179 0.00835379 0.135978)
(0.184408 -0.0368151 -0.0628294 0.0830328 -0.000223912 0.121537)
(0.216075 -0.042602 -0.0681029 0.101224 -0.00722096 0.141986)
(0.288319 -0.0580583 -0.0843038 0.137731 -0.0159093 0.185589)
(0.392545 -0.0888035 -0.101603 0.189994 -0.025973 0.242916)
(0.476569 -0.127199 -0.0934876 0.234111 -0.0307937 0.28086)
(0.534521 -0.150175 -0.0838931 0.261556 -0.0267664 0.300519)
(0.563855 -0.157387 -0.0969769 0.263009 -0.0117965 0.319547)
(0.58217 -0.150471 -0.11907 0.259945 -0.00738136 0.337665)
(0.615879 -0.125766 -0.141294 0.250857 -0.0252512 0.320951)
(0.575377 -0.0759845 -0.111895 0.223015 -0.0316008 0.271766)
(0.448485 0.00526738 -0.0123394 0.185225 -0.0151622 0.190411)
(0.381979 0.00129227 -0.011724 0.159121 -0.00303703 0.146174)
(0.0309271 -0.00401582 -0.00388099 0.0114111 -0.000943786 0.0136532)
(0.0278145 -0.00443663 -0.00320898 0.0166144 -0.000817308 0.0176159)
(0.055406 -0.0114547 -0.00872259 0.0346118 -0.00158215 0.0352977)
(0.104547 -0.0239772 -0.0188377 0.0651202 -0.00236585 0.06674)
(0.184163 -0.0448333 -0.0362639 0.11139 -0.00340464 0.114633)
(0.326414 -0.0830456 -0.0666531 0.189772 -0.00396232 0.197041)
(0.567091 -0.150071 -0.118411 0.318815 -0.00351209 0.331077)
(0.969486 -0.26666 -0.204951 0.530272 0.00167589 0.548038)
(1.6043 -0.460926 -0.343557 0.865514 0.0170989 0.880552)
(2.46848 -0.744948 -0.534494 1.33471 0.0460687 1.31682)
(3.42806 -1.07962 -0.744705 1.8811 0.0755956 1.7816)
(4.39037 -1.42712 -0.944675 2.45392 0.0947949 2.22335)
(5.36067 -1.77213 -1.14512 3.02454 0.110269 2.66766)
(6.41051 -2.11449 -1.37813 3.58937 0.119545 3.18659)
(8.05712 -2.58319 -1.76757 4.34719 0.121641 4.05049)
(10.6591 -3.28037 -2.39365 5.44836 0.129315 5.43798)
(14.6203 -4.31872 -3.3124 7.11933 0.118351 7.53749)
(19.1147 -5.47086 -4.24758 8.96417 0.0325528 9.82522)
(23.9438 -6.64085 -5.09486 10.8566 -0.184448 12.1034)
(28.9448 -7.71485 -5.81415 12.6878 -0.499237 14.1718)
(33.4546 -8.49558 -6.34472 14.1513 -0.752191 15.6184)
(35.6426 -8.73212 -6.47006 14.6452 -0.795779 15.8065)
(34.6605 -8.51661 -6.1301 14.1983 -0.644079 14.7445)
(30.7599 -7.81815 -5.4664 13.0796 -0.463742 12.7729)
(24.7668 -6.52671 -4.6587 11.2104 -0.298388 10.2747)
(18.8802 -5.06034 -3.8724 8.80883 -0.115741 7.94754)
(14.9197 -3.92358 -3.29193 6.90003 0.00414377 6.39064)
(12.4898 -3.22616 -2.90121 5.73372 0.0672674 5.46626)
(10.8944 -2.80329 -2.63467 5.01059 0.101504 4.91599)
(9.64113 -2.48944 -2.42334 4.46361 0.114902 4.51439)
(8.55983 -2.22015 -2.22938 3.99532 0.106834 4.15962)
(7.76861 -2.01552 -2.08228 3.65412 0.0835938 3.89295)
(7.33868 -1.89732 -1.99777 3.47438 0.054949 3.73655)
(7.26179 -1.86978 -1.96975 3.45388 0.0249867 3.67663)
(7.51517 -1.93194 -1.98866 3.58187 -0.00378035 3.71014)
(7.97292 -2.0615 -2.02856 3.80455 -0.0264029 3.79917)
(8.62808 -2.25156 -2.09941 4.10704 -0.0370947 3.96552)
(9.2058 -2.42318 -2.15016 4.3581 -0.0346224 4.10249)
(9.45181 -2.52132 -2.1394 4.45397 -0.0201676 4.11286)
(9.5541 -2.57022 -2.10964 4.46155 0.00691836 4.07405)
(9.37959 -2.54837 -2.03286 4.33564 0.0481505 3.93981)
(8.81348 -2.3954 -1.9054 4.01827 0.0870755 3.67896)
(8.02723 -2.17655 -1.76763 3.60441 0.134165 3.3684)
(6.24045 -1.74617 -1.43301 2.83568 0.161857 2.68413)
(4.51763 -1.33554 -1.07984 2.11857 0.155258 2.01486)
(3.46397 -1.06089 -0.861291 1.65982 0.150788 1.60529)
(2.77455 -0.855444 -0.725342 1.33442 0.153714 1.34371)
(2.12977 -0.65181 -0.601026 1.02401 0.152129 1.09295)
(1.45282 -0.439638 -0.446964 0.705341 0.12637 0.796616)
(0.900294 -0.262999 -0.303543 0.439439 0.0841687 0.530047)
(0.596378 -0.15772 -0.216537 0.284901 0.0461387 0.373227)
(0.459829 -0.100803 -0.164089 0.205721 0.0122667 0.290627)
(0.442841 -0.0881889 -0.135801 0.194444 -0.0132833 0.273026)
(0.472127 -0.0996059 -0.129582 0.220629 -0.0283838 0.297618)
(0.5077 -0.121058 -0.156525 0.279229 -0.00549201 0.348145)
(0.458769 -0.122306 -0.152667 0.301718 0.0251828 0.353979)
(0.400604 -0.1032 -0.13267 0.257717 0.0182463 0.303252)
(0.417894 -0.0770565 -0.105918 0.21588 -0.00402446 0.243193)
(0.391526 -0.00638961 -0.0275891 0.188046 -0.000311127 0.184805)
(0.346795 0.00194147 -0.00959939 0.154583 0.00360784 0.141522)
(0.0842721 -0.0148922 -0.0090283 0.043924 -0.0164033 0.0500717)
(0.115233 -0.0309161 -0.0152383 0.0708124 -0.00518797 0.0740003)
(0.23888 -0.0757032 -0.0438667 0.150318 0.00588072 0.144959)
(0.458537 -0.151059 -0.0915949 0.284592 0.0166338 0.274671)
(0.771306 -0.264741 -0.162965 0.472638 0.0374846 0.44641)
(1.29197 -0.448007 -0.271419 0.764143 0.0653993 0.725485)
(2.05534 -0.714521 -0.422722 1.16963 0.099141 1.119)
(3.21154 -1.1072 -0.636297 1.74684 0.132969 1.6961)
(4.68963 -1.60246 -0.917642 2.45849 0.156598 2.43977)
(6.37409 -2.17333 -1.25929 3.29674 0.167558 3.3077)
(7.71419 -2.65349 -1.56168 4.03676 0.18413 4.04311)
(8.95243 -3.10562 -1.84285 4.77393 0.203812 4.67529)
(10.2591 -3.56937 -2.15462 5.55689 0.226924 5.2545)
(11.5887 -4.04622 -2.50695 6.36383 0.264433 5.84279)
(13.029 -4.52557 -2.94136 7.18305 0.335906 6.54273)
(14.9809 -5.09758 -3.51562 8.09033 0.452905 7.51906)
(17.3932 -5.76635 -4.0942 9.02361 0.574188 8.6762)
(19.7138 -6.34988 -4.46815 9.81055 0.604529 9.70561)
(21.9325 -6.81859 -4.64667 10.5285 0.483753 10.6442)
(24.3065 -7.18719 -4.74144 11.2663 0.188959 11.6706)
(26.9996 -7.46488 -4.87213 12.04 -0.20782 12.7989)
(29.723 -7.62912 -5.1445 12.7647 -0.580521 13.7927)
(31.1751 -7.66307 -5.38831 13.1632 -0.833363 14.2004)
(30.3802 -7.60463 -5.48117 13.1036 -0.899319 13.8286)
(28.3032 -7.40807 -5.41788 12.7363 -0.80238 12.9187)
(26.6455 -7.13247 -5.28668 12.2382 -0.59148 11.9375)
(25.3468 -6.73657 -5.12031 11.5449 -0.369011 10.99)
(23.719 -6.22071 -4.82956 10.6739 -0.227288 10.007)
(21.6424 -5.67184 -4.43273 9.70519 -0.137823 9.01134)
(19.1873 -5.10435 -3.99565 8.65451 -0.0591102 8.05686)
(16.7212 -4.55671 -3.58437 7.64881 0.011833 7.2598)
(14.6107 -4.07539 -3.25136 6.80559 0.0706485 6.6494)
(13.1129 -3.72893 -3.03448 6.21236 0.121669 6.21776)
(12.1861 -3.518 -2.91296 5.8555 0.157337 5.92789)
(11.7512 -3.43031 -2.84179 5.70635 0.165887 5.75542)
(11.7059 -3.44826 -2.79194 5.72433 0.142528 5.68077)
(11.9768 -3.55279 -2.76417 5.87077 0.107954 5.70863)
(12.4814 -3.71969 -2.76922 6.10615 0.0824735 5.81578)
(12.9749 -3.89306 -2.77529 6.33065 0.0631612 5.91134)
(13.3584 -4.02881 -2.7609 6.48607 0.0492943 5.94686)
(13.5316 -4.08404 -2.72152 6.52042 0.0481966 5.87785)
(13.2982 -4.0309 -2.61233 6.36714 0.064575 5.63017)
(12.8005 -3.8822 -2.46561 6.08723 0.0850042 5.2887)
(11.7977 -3.60068 -2.22849 5.60897 0.105356 4.78313)
(9.92957 -3.11724 -1.82058 4.78634 0.111787 3.9812)
(7.85799 -2.57964 -1.38846 3.88215 0.12254 3.13786)
(6.07139 -2.08524 -1.04807 3.08332 0.144494 2.42673)
(4.61174 -1.6425 -0.82497 2.40563 0.171484 1.87934)
(3.44996 -1.26906 -0.684038 1.86309 0.198646 1.47738)
(2.56276 -0.960522 -0.591127 1.4391 0.211531 1.18696)
(1.89783 -0.702798 -0.512697 1.09356 0.196 0.955563)
(1.41931 -0.488028 -0.439672 0.805143 0.152545 0.759983)
(1.19058 -0.35055 -0.40133 0.636236 0.105075 0.63444)
(1.09554 -0.257084 -0.376421 0.553204 0.0575256 0.558873)
(1.07145 -0.187336 -0.347273 0.527381 0.0109288 0.514353)
(0.812266 -0.14585 -0.238351 0.442783 0.0170745 0.405887)
(0.493784 -0.111552 -0.143242 0.360328 0.056897 0.317869)
(0.416906 -0.0853786 -0.105182 0.280939 0.0374121 0.251348)