/*--------------------------------*- C++ -*----------------------------------*\
| =========                 |                                                 |
| \\      /  F ield         | OpenFOAM: The Open Source CFD Toolbox           |
|  \\    /   O peration     | Version:  2.1.1                                 |
|   \\  /    A nd           | Web:      www.OpenFOAM.org                      |
|    \\/     M anipulation  |                                                 |
\*---------------------------------------------------------------------------*/
FoamFile
{
    version     2.0;
    format      ascii;
    class       volScalarField;
    location    "0.0014";
    object      TLS;
}
// * * * * * * * * * * * * * * * * * * * * * * * * * * * * * * * * * * * * * //

dimensions      [0 1 0 0 0 0 0];

internalField   nonuniform List<scalar> 
36520
(
0.000341349
0.000298279
0.00025312
0.000239278
0.000229681
0.000223466
0.000218574
0.000214812
0.000211851
0.000209561
0.000207795
0.000206224
0.000204767
0.000203275
0.00020199
0.00020104
0.000200727
0.000201228
0.000202729
0.000205357
0.000209186
0.000214078
0.00021926
0.00022428
0.000228974
0.000233361
0.000237679
0.000242075
0.000246705
0.000251621
0.000256869
0.000262504
0.000268588
0.000275004
0.000281677
0.000288409
0.000294973
0.000301049
0.000306127
0.000309362
0.000309726
0.000306212
0.000298392
0.000287185
0.000274423
0.000261795
0.000250529
0.000241796
0.000237419
0.000240363
0.00024853
0.000261571
0.0002777
0.000287971
0.000271966
0.00023062
0.000198626
0.000186079
0.000193045
0.000226802
0.000540125
0.000295509
0.00027682
0.00026774
0.00026039
0.00025502
0.000250198
0.000246708
0.000244065
0.000242231
0.000240209
0.000237464
0.000233753
0.000229865
0.000226504
0.000224247
0.00022351
0.00022449
0.000227004
0.000229536
0.000227843
0.000219584
0.000230389
0.000262239
0.000288283
0.000300425
0.000308608
0.000315244
0.000320529
0.000324408
0.000327793
0.000331083
0.000334831
0.000340009
0.000345995
0.000352228
0.000357822
0.000361906
0.000363207
0.00036005
0.000351689
0.000338832
0.000322919
0.000305294
0.000286648
0.000267174
0.000246861
0.000225531
0.000203389
0.000182733
0.000164761
0.000151294
0.00014403
0.00014411
0.000158057
0.00019624
0.000213259
0.000208598
0.0002312
0.000321981
0.000638876
0.000313745
0.000297407
0.000289401
0.000282352
0.000276646
0.000271076
0.000266634
0.000262409
0.000258015
0.000251999
0.000244076
0.000234613
0.000224114
0.000212382
0.000199028
0.000184356
0.000170399
0.00015942
0.00015167
0.000146172
0.000142493
0.000143718
0.000153349
0.000177506
0.000215284
0.000253561
0.000284255
0.000309525
0.000328589
0.000338955
0.000342004
0.000341137
0.000338714
0.000336061
0.000333087
0.000329171
0.000323997
0.00031742
0.000309554
0.000300398
0.000289721
0.000277238
0.000262629
0.000245822
0.000227474
0.000208624
0.00019037
0.000173754
0.00015971
0.000149421
0.000141837
0.000136348
0.000133387
0.000138014
0.000147393
0.000178087
0.000175443
0.000193478
0.000116147
0.000751549
0.000327143
0.000310053
0.000297402
0.000283524
0.000267964
0.000251771
0.000234295
0.000217735
0.000203102
0.000192313
0.000184426
0.000178237
0.000172516
0.000167299
0.000162614
0.000158455
0.000154662
0.000151047
0.000147379
0.000143441
0.000139037
0.000139269
0.00014578
0.000160066
0.000176774
0.000189272
0.000197403
0.000204081
0.000211639
0.000219899
0.000227026
0.00023159
0.000234072
0.000235127
0.000236679
0.000238816
0.000241034
0.000243109
0.000245967
0.000250725
0.000254206
0.000253589
0.000246637
0.000235014
0.000221493
0.000206925
0.000192197
0.000178143
0.000165827
0.000155682
0.000145496
0.000127242
0.000111582
0.000100256
0.000108047
0.000146002
0.000168296
0.000176405
6.58875e-05
0.000850258
0.000296898
0.000262771
0.000233024
0.00021561
0.000203642
0.000195626
0.000189382
0.000184439
0.000180266
0.000176462
0.000172653
0.000168605
0.000164086
0.000159235
0.000154325
0.000149589
0.000145104
0.000141014
0.000137369
0.000134117
0.000131129
0.000132194
0.000138636
0.000151561
0.000165755
0.000175707
0.000181372
0.000184852
0.000188079
0.000191213
0.000193517
0.000194253
0.000193681
0.00019232
0.000190307
0.000187683
0.000184678
0.000180866
0.000175994
0.000173007
0.000172136
0.000177771
0.000214589
0.000224531
0.000221618
0.000213032
0.000201754
0.000189563
0.000178191
0.000169024
0.000162544
0.000151781
0.000121368
8.57517e-05
7.15917e-05
7.46614e-05
0.000106338
9.867e-05
5.78065e-05
0.000883449
0.000219703
0.000206592
0.000199253
0.000193911
0.000188656
0.000183489
0.000178454
0.000173621
0.000169263
0.000165366
0.00016188
0.000158483
0.000154532
0.000149916
0.000145056
0.000140341
0.000135924
0.000131904
0.000128431
0.000125844
0.000124455
0.000125455
0.000130745
0.000141724
0.000153664
0.000162068
0.000167079
0.000169991
0.000172349
0.000174554
0.000176175
0.000176593
0.000175607
0.00017361
0.000171402
0.000169091
0.000166845
0.000164176
0.000160976
0.000158613
0.000156731
0.000155496
0.000157602
0.000161661
0.000165413
0.000169682
0.000179677
0.000190567
0.000188319
0.00018287
0.000178199
0.000174193
0.000159702
0.000117088
7.00112e-05
5.07885e-05
4.82542e-05
4.09015e-05
5.77278e-05
0.000745292
0.000200058
0.000193178
0.000187402
0.000182083
0.000176213
0.000170033
0.00016396
0.000158167
0.000153321
0.00014957
0.000146843
0.000144741
0.000143783
0.000141678
0.000138285
0.000134198
0.000131086
0.000128859
0.000127074
0.000125004
0.000123454
0.000124161
0.00012759
0.000133342
0.000140688
0.000147338
0.000152023
0.000155089
0.000157512
0.000159778
0.000161683
0.000162958
0.0001634
0.000162736
0.000161151
0.000158645
0.000156155
0.000153923
0.000151618
0.000149788
0.00014823
0.000146249
0.000146155
0.000148399
0.000150749
0.000152019
0.000152625
0.000153923
0.000157711
0.000162979
0.000146774
0.000147949
0.000152777
0.000167806
0.000165965
7.78823e-05
3.81622e-05
3.32308e-05
5.86049e-05
0.000557154
0.00018789
0.000177343
0.000170123
0.000165172
0.000159908
0.000154574
0.00014942
0.000145085
0.000141728
0.000139662
0.00013761
0.000135784
0.000134863
0.000134478
0.00013355
0.000132076
0.00013083
0.000130068
0.000129645
0.000129412
0.000128297
0.000126933
0.000129989
0.000135932
0.000138532
0.000139454
0.000140761
0.000142787
0.000145444
0.000148273
0.000150688
0.000152272
0.000153104
0.000153705
0.000153911
0.000152184
0.000143676
0.000140124
0.000139816
0.000142115
0.000140955
0.000138542
0.000136521
0.000136851
0.000138661
0.000140272
0.00014154
0.000143192
0.000145167
0.000146711
0.000146367
0.000148343
0.000157923
0.000168786
0.000178353
0.000139313
3.73977e-05
3.1688e-05
5.94369e-05
0.000472901
0.000156811
0.000145187
0.000140054
0.000138236
0.000136073
0.000135444
0.000135126
0.000134917
0.00013518
0.000136738
0.000138391
0.000138829
0.000137928
0.000134568
0.000124055
0.000102992
7.95059e-05
6.61081e-05
6.48896e-05
7.10686e-05
8.90058e-05
0.000106584
0.000114573
0.000120207
0.000125977
0.000131331
0.000135335
0.000138253
0.000140038
0.000141033
0.000142813
0.000144288
0.000144811
0.000145236
0.000145629
0.000145552
0.000144478
0.000142858
0.000141116
0.00013876
0.00013524
0.000131012
0.000126801
0.000123232
0.000120763
0.000119976
0.000121592
0.0001275
0.000138712
0.000151209
0.000154429
0.000156449
0.000156871
0.000158452
0.000154931
9.94349e-05
3.63158e-05
3.25936e-05
6.18219e-05
0.000507582
0.000159724
0.00014663
0.00014194
0.00014315
0.000142875
0.000142254
0.000141109
0.000137947
0.000133298
0.000134856
0.000143387
0.000147287
0.000148077
0.000146533
0.000140604
0.000122328
9.10161e-05
6.55843e-05
5.80983e-05
6.07834e-05
7.48967e-05
9.86338e-05
0.00011147
0.000115572
0.000117225
0.000117726
0.000118253
0.000120975
0.000128605
0.000141949
0.000151462
0.000151992
0.00015184
0.000151194
0.000150751
0.000150306
0.000148539
0.000145541
0.000142469
0.000139938
0.000138047
0.000137073
0.000136446
0.000135896
0.000135191
0.000135302
0.000137744
0.0001453
0.000159994
0.000169733
0.000171381
0.000168877
0.000164818
0.000169736
0.00017245
0.000110166
4.10442e-05
3.80063e-05
6.35751e-05
0.000555018
0.000170372
0.000144031
0.00013675
0.000136706
0.000137077
0.000138478
0.000139993
0.000140476
0.00013897
0.000140579
0.00014483
0.000150747
0.000155729
0.000157033
0.000146905
0.000111558
6.96905e-05
4.70316e-05
4.19964e-05
4.36918e-05
5.50017e-05
8.99541e-05
0.000123828
0.000133183
0.000136904
0.000137913
0.000137333
0.000137211
0.000139583
0.000145004
0.000148674
0.000147626
0.000145869
0.000144184
0.000146032
0.00014911
0.00015165
0.000152539
0.000152192
0.000150659
0.000148922
0.000147492
0.000146174
0.000144862
0.000143572
0.000142567
0.000142885
0.000145358
0.000153147
0.000162142
0.000163991
0.000158548
0.000163752
0.000175297
0.000187847
0.000113954
3.74001e-05
3.54747e-05
6.19118e-05
0.000525905
0.000174881
0.000161704
0.000153387
0.000148393
0.000142217
0.00013873
0.000136286
0.000135485
0.000136139
0.000138968
0.000143858
0.000149524
0.000154181
0.000156757
0.000156345
0.000152373
0.000134864
7.22007e-05
3.55506e-05
3.08601e-05
3.19201e-05
3.9507e-05
7.8897e-05
0.000151221
0.00015374
0.000152844
0.000148513
0.000142926
0.000141094
0.00014143
0.000144527
0.000146597
0.000144302
0.000135867
0.000137466
0.000147568
0.000153513
0.00015295
0.000151751
0.000140223
0.000121378
0.000121115
0.000124458
0.00014102
0.000144345
0.000140971
0.000142508
0.000148913
0.000153216
0.000154123
0.000152107
0.000151188
0.000168157
0.00018191
0.000187567
0.000132387
3.58757e-05
3.20244e-05
5.84574e-05
0.000516313
0.000170703
0.000159613
0.000153805
0.000151201
0.000145922
0.000141632
0.000137406
0.000134239
0.000132757
0.000133384
0.00013491
0.000136727
0.000139618
0.000144644
0.000151533
0.000154174
0.000148336
0.000115819
5.72588e-05
3.19957e-05
2.76266e-05
2.77051e-05
3.24022e-05
6.68652e-05
0.0001461
0.000149931
0.000149186
0.000147849
0.000144213
0.000141806
0.000142271
0.000145408
0.00014652
0.000135701
0.000136443
0.000139707
0.00014825
0.000151949
0.000150852
0.000149233
0.000144473
0.000123213
0.000121592
0.000135865
0.000145488
0.000143998
0.000138747
0.000130189
0.000139928
0.000147619
0.000147873
0.000158806
0.000177855
0.000184149
0.000187428
0.000128191
3.53307e-05
3.17248e-05
5.7765e-05
0.0005388
0.000159281
0.000134286
0.000129441
0.000132797
0.000134967
0.000135662
0.000134641
0.000131266
0.000121701
0.00010015
7.51632e-05
6.18244e-05
6.11822e-05
7.02815e-05
0.000102139
0.000141821
0.000147984
0.000150444
0.00011223
4.26025e-05
2.75385e-05
2.64367e-05
2.70798e-05
3.38245e-05
8.11906e-05
0.000138825
0.000138951
0.00013738
0.000136923
0.000137505
0.000140685
0.000145791
0.000146949
0.000146673
0.000145656
0.000147416
0.000150232
0.000151567
0.000151184
0.00015014
0.000148768
0.000145697
0.000143678
0.000143808
0.000144389
0.000142532
0.000135838
0.000128117
0.000133284
0.000142492
0.000138848
0.000141982
0.000158924
0.000182703
0.000187109
9.71897e-05
3.73657e-05
3.53233e-05
6.05462e-05
0.00052702
0.000168309
0.000152567
0.000139923
0.000139425
0.000138337
0.000137175
0.000133982
0.000125041
0.000102297
6.56646e-05
3.93786e-05
3.19854e-05
3.25415e-05
3.8896e-05
6.29001e-05
0.000118909
0.000133547
0.000131127
0.00011019
7.44768e-05
4.32615e-05
2.88629e-05
2.67185e-05
2.75297e-05
3.49845e-05
8.46542e-05
0.000142841
0.000145855
0.000146854
0.000146396
0.000144526
0.000141212
0.000136039
0.00013329
0.000142671
0.000155682
0.000156478
0.000155329
0.000153553
0.000151132
0.000145058
0.000135889
0.000135023
0.000138638
0.000142254
0.00014476
0.00014501
0.000144597
0.000146396
0.000147892
0.000136845
0.000139986
0.000158924
0.000191649
0.000199593
9.80289e-05
4.14484e-05
3.71266e-05
6.15405e-05
0.000505503
0.000164705
0.00015267
0.000144431
0.000139696
0.000134824
0.000128702
0.000117452
9.42962e-05
6.3403e-05
4.83549e-05
4.99786e-05
7.502e-05
0.000121226
0.000124452
0.000128174
0.000130844
0.000127975
0.00010511
7.35341e-05
5.71178e-05
4.9889e-05
4.28022e-05
3.94084e-05
4.11494e-05
5.62925e-05
0.00011001
0.000137221
0.000137581
0.00013375
0.000125062
0.000123031
0.000127604
0.000138991
0.000151374
0.000154592
0.00015202
0.000121942
0.000112928
0.000113533
0.000128831
0.000153667
0.0001487
0.000142464
0.000145816
0.00014851
0.00014099
0.000141463
0.000142473
0.00013716
0.000139497
0.000144906
0.000154591
0.000176041
0.00019822
0.000206911
0.000116646
4.03275e-05
3.65923e-05
6.1176e-05
0.000547392
0.000183457
0.00017373
0.000165423
0.000158011
0.000151121
0.000144638
0.000138786
0.000133718
0.000130523
0.000129284
0.000129444
0.000131347
0.000132807
0.000132738
0.000131807
0.000130446
0.000129472
0.000128612
0.00012828
0.000128785
0.0001263
0.000115807
0.000107613
0.000111047
0.000126118
0.000138678
0.00014023
0.00013758
0.000137765
0.000140464
0.000144378
0.000149697
0.000153483
0.000154814
0.000151457
0.000128943
0.000121301
0.000126769
0.000138339
0.000150036
0.000155499
0.000154605
0.000154227
0.00015567
0.000156534
0.000153368
0.000149341
0.000154539
0.000155897
0.000155066
0.000157784
0.000162306
0.000167259
0.000173409
0.000183357
0.000107635
3.52989e-05
3.21626e-05
5.85363e-05
0.000751792
0.000201207
0.00019412
0.000188304
0.000183453
0.000178138
0.000172415
0.000166724
0.000161407
0.000156873
0.000153138
0.000150674
0.000151638
0.000150302
0.000147169
0.000143809
0.00014041
0.000137623
0.000135767
0.000135001
0.000135088
0.000135598
0.000136216
0.000137366
0.000139706
0.000142401
0.000144426
0.000145844
0.000147735
0.000150444
0.000152726
0.00015461
0.000156191
0.000157461
0.000158277
0.000158149
0.000156486
0.000155698
0.000155915
0.000156186
0.00015632
0.000155974
0.000155331
0.000155065
0.000155084
0.000154748
0.000152124
0.000146752
0.000141768
0.00013839
0.000138229
0.0001402
0.000143689
0.000151062
0.000161943
0.000164888
7.08045e-05
3.56319e-05
3.09419e-05
5.63959e-05
0.000832605
0.000234812
0.000216775
0.000209666
0.000205278
0.000201113
0.000197008
0.000193041
0.000188986
0.000184619
0.000180482
0.000176542
0.000176465
0.000173301
0.000170285
0.000167428
0.000164629
0.000162002
0.000159695
0.000157722
0.000155903
0.000153918
0.000151541
0.000149468
0.000149906
0.000151726
0.000154173
0.000157033
0.000159685
0.00016172
0.00016339
0.00016542
0.000168596
0.000173186
0.000176725
0.000176855
0.000176224
0.000175258
0.000174148
0.000172734
0.000170204
0.000165763
0.000163327
0.000161565
0.000159435
0.00015586
0.000151213
0.000147885
0.00014541
0.000141309
0.000135049
0.000130831
0.00013219
0.000142576
0.000146466
0.000111671
5.59488e-05
4.86257e-05
3.87379e-05
5.43595e-05
0.000784834
0.000324257
0.000287204
0.000255602
0.000236966
0.000224283
0.000216178
0.000209975
0.000205076
0.00020125
0.000198385
0.000195456
0.000194028
0.000191759
0.000189635
0.000187482
0.000185175
0.00018264
0.000179841
0.00017675
0.000173346
0.000169537
0.000165347
0.000161056
0.000159978
0.000161043
0.000163559
0.000166627
0.000169496
0.000171866
0.000174595
0.000180073
0.000192124
0.000210235
0.000216825
0.000217626
0.000216997
0.000215219
0.000212321
0.000208075
0.000202123
0.00019483
0.000187636
0.000180553
0.000173693
0.000167029
0.000160254
0.000152725
0.000143589
0.000132592
0.000121774
0.000115911
0.00011362
0.000115665
0.000122739
0.000115896
0.000101133
0.00012601
0.000110925
5.48337e-05
0.000699107
0.000331731
0.000319769
0.000313508
0.000305096
0.000296407
0.000286506
0.000275873
0.00026492
0.000255081
0.000248196
0.000243177
0.000238078
0.000231033
0.000221879
0.000211814
0.000202727
0.000195655
0.000190272
0.000185826
0.00018169
0.000177466
0.000173316
0.000169665
0.000168628
0.000169858
0.00017347
0.000179034
0.00018675
0.000196986
0.000212841
0.000237653
0.000260396
0.000266429
0.000261625
0.000253653
0.000244581
0.0002349
0.00022497
0.000215089
0.000205504
0.00019637
0.000187778
0.000179674
0.000171899
0.000164344
0.000156777
0.000148761
0.000139576
0.000128181
0.000117314
0.000110566
0.000110701
0.000113886
0.000117828
0.000127022
0.000146082
0.000156321
0.000165174
7.46032e-05
0.000620752
0.000315304
0.000302606
0.000298266
0.000293495
0.000290673
0.000287644
0.000286766
0.000285981
0.000284797
0.000281144
0.000275643
0.000269554
0.000264634
0.000261723
0.000260807
0.000261106
0.000260204
0.000253356
0.000236705
0.000215634
0.000199262
0.000189465
0.000185028
0.000186721
0.000196643
0.000219181
0.000254842
0.000291561
0.000315393
0.000325602
0.000324245
0.000315274
0.000302812
0.000288637
0.000273523
0.000258511
0.000244429
0.000231568
0.0002198
0.000208943
0.000198853
0.000189387
0.000180302
0.000171381
0.00016266
0.000154368
0.000146546
0.00013911
0.000131988
0.00012552
0.000121381
0.000119301
0.000119665
0.000126279
0.000133132
0.000151602
0.00015087
0.000178883
0.000226668
0.000519851
0.000298018
0.000281041
0.000274872
0.000269335
0.000265912
0.000262758
0.000261255
0.000260083
0.000258894
0.000256354
0.000252549
0.000248287
0.000244785
0.00024274
0.000242444
0.000244097
0.000247885
0.000254373
0.000264087
0.000277528
0.000291828
0.000299203
0.000304699
0.000312339
0.000321467
0.000330066
0.000337284
0.000343367
0.000348312
0.000351901
0.000353823
0.00035396
0.000352065
0.000348331
0.000343135
0.000335277
0.000324129
0.000309834
0.000292928
0.000274027
0.000253765
0.000232756
0.000211486
0.000191116
0.000173103
0.00015816
0.000147144
0.000139354
0.000134015
0.000130818
0.0001299
0.000131282
0.000135844
0.000147887
0.000174227
0.000192226
0.000175758
0.000211171
0.00035061
0.00031975
0.000288738
0.00025452
0.000243682
0.000235995
0.000231066
0.000227258
0.000224381
0.000222176
0.000220427
0.000218962
0.000217598
0.000216307
0.000215166
0.000214362
0.000214046
0.000214337
0.000215285
0.000216936
0.000219308
0.000222425
0.000226282
0.000230837
0.00023565
0.000240568
0.000245468
0.000250475
0.000255683
0.000261083
0.000266636
0.000272259
0.000277804
0.000283259
0.000288634
0.000293839
0.000298626
0.000302708
0.00030559
0.000306846
0.000306154
0.000303417
0.000298972
0.000293635
0.000288767
0.000285224
0.000282971
0.00028205
0.000283846
0.000288137
0.0002955
0.000305272
0.00031538
0.000320309
0.000308597
0.000272871
0.000231197
0.000199509
0.00016626
0.000161877
0.000178768
0.000333664
0.000293506
0.000257033
0.000244962
0.000236555
0.000231778
0.000227844
0.000225127
0.000222962
0.00022123
0.000219895
0.000218684
0.000217796
0.000217058
0.000216752
0.000216765
0.000217305
0.000218283
0.000219792
0.0002218
0.000224322
0.000227334
0.000230837
0.000234832
0.000239361
0.000244433
0.000250133
0.000256397
0.000262909
0.00026954
0.000276285
0.000283049
0.000289798
0.00029643
0.000302874
0.000308997
0.000314452
0.000318598
0.000320684
0.000320006
0.000316218
0.000309665
0.000301627
0.000294114
0.000288953
0.000287395
0.000289626
0.000295761
0.000303545
0.000311962
0.000320029
0.000326607
0.00032894
0.000318966
0.000286143
0.000240421
0.000207272
0.000188133
0.000164189
0.000153578
0.000546666
0.000305823
0.000286551
0.000279576
0.000274655
0.000272456
0.000270025
0.000269664
0.000268872
0.000268843
0.000267871
0.000266619
0.000264832
0.000264145
0.000263818
0.000265001
0.000266989
0.000270125
0.000274219
0.000278993
0.000284647
0.000290591
0.000297047
0.000303953
0.000311055
0.000318397
0.00032542
0.000331803
0.000337447
0.000342074
0.000345891
0.000348892
0.000351241
0.000353045
0.00035423
0.000353635
0.000349858
0.000342152
0.000330284
0.000314851
0.000296817
0.000276931
0.000255612
0.000233234
0.00021088
0.000193081
0.00018037
0.000171642
0.000165848
0.000161509
0.000157851
0.000154892
0.000152969
0.000153066
0.00015836
0.000174837
0.000193922
0.000188863
0.00013618
0.000159266
0.000665768
0.000327601
0.000312298
0.000308026
0.000305145
0.000305063
0.000304178
0.000306609
0.000307826
0.000310605
0.000310708
0.000309355
0.000306964
0.000306265
0.000306246
0.000308439
0.000310998
0.000313447
0.000314555
0.000313463
0.000310618
0.000306326
0.000301285
0.000295658
0.000289414
0.000282722
0.000275273
0.000268907
0.000267416
0.000269646
0.000275615
0.000282867
0.000287038
0.000284509
0.000277157
0.000268212
0.000258412
0.000248287
0.000238022
0.000227728
0.000217383
0.00020688
0.000196106
0.000185226
0.000174743
0.000165123
0.000156543
0.000148771
0.000143785
0.00014098
0.000139288
0.000138026
0.00013738
0.00013742
0.000138657
0.000141146
0.00015656
0.000151813
0.000155604
0.000163352
0.000761391
0.0003488
0.000336206
0.000334692
0.000332762
0.000332698
0.000328538
0.000322399
0.000309759
0.000292835
0.000275213
0.000259038
0.000244797
0.000232513
0.000222588
0.00021482
0.000209024
0.000204742
0.000201689
0.000199666
0.000198278
0.00019731
0.000196589
0.000195954
0.00019517
0.000194492
0.000193958
0.000193874
0.000193929
0.000194044
0.000195634
0.000200118
0.000208216
0.00021468
0.00021732
0.000216924
0.000213783
0.000208554
0.000201976
0.000194943
0.000187775
0.000180626
0.000173526
0.000166599
0.0001599
0.000153426
0.000147174
0.000141292
0.000135862
0.000130132
0.000121156
0.000111146
0.000103909
9.81002e-05
9.4326e-05
0.000102537
0.000125717
0.000145499
0.000144192
7.08183e-05
0.000843077
0.000362146
0.00033758
0.000307149
0.00027605
0.000252001
0.00023784
0.000227993
0.0002212
0.000215778
0.000211455
0.000207338
0.000203646
0.000200366
0.000197401
0.000194554
0.000191636
0.000188523
0.000185348
0.000182818
0.000180701
0.000179084
0.000177912
0.000177065
0.000176394
0.000175821
0.000175336
0.000175039
0.000174967
0.000175057
0.000174823
0.000175115
0.000176178
0.000176935
0.000177541
0.000178658
0.000180819
0.000183033
0.000182768
0.000180948
0.000178411
0.000176166
0.000173605
0.000168021
0.000161472
0.000154984
0.000145017
0.000128315
0.000116569
0.000107107
0.000100055
9.81228e-05
9.81017e-05
9.96306e-05
0.000105461
9.92609e-05
9.57705e-05
0.000115673
8.9912e-05
5.21128e-05
0.000921838
0.000270924
0.0002198
0.000202952
0.000198486
0.000197303
0.000197703
0.000198495
0.000198972
0.000198847
0.00019846
0.000196435
0.000193394
0.000189901
0.000186042
0.000181846
0.000177464
0.000173134
0.000169041
0.000165811
0.000163142
0.000161059
0.00015959
0.000158628
0.000158059
0.000157721
0.000157577
0.000157636
0.000158027
0.000158758
0.000159638
0.000160408
0.000160869
0.000160816
0.000160284
0.000159754
0.000159218
0.000158832
0.000158111
0.000157236
0.000155006
0.000151413
0.00015265
0.000160437
0.000162398
0.000152069
0.000142078
0.000137325
0.000130858
0.000123258
0.000113342
0.000105097
0.000105658
0.00011648
0.000125891
0.000126252
8.89284e-05
7.83756e-05
4.49049e-05
5.21414e-05
0.000922202
0.000186102
0.000175837
0.000171542
0.00017048
0.000171165
0.000173121
0.00017567
0.000178148
0.000180418
0.000182322
0.000181554
0.000178302
0.000174253
0.000169872
0.000165327
0.00016075
0.000156259
0.000152703
0.000150126
0.000148141
0.000146597
0.000145535
0.000144878
0.00014454
0.000144341
0.000144241
0.000144229
0.000144437
0.000144994
0.000145785
0.000146481
0.000146728
0.000146467
0.000145606
0.000144492
0.000143122
0.000141953
0.000140464
0.00013927
0.000137947
0.000136148
0.000134547
0.000134065
0.0001362
0.000142177
0.000146666
0.000148241
0.000145564
0.000140975
0.000135452
0.000129932
0.000129181
0.000134884
0.000142234
0.000147131
8.31731e-05
3.87318e-05
2.71189e-05
5.32209e-05
0.000719106
0.000172786
0.000163907
0.000160153
0.000158161
0.000156775
0.00015562
0.000154447
0.000153284
0.00015213
0.000153657
0.000156316
0.000156018
0.000154429
0.000152392
0.000149811
0.000146635
0.000143597
0.000141127
0.000139275
0.000137969
0.000137038
0.000136506
0.000136308
0.000136379
0.000136554
0.000136715
0.000136837
0.000136951
0.000137183
0.000137688
0.000138422
0.000139101
0.000139395
0.000139127
0.000138316
0.000136962
0.000135233
0.000133141
0.000130693
0.000128509
0.00012657
0.000124979
0.000123999
0.000123913
0.000124231
0.000124999
0.000127235
0.000130915
0.00013456
0.000138562
0.000141581
0.000143555
0.000147645
0.000155704
0.000160008
8.50704e-05
2.96067e-05
2.76181e-05
5.57139e-05
0.000484908
0.00016391
0.000153292
0.000147247
0.000143056
0.000139433
0.000136568
0.000133672
0.00013062
0.000128578
0.000128043
0.000129723
0.00013224
0.000134444
0.000136574
0.000138162
0.000138962
0.000139126
0.000138321
0.000137064
0.000136109
0.000135574
0.000135367
0.000135469
0.000135862
0.000136439
0.000136992
0.000137322
0.000137333
0.000137102
0.000136966
0.000137209
0.000137734
0.00013821
0.000138419
0.000138586
0.000138828
0.000138677
0.000138452
0.000138442
0.000138928
0.000139456
0.000139569
0.000138914
0.000137985
0.000137563
0.000136671
0.000135661
0.000134036
0.000131917
0.000130041
0.000130728
0.000135572
0.000146405
0.000161962
0.000168341
8.83124e-05
2.94544e-05
2.9938e-05
5.86903e-05
0.000415105
0.000137402
0.000128537
0.000124163
0.000121016
0.000118314
0.000117223
0.000117258
0.000118513
0.000119303
0.000118845
0.000117379
0.000117691
0.000118235
0.000119396
0.000122874
0.000126983
0.000131198
0.000134561
0.000136222
0.000135032
0.000132198
0.000129073
0.000126462
0.000125299
0.000126369
0.000128405
0.000129199
0.000129389
0.000130453
0.000133206
0.000137122
0.000139495
0.000140053
0.000140396
0.000139859
0.000137537
0.000133586
0.000128308
0.000122072
0.000115086
0.000107567
0.000100954
9.69609e-05
9.55861e-05
9.54963e-05
9.63704e-05
9.92271e-05
0.000106316
0.000119992
0.000138106
0.000142694
0.000142656
0.000144005
0.000154785
0.000156365
9.56145e-05
3.6497e-05
3.73341e-05
6.34541e-05
0.00046703
0.000154786
0.000130258
0.000127398
0.000123488
0.000112255
9.27655e-05
8.26295e-05
8.4051e-05
8.58162e-05
8.94314e-05
9.87879e-05
0.000102353
9.82734e-05
9.17193e-05
8.91691e-05
8.36781e-05
8.11347e-05
0.000103752
0.000132458
0.000137741
0.000139487
0.00014089
0.000142052
0.000143245
0.000144154
0.000145187
0.000146062
0.000146811
0.00014763
0.000148598
0.000149576
0.000150106
0.000149998
0.000148599
0.000145578
0.000142748
0.000141063
0.000140355
0.000139685
0.000137681
0.0001336
0.000127502
0.000119636
0.000112281
0.000108869
0.000108925
0.000111414
0.000118174
0.000131744
0.000145051
0.000149203
0.000154778
0.000164363
0.000183133
0.00017855
9.2914e-05
4.16439e-05
4.12228e-05
6.49254e-05
0.000514703
0.000175215
0.00013739
0.000131449
0.000128745
0.000120523
0.000100195
7.44134e-05
5.21194e-05
3.91013e-05
3.60185e-05
3.62427e-05
3.50667e-05
2.99912e-05
2.50858e-05
2.41325e-05
2.44033e-05
2.88969e-05
6.6846e-05
0.000123813
0.000118969
0.000124999
0.000136675
0.000138114
0.00013572
0.000134771
0.000137132
0.000142715
0.000147581
0.00014953
0.000146433
0.000138082
0.000139689
0.000141108
0.000143654
0.000144789
0.000144617
0.00014437
0.000143921
0.000143116
0.000141833
0.000139347
0.000134037
0.000125929
0.00012181
0.000122434
0.000126704
0.000134721
0.000147376
0.000156776
0.000156119
0.000145316
0.000160307
0.00018986
0.000212254
0.000207291
9.57028e-05
4.24027e-05
4.01837e-05
6.51026e-05
0.0005155
0.000156371
0.00013313
0.000128024
0.000130318
0.000131382
0.000130962
0.000122444
0.000108461
9.87569e-05
9.7377e-05
9.60266e-05
8.20664e-05
5.60386e-05
3.76521e-05
3.10297e-05
3.04759e-05
3.44205e-05
4.77527e-05
5.89197e-05
7.09101e-05
9.72353e-05
0.00013154
0.000139079
0.000139614
0.000138896
0.000139874
0.000142007
0.000145663
0.00014848
0.000150053
0.000146477
0.000138993
0.000140475
0.000150641
0.000154916
0.000151331
0.000148813
0.000149532
0.000150153
0.000150334
0.000150398
0.000149746
0.000147858
0.000142007
0.000133321
0.00013237
0.000136105
0.000145466
0.000152748
0.000152343
0.00013444
0.000153254
0.000182429
0.000206326
0.000206671
0.000103588
4.3527e-05
3.97912e-05
6.50253e-05
0.000513075
0.000154136
0.000145042
0.000138611
0.000139389
0.000138109
0.000136652
0.000134756
0.00013364
0.000134136
0.000136275
0.000135534
0.000132413
0.000123889
0.000106794
8.5608e-05
6.26214e-05
4.5501e-05
3.89223e-05
3.999e-05
5.00295e-05
8.90524e-05
0.000143757
0.000151478
0.000152755
0.000153744
0.000154396
0.000154574
0.000154361
0.000153767
0.000152893
0.000152494
0.000152306
0.000151723
0.00015148
0.000152171
0.000153149
0.000153433
0.000153071
0.000152617
0.000152322
0.000152495
0.000152293
0.00015158
0.000150214
0.000146584
0.000141623
0.000141122
0.000144317
0.000151152
0.000154644
0.000154244
0.000155631
0.000165681
0.000185842
0.000188177
0.000101973
4.12596e-05
3.88018e-05
6.38395e-05
0.000456313
0.00016364
0.000154805
0.000150891
0.000151845
0.000149914
0.000149089
0.000147183
0.000145157
0.000144142
0.000145027
0.000146312
0.000147142
0.000146202
0.000142269
0.00012979
9.65068e-05
6.53472e-05
5.8864e-05
6.40412e-05
9.00736e-05
0.00013617
0.000148702
0.000151124
0.000152759
0.00015364
0.000154037
0.000154176
0.00015406
0.00015346
0.000151282
0.000147653
0.000144311
0.00014229
0.000142146
0.00014346
0.000147735
0.00014962
0.000147853
0.000146325
0.000144885
0.000143211
0.000142757
0.000142962
0.000143974
0.000146391
0.000149644
0.000151873
0.00015335
0.000153001
0.000150437
0.000146722
0.000151161
0.000169737
0.000199259
0.000206705
0.00012958
3.88942e-05
3.61917e-05
6.15817e-05
0.000424034
0.000187912
0.000185013
0.000177761
0.000171633
0.000166953
0.000163381
0.000160306
0.000157841
0.000156244
0.000156414
0.000157365
0.000156673
0.000154664
0.000151415
0.000145931
0.000136212
0.000127699
0.000128166
0.000133899
0.000138159
0.000139716
0.000139071
0.000138174
0.000138664
0.000140233
0.00014335
0.000144097
0.000139987
0.000136605
0.000137487
0.000145592
0.000149992
0.000148755
0.000127783
0.000129351
0.00014297
0.000148916
0.000147191
0.000138741
0.000120121
0.000125456
0.000134816
0.000123694
0.000128404
0.000145529
0.000153248
0.000155175
0.000156917
0.000156539
0.000143045
0.000129101
0.000147997
0.000180388
0.000202095
0.000209058
0.000171022
4.0976e-05
3.37118e-05
5.80106e-05
0.000499832
0.000191296
0.000182002
0.000173658
0.000167481
0.000162953
0.000159699
0.000157048
0.00015515
0.00015404
0.000153682
0.00015332
0.000151778
0.000149198
0.000145799
0.000141991
0.000137755
0.00013626
0.000135101
0.00013492
0.000136742
0.000139124
0.000140975
0.000142254
0.000142976
0.00014329
0.000143317
0.000142321
0.00013874
0.00013859
0.00014267
0.000147601
0.000148377
0.000145408
0.000144401
0.000145934
0.000148349
0.000148089
0.000146421
0.000141917
0.000137928
0.000139507
0.000144482
0.000144744
0.000144925
0.00014372
0.000139575
0.00013705
0.000137642
0.000140078
0.000147373