/*--------------------------------*- C++ -*----------------------------------*\
| =========                 |                                                 |
| \\      /  F ield         | OpenFOAM: The Open Source CFD Toolbox           |
|  \\    /   O peration     | Version:  2.1.1                                 |
|   \\  /    A nd           | Web:      www.OpenFOAM.org                      |
|    \\/     M anipulation  |                                                 |
\*---------------------------------------------------------------------------*/
FoamFile
{
    version     2.0;
    format      ascii;
    class       volVectorField;
    location    "0.0014";
    object      U;
}
// * * * * * * * * * * * * * * * * * * * * * * * * * * * * * * * * * * * * * //

dimensions      [0 1 -1 0 0 0 0];

internalField   nonuniform List<vector> 
36520
(
(-0.518045 -0.991589 -0.884277)
(-0.268704 -0.299248 -0.100187)
(-1.47702 -0.0105367 0.161521)
(-1.86708 0.325409 0.122411)
(-2.29474 0.492392 0.103973)
(-2.5828 0.642306 0.0925769)
(-2.89361 0.781699 0.0997648)
(-3.23168 0.887558 0.10463)
(-3.59585 0.945397 0.105936)
(-3.93698 0.944777 0.0924244)
(-4.17758 0.882269 0.0681259)
(-4.31954 0.845608 0.044778)
(-4.38297 0.879812 0.0400573)
(-4.51024 1.02837 0.0599965)
(-4.76797 1.25017 0.101529)
(-5.2708 1.50651 0.156219)
(-6.01201 1.69056 0.205654)
(-6.94134 1.71238 0.233833)
(-7.91353 1.49913 0.223498)
(-8.74887 1.0404 0.168244)
(-9.22501 0.383134 0.0592321)
(-9.20757 -0.325297 -0.0631126)
(-8.70784 -0.919819 -0.176057)
(-7.87219 -1.2508 -0.244806)
(-6.9447 -1.25019 -0.24577)
(-6.21106 -0.971421 -0.192154)
(-5.79528 -0.600665 -0.130653)
(-5.64107 -0.276071 -0.0869377)
(-5.62251 -0.0388149 -0.0602448)
(-5.66878 0.127189 -0.0447886)
(-5.74107 0.246195 -0.0312027)
(-5.82917 0.338296 -0.0199514)
(-5.91922 0.415195 -0.0115539)
(-6.00807 0.487009 -0.00620087)
(-6.09441 0.562891 -0.00226557)
(-6.18649 0.645376 0.000947161)
(-6.28667 0.737422 0.00452806)
(-6.4004 0.840426 0.00592819)
(-6.51807 0.951556 0.00323641)
(-6.64092 1.07968 -0.0021629)
(-6.77356 1.2249 -0.00587652)
(-6.91005 1.37217 -0.00229942)
(-7.07892 1.49531 0.0197374)
(-7.34395 1.55373 0.0703645)
(-7.72519 1.48995 0.15455)
(-8.23555 1.30087 0.278208)
(-8.93595 0.982792 0.443916)
(-9.82648 0.470238 0.670428)
(-10.9878 -0.165468 0.903347)
(-12.5508 -0.988796 1.04181)
(-14.4751 -2.17718 1.24148)
(-16.5665 -3.78525 1.25851)
(-18.2972 -5.56206 1.10966)
(-19.5399 -7.44912 1.07935)
(-20.7747 -9.41989 1.468)
(-23.9998 -12.4674 2.58382)
(-33.5458 -20.0361 3.25218)
(-46.5482 -35.1093 0.352405)
(-51.0397 -56.0478 -2.9069)
(-28.9559 -68.2937 -12.9922)
(-2.202 -0.905088 -0.733522)
(-2.78429 0.171332 0.0567194)
(-3.63269 0.256271 0.316114)
(-3.99637 0.58641 0.229919)
(-4.39665 0.62655 0.22174)
(-4.6672 0.793752 0.195375)
(-4.96874 0.886644 0.229499)
(-5.31621 0.986874 0.246093)
(-5.69311 1.02264 0.260849)
(-6.04588 1.00195 0.220307)
(-6.30165 0.90902 0.160749)
(-6.44582 0.847062 0.100895)
(-6.51759 0.849866 0.0955985)
(-6.63982 0.987716 0.152465)
(-6.88574 1.2021 0.274324)
(-7.37638 1.47055 0.426387)
(-8.10266 1.65679 0.570885)
(-9.01857 1.68009 0.651561)
(-9.97917 1.44969 0.630902)
(-10.79 0.953511 0.476335)
(-11.2353 0.242466 0.179923)
(-11.178 -0.52695 -0.14768)
(-10.6352 -1.16027 -0.458531)
(-9.76772 -1.51028 -0.652468)
(-8.81979 -1.49152 -0.668433)
(-8.10013 -1.16773 -0.531453)
(-7.70818 -0.755479 -0.366321)
(-7.5803 -0.413467 -0.24906)
(-7.57067 -0.170767 -0.176382)
(-7.61557 -0.00949945 -0.129651)
(-7.67212 0.107869 -0.0899437)
(-7.74147 0.199039 -0.0517685)
(-7.80872 0.274514 -0.0198953)
(-7.87966 0.344009 0.00653554)
(-7.94997 0.415987 0.0331489)
(-8.02843 0.492742 0.0591261)
(-8.11909 0.578903 0.081767)
(-8.22214 0.671275 0.0956726)
(-8.32972 0.771352 0.0972774)
(-8.44006 0.886113 0.0923708)
(-8.55331 1.00573 0.0986327)
(-8.65368 1.1131 0.140613)
(-8.744 1.18186 0.247209)
(-8.85367 1.19358 0.419532)
(-9.00353 1.13402 0.630468)
(-9.2583 0.983441 0.877158)
(-9.68275 0.701764 1.17277)
(-10.3149 0.28059 1.54081)
(-11.2555 -0.189115 2.00815)
(-12.6208 -0.896865 2.59738)
(-14.3045 -2.04411 3.06574)
(-16.1002 -3.65676 3.22877)
(-17.6067 -5.69772 3.03415)
(-18.5928 -7.71012 2.57222)
(-18.8747 -9.44072 2.90865)
(-18.8065 -11.1651 4.85323)
(-20.799 -14.3287 7.57293)
(-20.0325 -20.2105 5.00218)
(-28.2477 -25.8578 2.21342)
(10.0569 -33.7317 -24.763)
(-2.72413 -0.876717 -0.323453)
(-3.73453 0.251157 0.311216)
(-4.5228 0.375153 0.505693)
(-4.88123 0.645916 0.379523)
(-5.17657 0.668255 0.37426)
(-5.41761 0.846877 0.317738)
(-5.68976 0.934776 0.379704)
(-6.01231 1.06597 0.396931)
(-6.38409 1.11587 0.418369)
(-6.73549 1.08849 0.34768)
(-6.97887 0.973954 0.252698)
(-7.08325 0.880457 0.169072)
(-7.11852 0.84831 0.158769)
(-7.18553 0.992641 0.240491)
(-7.39234 1.2335 0.404836)
(-7.85301 1.55699 0.622715)
(-8.57215 1.80808 0.835647)
(-9.48318 1.88797 0.969094)
(-10.4475 1.67726 0.952683)
(-11.2698 1.12994 0.735537)
(-11.7146 0.28512 0.287685)
(-11.6366 -0.637368 -0.191812)
(-11.0572 -1.40069 -0.655021)
(-10.1187 -1.83556 -0.959231)
(-9.07747 -1.7982 -0.985873)
(-8.31833 -1.37926 -0.780175)
(-7.94394 -0.87672 -0.541228)
(-7.85556 -0.48557 -0.378433)
(-7.87495 -0.222407 -0.284663)
(-7.93696 -0.0549842 -0.226332)
(-7.99811 0.0619756 -0.177061)
(-8.06902 0.15514 -0.129936)
(-8.136 0.232161 -0.0896912)
(-8.20327 0.303271 -0.0551984)
(-8.26683 0.378003 -0.0200994)
(-8.34004 0.461777 0.0119274)
(-8.42787 0.554385 0.0348622)
(-8.53077 0.652419 0.046365)
(-8.64129 0.75922 0.0371737)
(-8.7528 0.882724 0.0182339)
(-8.86086 1.02124 0.00852198)
(-8.94443 1.16674 0.0374823)
(-9.00305 1.29871 0.145079)
(-9.0671 1.40188 0.351001)
(-9.14916 1.44399 0.622689)
(-9.30261 1.43627 0.974808)
(-9.55059 1.35165 1.44248)
(-9.88499 1.17322 2.0915)
(-10.3474 0.881345 2.88183)
(-10.9909 0.263818 3.73514)
(-11.6635 -0.910133 4.42106)
(-11.8869 -2.63567 4.63907)
(-11.08 -4.65164 4.01034)
(-10.2306 -6.66746 3.20539)
(-11.2103 -8.89933 3.59331)
(-9.8344 -10.6326 4.63385)
(-7.47182 -11.2165 6.22765)
(2.90096 -12.5139 -0.480119)
(-15.4161 -15.4873 -12.8506)
(16.32 -22.7425 -32.1749)
(-2.86932 -0.882105 0.23126)
(-4.01986 0.353431 0.541143)
(-4.85372 0.472181 0.605371)
(-5.20359 0.715243 0.451941)
(-5.41062 0.782534 0.446857)
(-5.61266 0.946788 0.393634)
(-5.83591 1.06655 0.468007)
(-6.15235 1.21255 0.499272)
(-6.54048 1.27323 0.522077)
(-6.9198 1.21525 0.421125)
(-7.17382 1.03506 0.300669)
(-7.25063 0.868403 0.218211)
(-7.23213 0.795992 0.239626)
(-7.25017 0.964912 0.363964)
(-7.40482 1.30014 0.572723)
(-7.80372 1.74643 0.826814)
(-8.46229 2.12509 1.07111)
(-9.31637 2.28482 1.2151)
(-10.2476 2.08687 1.18028)
(-11.0812 1.43745 0.901804)
(-11.5108 0.399688 0.35183)
(-11.4153 -0.787667 -0.223834)
(-10.833 -1.75194 -0.760095)
(-9.84834 -2.30297 -1.13374)
(-8.71902 -2.23277 -1.17604)
(-7.92704 -1.64934 -0.942407)
(-7.59318 -0.99781 -0.672415)
(-7.56105 -0.527075 -0.497394)
(-7.6188 -0.226446 -0.400849)
(-7.69547 -0.0330595 -0.335691)
(-7.75734 0.11114 -0.274656)
(-7.82492 0.230144 -0.213893)
(-7.89225 0.330212 -0.159282)
(-7.96466 0.421947 -0.112279)
(-8.04124 0.518637 -0.0694619)
(-8.13347 0.624527 -0.0284791)
(-8.24339 0.734952 0.00254695)
(-8.36716 0.844797 0.0107915)
(-8.49108 0.951443 -0.0173196)
(-8.60904 1.0621 -0.0681787)
(-8.70183 1.18023 -0.107217)
(-8.73338 1.30148 -0.104983)
(-8.6855 1.42324 -0.000209527)
(-8.56791 1.56187 0.229523)
(-8.32831 1.68297 0.48532)
(-7.92004 1.76795 0.809102)
(-7.29173 1.81135 1.2696)
(-6.48844 1.75229 1.95931)
(-5.56972 1.54518 2.85571)
(-4.731 1.30292 3.83135)
(-3.59913 0.833414 4.63519)
(-1.7062 -0.654549 4.93014)
(1.29264 -2.45651 3.78277)
(4.10741 -3.63342 2.13166)
(6.09063 -4.27497 1.39968)
(7.64572 -5.11417 1.68289)
(6.52966 -6.19884 2.70207)
(18.8665 -5.52628 0.781718)
(1.58567 -4.54708 -10.1495)
(17.6478 -20.0166 -31.0829)
(-2.84397 -0.494951 0.879856)
(-4.16261 0.478828 0.851538)
(-4.92592 0.538054 0.82985)
(-5.25519 0.75843 0.575244)
(-5.44334 0.843577 0.569558)
(-5.64945 1.00251 0.525365)
(-5.88532 1.17729 0.584404)
(-6.21811 1.38874 0.61709)
(-6.63316 1.49366 0.608391)
(-7.01018 1.43037 0.470317)
(-7.22255 1.18674 0.331687)
(-7.2225 0.94957 0.275936)
(-7.08292 0.849295 0.374688)
(-6.98604 1.04434 0.564966)
(-6.99375 1.46989 0.802489)
(-7.20229 2.04722 1.02606)
(-7.61122 2.54905 1.19965)
(-8.13734 2.78311 1.28334)
(-8.64984 2.63304 1.22134)
(-9.04288 1.90891 0.948935)
(-9.17753 0.609762 0.413481)
(-9.14366 -0.931609 -0.197743)
(-8.89212 -2.16783 -0.67368)
(-8.21009 -2.86777 -1.0034)
(-7.17233 -2.72064 -1.06899)
(-6.42674 -1.90873 -0.905825)
(-6.19078 -1.07697 -0.697543)
(-6.2317 -0.525551 -0.568664)
(-6.33271 -0.192425 -0.51151)
(-6.40548 0.0194859 -0.475475)
(-6.43556 0.178114 -0.434372)
(-6.4548 0.313488 -0.382646)
(-6.4866 0.433214 -0.332064)
(-6.55264 0.535785 -0.281822)
(-6.66746 0.639394 -0.231809)
(-6.8221 0.771596 -0.183467)
(-7.00616 0.924266 -0.154112)
(-7.2172 1.07555 -0.163574)
(-7.42898 1.21236 -0.226671)
(-7.64413 1.36936 -0.344777)
(-7.84833 1.55753 -0.475436)
(-8.00315 1.77732 -0.5934)
(-8.09686 2.07618 -0.642593)
(-8.13235 2.48656 -0.552279)
(-8.0228 2.87314 -0.422592)
(-7.77104 3.19282 -0.197271)
(-7.29405 3.43512 0.193018)
(-6.47461 3.66397 0.808167)
(-5.3178 3.97649 1.64981)
(-3.58619 4.31774 2.56438)
(-1.49403 4.0661 3.45867)
(1.26544 2.80248 3.95245)
(5.88951 0.253216 2.70664)
(10.4384 -2.18454 0.793849)
(12.6498 -2.93662 0.0718189)
(13.9481 -2.60253 -0.513728)
(14.232 -2.508 -0.00248966)
(17.2953 -2.56222 -1.03229)
(11.5114 -5.15827 -7.25766)
(17.8242 -18.4475 -26.7279)
(-3.18831 -0.230254 1.21045)
(-4.39957 0.632892 0.970303)
(-5.0945 0.719652 0.887857)
(-5.38733 0.88458 0.590465)
(-5.50157 1.0321 0.571569)
(-5.63838 1.22559 0.522256)
(-5.80096 1.45328 0.585198)
(-6.07581 1.71756 0.615096)
(-6.43696 1.81924 0.571278)
(-6.74145 1.69463 0.350011)
(-6.8118 1.31124 0.222674)
(-6.60047 0.945735 0.269756)
(-6.2389 0.791534 0.507095)
(-5.87393 0.991876 0.801364)
(-5.54152 1.48457 1.035)
(-5.28767 2.17846 1.15198)
(-5.04293 2.80911 1.13616)
(-4.58916 3.17058 1.00954)
(-3.95118 3.10268 0.824445)
(-3.16321 2.3954 0.529308)
(-2.4584 0.927213 0.125485)
(-2.34663 -0.985296 -0.236283)
(-2.68201 -2.68835 -0.322228)
(-3.07003 -3.72475 -0.363306)
(-2.79443 -3.52693 -0.559328)
(-2.32541 -2.38688 -0.698608)
(-2.2763 -1.31697 -0.678597)
(-2.40007 -0.672134 -0.662313)
(-2.52541 -0.320843 -0.686552)
(-2.53502 -0.112284 -0.70386)
(-2.442 0.0376938 -0.678529)
(-2.27553 0.169244 -0.60737)
(-2.10396 0.284924 -0.509918)
(-2.02088 0.368514 -0.401715)
(-2.03025 0.433303 -0.295735)
(-2.196 0.558663 -0.22546)
(-2.38226 0.72673 -0.244119)
(-2.6242 0.907111 -0.327119)
(-2.90392 1.08242 -0.487269)
(-3.28027 1.23271 -0.7398)
(-3.79829 1.39762 -1.00309)
(-4.32318 1.55807 -1.2098)
(-4.87205 1.80699 -1.28473)
(-5.41906 2.35942 -1.14747)
(-5.56142 2.95126 -1.07934)
(-5.59322 3.47283 -1.05315)
(-5.49473 4.06679 -1.00453)
(-5.24329 4.78745 -0.808083)
(-4.66523 5.58196 -0.469846)
(-3.64219 6.25383 0.0442701)
(-1.86929 6.28142 0.710384)
(0.921493 5.05389 1.07568)
(6.15028 2.19586 0.400214)
(9.55555 -0.994179 -0.692333)
(10.5072 -2.3591 -0.628618)
(13.1468 -2.73168 0.00443524)
(14.9142 -2.08038 -0.305419)
(17.3552 -2.37701 -1.52605)
(15.4439 -4.03912 -5.36292)
(17.5735 -16.6276 -20.8113)
(-3.49824 1.8194 1.9518)
(-4.51044 0.907679 1.17274)
(-5.12502 0.866441 1.07907)
(-5.30858 0.916784 0.753175)
(-5.28326 1.11221 0.718946)
(-5.20917 1.32341 0.636036)
(-5.14605 1.65377 0.633185)
(-5.16234 1.98206 0.589425)
(-5.25984 2.13417 0.389763)
(-5.22835 1.8737 0.0480804)
(-4.91338 1.29584 -0.0493103)
(-4.34572 0.74649 0.201324)
(-3.66736 0.481025 0.683003)
(-2.93785 0.627816 1.11481)
(-2.02116 1.2486 1.29115)
(-1.00909 2.12191 1.2013)
(0.141605 2.92232 0.799306)
(1.43763 3.45329 0.27371)
(2.90829 3.63059 -0.235948)
(4.64626 3.22061 -0.593352)
(6.47057 1.89862 -0.757508)
(7.19621 -0.00160905 -0.727522)
(6.43581 -1.98205 -0.344559)
(4.95521 -3.58741 0.354538)
(4.11061 -3.82709 0.710664)
(4.02374 -2.73849 0.372112)
(3.70411 -1.45586 -0.152974)
(3.20053 -0.674726 -0.51591)
(2.74486 -0.254461 -0.774142)
(2.47814 -0.0010049 -0.971485)
(2.38865 0.204835 -1.08163)
(2.46973 0.389193 -1.06598)
(2.68426 0.521539 -0.938878)
(2.9801 0.572691 -0.718985)
(3.30386 0.569786 -0.439875)
(3.55889 0.585391 -0.174573)
(3.82629 0.644281 -0.0339207)
(3.96482 0.714884 -0.014069)
(4.00374 0.783201 -0.0956138)
(4.02662 0.857666 -0.312846)
(3.7354 0.986359 -0.60223)
(3.26703 1.25391 -1.01765)
(2.53234 1.39322 -1.40851)
(1.57068 1.65918 -1.68319)
(1.45884 2.03798 -1.97629)
(2.00914 2.53438 -2.33759)
(2.83887 3.14681 -2.81074)
(3.39958 3.63979 -2.97594)
(3.77814 4.3629 -2.8023)
(3.95715 5.18541 -2.41669)
(4.96147 5.63461 -2.20814)
(6.62282 4.87633 -1.43474)
(7.43796 3.00911 -0.945011)
(7.18777 0.46755 -0.689598)
(6.785 -1.98472 -2.00876)
(8.81442 -3.96069 -4.11467)
(16.2094 -0.873596 -1.36478)
(19.0047 -1.58513 -1.25562)
(17.3046 -3.25878 -3.99968)
(16.7676 -14.926 -14.517)
(-4.12858 1.14064 1.71966)
(-4.60767 0.741436 0.962812)
(-4.47243 1.07797 1.1062)
(-4.24742 1.16101 0.597649)
(-3.62389 1.34872 0.632154)
(-2.99493 1.56058 0.491074)
(-2.2456 1.89001 0.479061)
(-1.57347 2.19907 0.334814)
(-0.869759 2.13584 -0.0119479)
(0.0147651 1.57396 -0.490312)
(0.996381 0.839275 -0.546337)
(2.11581 0.32691 -0.0461684)
(3.18934 -0.00372449 0.870108)
(4.14234 -0.0835009 1.67111)
(5.25111 0.333462 1.94605)
(6.96209 1.11565 1.5684)
(9.2367 1.80915 0.693941)
(11.5087 2.27318 -0.26081)
(13.1688 2.59103 -0.960361)
(14.298 2.78814 -1.38732)
(15.2299 2.34949 -1.46328)
(15.6565 1.21285 -1.0508)
(14.9682 -0.512441 -0.308796)
(13.1117 -2.13189 0.425824)
(11.7122 -2.61951 0.887704)
(11.6983 -2.18903 0.818119)
(11.6523 -1.42294 0.36678)
(11.2195 -0.967335 -0.0176845)
(10.5097 -0.732959 -0.430545)
(9.67971 -0.539157 -0.869798)
(8.95326 -0.277212 -1.13994)
(8.4737 0.0776442 -1.21371)
(8.26721 0.420822 -1.21906)
(8.27584 0.643813 -1.08731)
(8.49742 0.735433 -0.777601)
(8.7698 0.775752 -0.405848)
(9.14957 0.808985 -0.107392)
(9.47966 0.817755 0.0652662)
(9.85382 0.765612 0.0986895)
(10.2899 0.718211 0.0151737)
(10.6118 0.687296 -0.127127)
(10.795 0.705671 -0.377345)
(10.8594 0.799477 -0.702802)
(10.5033 0.963601 -0.964145)
(9.92285 1.36416 -1.45655)
(9.6073 1.85139 -2.11875)
(9.30161 2.58354 -2.93035)
(9.03806 3.40909 -3.68976)
(9.11861 4.19872 -4.20859)
(9.63323 5.02148 -4.50799)
(10.4333 5.71541 -4.39761)
(10.8961 5.91065 -3.31052)
(11.5923 5.02798 -2.44488)
(11.8931 3.48843 -2.40515)
(12.3791 -0.59321 -2.74536)
(8.88435 -6.03117 -4.35267)
(8.40159 -6.51434 -4.84436)
(16.3596 -2.61627 -2.09371)
(16.7175 -4.38429 -3.5132)
(15.0162 -15.5577 -10.7636)
(-3.73023 15.9723 3.77754)
(-4.56484 4.05888 0.984528)
(-2.94043 1.49414 1.1674)
(-1.76574 0.881168 0.474382)
(-0.192549 0.244858 0.592201)
(1.30824 0.0331404 0.424832)
(2.74474 -0.0942916 0.380755)
(4.20176 -0.101784 0.267988)
(5.60551 0.00476395 -0.00531564)
(6.45141 0.300974 -0.42625)
(6.32148 0.471535 -0.702279)
(6.28539 0.46517 -0.621326)
(7.29332 0.454061 -0.00797988)
(9.57537 0.530788 0.715185)
(12.5369 0.563444 0.967655)
(15.857 0.48385 0.646982)
(18.5694 0.481676 -0.0111896)
(19.9079 0.507121 -0.603511)
(20.2154 0.50855 -0.890502)
(20.1006 0.463673 -0.999148)
(19.4357 0.297497 -1.01416)
(18.4295 -0.0891076 -0.748728)
(17.9251 -0.460793 -0.164559)
(17.9856 -0.662395 0.291483)
(18.5172 -0.654491 0.392857)
(19.2993 -0.514553 0.309853)
(19.8053 -0.377729 0.268617)
(19.9119 -0.287842 0.286659)
(19.6983 -0.228059 0.315673)
(18.9352 -0.147002 0.247007)
(17.4031 0.083043 -0.0833347)
(15.8252 0.389002 -0.658244)
(14.9119 0.543642 -1.08224)
(14.652 0.497074 -1.1335)
(14.677 0.386801 -0.916906)
(14.9176 0.293746 -0.447739)
(15.3432 0.270828 -0.100346)
(15.8696 0.183014 0.0947255)
(16.5015 0.0858377 0.168653)
(17.2252 0.0316496 0.149651)
(17.9583 0.0236746 0.0718092)
(18.5306 0.0564243 -0.0476341)
(18.7974 0.0922889 -0.157454)
(18.8045 0.112726 -0.202559)
(18.693 0.163899 -0.279932)
(18.4551 0.287928 -0.509845)
(18.1823 0.481804 -0.900448)
(17.7737 0.771724 -1.40906)
(17.3653 1.18549 -2.04846)
(17.1701 1.74526 -2.81958)
(17.5777 2.47585 -3.51836)
(18.6892 3.05113 -3.50569)
(21.9988 2.65871 -3.18234)
(23.8641 1.34591 -2.31897)
(22.7859 0.0842283 -1.75849)
(15.8596 -2.55783 -2.08232)
(7.57697 -9.02197 -3.55524)
(12.7994 -7.70434 -2.902)
(14.1433 -7.81368 -3.44703)
(12.4903 -17.2326 -7.82989)
(-2.60204 19.4236 6.91299)
(-3.617 3.41686 1.83563)
(-1.33709 1.30154 0.978469)
(-0.0833805 1.41864 0.196941)
(2.51955 0.61489 0.127004)
(4.76886 0.100732 0.0398747)
(6.96511 -0.133988 0.179658)
(8.96561 -0.19825 0.348644)
(10.882 -0.116827 0.3447)
(12.383 0.0190967 0.0152617)
(12.5135 0.0411273 -0.321593)
(11.7585 0.227719 -0.687196)
(11.61 0.382257 -0.70143)
(12.7348 0.476213 -0.48138)
(15.3648 0.580552 -0.275205)
(18.1529 0.688164 -0.163451)
(20.2209 0.556976 -0.08537)
(21.1171 0.251302 -0.0826769)
(21.324 -0.0384197 -0.161902)
(21.2449 -0.195757 -0.258359)
(20.8449 -0.261781 -0.283683)
(20.041 -0.304778 -0.330168)
(19.5132 -0.3179 -0.367475)
(19.5166 -0.29128 -0.392452)
(20.0114 -0.178898 -0.510683)
(20.7717 -0.111898 -0.470952)
(21.2197 -0.105823 -0.250342)
(21.3271 -0.120244 -0.0334276)
(21.2386 -0.137662 0.129561)
(21.0857 -0.148512 0.257111)
(20.8533 -0.112562 0.289924)
(20.347 0.010626 0.104321)
(19.0289 0.221778 -0.451283)
(17.6007 0.396786 -0.864334)
(17.08 0.375706 -0.761353)
(17.1987 0.275257 -0.52094)
(17.8407 0.180162 -0.147784)
(18.655 0.083512 0.0684141)
(19.4865 -0.00430123 0.117269)
(20.2465 -0.0356646 0.0459858)
(20.8483 -0.0194407 -0.0047273)
(21.1852 0.00592135 -0.0159282)
(21.2374 0.0132509 -0.0162867)
(21.2018 0.0117326 0.000392293)
(21.0999 0.0208945 -0.0119927)
(20.911 0.051797 -0.121221)
(20.7241 0.122022 -0.371906)
(20.5238 0.217376 -0.680359)
(20.2835 0.365706 -1.04455)
(20.1202 0.708319 -1.54876)
(20.5218 1.20596 -2.11126)
(21.9323 1.46544 -2.36913)
(25.4185 0.996604 -1.97753)
(26.4127 0.13762 -1.08454)
(25.3391 -0.579872 -1.04647)
(18.6713 -2.79173 -1.53768)
(10.2482 -8.30331 -2.34655)
(13.8433 -7.91317 -2.57203)
(13.9977 -8.49347 -2.78601)
(12.5066 -18.0206 -5.74859)
(-1.90498 11.6801 4.89211)
(-1.64386 0.712789 1.53755)
(2.17942 -0.0766679 0.173856)
(2.78177 0.00872693 -0.511396)
(4.04894 0.00862336 -0.688561)
(5.23554 0.111762 -0.636474)
(6.94135 0.302224 -0.429065)
(9.45435 0.396353 -0.207654)
(12.5799 0.25779 -0.0424523)
(14.77 0.0976375 0.241299)
(14.6602 0.0612781 0.429255)
(12.7708 0.192331 0.412099)
(11.2522 0.367177 -0.134278)
(12.2897 0.346438 -0.924869)
(15.7597 0.24676 -1.39409)
(19.2258 0.140108 -1.10473)
(21.3882 0.0274468 -0.477663)
(22.2588 -0.171811 -0.15107)
(22.6483 -0.261821 -0.183847)
(22.7935 -0.194032 -0.253894)
(22.7531 -0.103451 -0.286158)
(22.4696 -0.241193 -0.405968)
(21.6558 -0.404069 -0.626274)
(20.8253 -0.247955 -0.982195)
(20.8003 -0.103665 -1.27226)
(21.2475 -0.0198596 -1.17478)
(21.8162 -0.0169159 -0.593652)
(21.9464 -0.0487852 -0.149142)
(21.8398 -0.0675065 0.0866468)
(21.7072 -0.0683668 0.195694)
(21.5538 -0.0435948 0.195441)
(21.2266 -0.045104 0.131304)
(20.3581 -0.105495 -0.00604479)
(18.4094 -0.13212 -0.259645)
(17.0185 -0.0376212 -0.473381)
(16.7936 0.0783405 -0.460263)
(17.0627 0.163293 -0.377218)
(17.9971 0.19092 -0.254723)
(19.1553 0.16356 -0.172857)
(20.1528 0.102295 -0.141736)
(20.8801 0.0605447 -0.0952715)
(21.399 0.0331175 -0.0382413)
(21.6452 0.00590398 0.0067344)
(21.7128 -0.0169505 0.0616157)
(21.6899 -0.0445769 0.108154)
(21.58 -0.0834205 0.129464)
(21.466 -0.1317 0.0563616)
(21.4191 -0.140362 -0.0553278)
(21.4697 -0.0465318 -0.110072)
(21.6201 0.203651 -0.33813)
(21.707 0.84582 -0.927881)
(22.5178 2.2363 -1.45001)
(24.899 2.71779 -1.01071)
(26.9555 0.960622 -0.442009)
(25.9317 -0.119909 -0.508233)
(15.971 -2.34222 0.227878)
(7.27835 -6.64669 -0.633074)
(14.0001 -7.12027 -1.82165)
(13.9505 -8.38186 -2.30652)
(11.9838 -17.7143 -4.07209)
(-3.58755 1.85123 2.92453)
(-3.17515 -0.208146 0.498975)
(-1.8698 0.141237 -0.315914)
(-1.88111 0.376095 -0.340171)
(-0.607326 0.748008 -0.244628)
(0.350992 1.20262 -0.0627855)
(1.53571 1.6465 0.106331)
(2.86371 1.81342 0.214276)
(4.49261 1.38559 0.418723)
(5.83656 0.725486 0.923003)
(6.40177 0.231845 1.302)
(6.83304 0.0478775 0.877607)
(8.49032 0.295072 -0.617371)
(11.3371 0.728563 -2.20685)
(14.3465 1.14173 -2.88351)
(17.5451 1.24362 -2.43682)
(20.4604 0.960547 -1.34764)
(22.2882 0.705679 -0.248938)
(23.9976 0.314848 0.236864)
(25.4321 -0.273818 0.0466794)
(26.0678 -0.663686 -0.16016)
(26.1227 -0.86987 -0.312544)
(25.8771 -0.927334 -0.490329)
(25.0607 -0.880817 -0.768195)
(21.4365 -0.864623 -1.87142)
(20.1481 -0.734383 -2.34704)
(20.1866 -0.420388 -1.51351)
(19.9377 -0.201066 -0.461099)
(19.4569 -0.151274 0.0565089)
(18.9331 -0.159221 0.280231)
(18.298 -0.195755 0.372884)
(17.5016 -0.308631 0.448751)
(16.5437 -0.536255 0.483054)
(15.5492 -0.679792 0.142562)
(15.0274 -0.419133 -0.276062)
(15.0565 -0.0098441 -0.349165)
(15.5071 0.291162 -0.319627)
(16.0885 0.468185 -0.295771)
(16.6299 0.50649 -0.255753)
(16.9875 0.495174 -0.230746)
(17.1381 0.365187 -0.213986)
(17.3358 0.187446 -0.146517)
(17.4317 0.079321 -0.0214159)
(17.5438 0.0545334 0.110241)
(17.619 0.0402215 0.244025)
(17.5628 0.037004 0.278404)
(17.4435 0.000359986 0.202325)
(17.4498 -0.0619606 0.131522)
(17.6219 -0.00683684 0.169913)
(17.7753 0.316117 0.133892)
(17.5402 1.24152 -0.136094)
(18.2968 3.43541 0.168394)
(21.0959 4.09767 0.915288)
(25.0517 1.58537 0.823678)
(24.4984 -2.32468 0.257114)
(12.8733 -5.87758 0.66996)
(3.45852 -5.68582 0.53302)
(14.1074 -4.38967 -0.625575)
(14.4362 -6.90711 -0.835266)
(13.1603 -18.2713 -1.55205)
(-3.68972 2.1444 -3.31504)
(-3.74583 0.00852618 -1.13143)
(-2.78483 0.679222 -0.165043)
(-2.76731 0.91034 0.0687077)
(-1.34741 1.35369 0.489564)
(-0.232369 1.79399 0.864583)
(1.20755 2.232 1.21629)
(2.92927 2.24716 1.62811)
(4.93228 1.7898 2.14855)
(6.83592 1.1333 2.32696)
(8.59624 0.440459 1.88745)
(11.1105 -0.0448208 0.859699)
(13.7415 -0.00312376 -0.293931)
(15.46 0.597132 -1.82565)
(16.6632 1.47385 -3.24544)
(18.2489 2.06106 -3.34292)
(20.6947 1.78769 -2.26161)
(23.2864 1.10241 -1.35108)
(25.9086 0.899491 -0.821025)
(27.7979 0.072108 -0.454555)
(28.1807 -0.815606 -0.392394)
(28.0106 -1.16971 -0.378535)
(27.6731 -1.37184 -0.39624)
(27.1114 -1.49096 -0.425513)
(25.8341 -1.52383 -0.558279)
(22.1381 -0.772949 -1.21786)
(20.9079 -0.203613 -0.992855)
(20.2316 -0.0436918 -0.105007)
(19.5125 -0.0265914 0.367374)
(18.8505 -0.0632277 0.479277)
(18.181 -0.128047 0.396129)
(17.4751 -0.260186 0.185804)
(16.7129 -0.518526 -0.219402)
(15.6538 -0.71581 -0.555583)
(14.8135 -0.474556 -0.46471)
(14.7103 -0.0452253 -0.262188)
(15.0784 0.227238 -0.196274)
(15.669 0.412896 -0.0836293)
(16.2811 0.447307 0.0818077)
(16.7757 0.351248 0.228281)
(16.9318 0.274635 0.260196)
(16.9894 0.245244 0.211461)
(16.9574 0.19604 0.197468)
(16.9652 0.124843 0.268269)
(16.9127 0.119474 0.461925)
(16.5978 0.217717 0.743662)
(15.6154 0.394338 0.968433)
(14.1272 0.764443 1.28817)
(13.4649 1.41699 2.05636)
(14.0009 1.97598 3.09178)
(14.7489 3.03087 3.52434)
(17.0607 3.99942 3.87188)
(22.3637 3.16985 4.67248)
(25.9258 0.375914 3.17746)
(24.5139 -2.54545 1.57616)
(12.2771 -5.90799 1.77819)
(2.16596 -5.8977 0.43503)
(13.8667 -4.85932 0.218992)
(14.5039 -7.08337 1.07719)
(13.3329 -18.2379 1.32988)
(-1.89798 12.0545 -5.15499)
(-1.8908 1.34575 -1.81747)
(0.474029 0.141918 -0.18279)
(0.232258 0.32755 0.336937)
(1.10562 0.74514 0.697703)
(2.27503 1.06343 1.11656)
(4.16375 1.2409 1.4337)
(6.89801 1.08315 1.68956)
(10.5902 0.657636 1.85461)
(15.2329 0.24235 1.52559)
(19.1305 -0.34136 0.805947)
(21.4334 -0.769992 0.141582)
(22.8776 -0.687831 -0.345962)
(23.7676 -0.335424 -0.851853)
(23.9248 0.515659 -1.68624)
(23.8091 1.68988 -2.47538)
(24.241 2.07909 -2.58602)
(26.1057 1.10264 -2.33652)
(27.7517 0.3965 -2.27098)
(29.4264 0.317409 -1.39683)
(30.6856 -0.633984 -0.206647)
(30.5674 -1.09874 0.0132535)
(30.153 -1.32175 -0.0406031)
(29.5651 -1.46231 -0.138516)
(28.6961 -1.59929 -0.203041)
(26.7656 -1.44945 -0.194987)
(23.6852 -0.524253 -0.501338)
(22.6354 -0.112681 -0.139202)
(22.1181 0.00918564 0.242642)
(21.8373 0.0224826 0.328863)
(21.6712 0.0195807 0.296888)
(21.4464 0.00594628 0.202407)
(20.8861 -0.0615426 0.0661725)
(19.2606 -0.110947 0.0411504)
(16.814 -0.0143045 0.085946)
(15.8923 0.102194 0.0379428)
(15.9467 0.155303 -0.0458712)
(16.5967 0.174804 -0.103748)
(17.7968 0.11603 -0.0436161)
(18.8441 0.0623338 0.0501121)
(19.7615 0.0145998 0.085951)
(20.4488 -0.0212406 0.0887988)
(20.6899 -0.0436461 0.115485)
(20.7431 -0.0516464 0.180075)
(20.793 -0.0503291 0.307988)
(20.713 -0.0414515 0.558024)
(20.3354 -0.0166551 1.0237)
(19.4522 0.0911703 1.50346)
(18.4838 0.393842 2.1879)
(17.8591 0.953007 3.40326)
(17.5604 1.99407 4.12069)
(18.2539 2.87978 4.24193)
(21.5617 2.45174 4.74167)
(24.0298 0.54228 3.12843)
(22.2866 -0.587863 1.91692)
(13.4986 -2.67599 1.55289)
(9.81864 -4.99641 0.946381)
(15.1049 -6.70005 0.889472)
(14.5521 -8.3708 2.45348)
(13.062 -17.3104 3.66053)
(-2.46025 20.0935 -7.07251)
(-3.79381 6.13726 -2.22501)
(-0.620745 2.24079 -0.55125)
(0.809935 1.10479 0.682423)
(3.24577 0.541091 1.21334)
(5.78461 0.347686 1.56357)
(9.07186 0.194244 1.71611)
(12.8022 -0.0431481 1.77606)
(16.4548 -0.334988 1.5996)
(19.2733 -0.977681 0.864348)
(21.3239 -1.55232 0.214084)
(22.798 -1.41409 -0.164236)
(23.9102 -1.09319 -0.405763)
(25.1254 -0.737808 -0.597114)
(25.9647 -0.543263 -0.720722)
(26.5766 -0.12764 -0.853367)
(27.443 0.621841 -0.865541)
(28.0714 0.646256 -0.782653)
(28.1578 0.122988 -1.22815)
(28.1569 -0.245798 -1.99354)
(28.5855 0.399547 -1.82105)
(30.746 0.942127 -1.2773)
(32.5816 -0.205647 -0.515489)
(32.439 -1.18472 -0.0393028)
(31.1967 -1.77452 0.362841)
(29.5057 -2.02562 0.746952)
(26.2978 -1.82727 1.14261)
(22.9245 -0.559999 0.908966)
(21.5874 -0.0397258 0.745929)
(20.7498 0.057001 0.594552)
(20.0821 0.084871 0.441204)
(19.0726 0.129745 0.358987)
(17.1905 0.224488 0.531312)
(15.0743 0.368585 0.862062)
(14.0754 0.276245 0.801738)
(14.0273 0.121895 0.413386)
(14.2389 0.128962 -0.0369566)
(14.493 0.179649 -0.193324)
(14.9533 0.157819 -0.0953314)
(15.3764 0.120644 0.0608454)
(15.6963 0.113466 0.184061)
(15.8629 0.154172 0.399628)
(15.7497 0.205006 0.637852)
(15.6529 0.260277 0.827016)
(15.8062 0.356956 1.16181)
(15.483 0.629927 1.86355)
(15.5051 1.01124 3.04622)
(15.6225 1.39107 3.95536)
(16.163 1.67238 4.62238)
(16.9463 2.19482 5.57425)
(17.5748 2.78153 5.84142)
(17.7839 2.48255 4.91069)
(20.6442 1.63902 4.48914)
(21.9987 0.297982 2.68126)
(20.0546 -0.544445 1.90072)
(12.9122 -3.83945 2.13647)
(12.225 -4.75068 1.31367)
(15.6625 -5.91605 1.57983)
(14.7503 -8.03298 2.50036)
(13.8233 -16.5781 5.66339)
(-3.79314 18.5507 -3.02696)
(-4.65031 5.30132 -0.860067)
(-2.58738 1.37525 -1.59808)
(-1.14466 0.458723 -0.984157)
(1.45206 -0.123649 -1.08988)
(4.14719 -0.335982 -1.1172)
(7.29324 -0.54836 -1.24092)
(11.0763 -0.704842 -1.2359)
(15.6102 -0.6552 -1.02636)
(19.1641 -0.825782 -0.731316)
(20.4618 -1.05096 -0.579064)
(20.4829 -0.943547 -0.603797)
(19.6418 -0.605616 -0.69838)
(16.2953 0.352668 -0.71993)
(15.4472 1.54831 -0.979173)
(16.0219 1.91735 -1.47908)
(19.0382 1.59143 -1.82489)
(23.3265 1.58284 -2.07546)
(26.038 1.24161 -2.01075)
(27.0847 -0.0506157 -1.68993)
(27.4078 -0.737688 -1.55906)
(27.4311 -0.858606 -1.49596)
(28.036 -0.613686 -0.810372)
(28.6377 -0.867808 0.302185)
(28.0787 -1.34082 1.10477)
(26.2315 -1.12675 1.92111)
(22.2672 -0.141597 2.80653)
(19.9478 0.286972 2.02325)
(19.0267 0.229549 1.1327)
(18.0591 0.208377 0.781009)
(16.7642 0.287621 0.822775)
(15.3662 0.437253 1.07641)
(13.9591 0.58561 1.29164)
(13.1078 0.532102 1.19639)
(12.8179 0.268844 0.808862)
(12.6945 0.174829 0.478095)
(12.4003 0.362587 0.379182)
(12.0828 0.467959 0.394091)
(12.0417 0.419009 0.483165)
(12.0076 0.389327 0.666047)
(11.9407 0.421198 0.84835)
(11.9779 0.517213 0.98508)
(12.0922 0.587949 1.10739)
(12.2154 0.679097 1.20704)
(12.0528 0.91877 1.4775)
(12.4286 1.14381 1.89302)
(13.2607 1.57845 2.6489)
(14.7209 2.04848 3.5082)
(15.8016 2.59199 4.51999)
(16.9496 3.16299 5.78774)
(18.2964 3.46387 6.47199)
(19.5636 2.87507 5.85235)
(21.8939 2.00218 4.5255)
(22.5585 0.600653 2.59894)
(20.0439 -1.33813 1.80894)
(12.5784 -4.02462 2.771)
(11.1063 -5.09813 2.1087)
(16.6749 -4.95001 2.12014)
(15.7599 -7.00313 2.98202)
(14.2759 -15.6084 7.64363)
(-4.39077 0.723455 -1.2161)
(-4.83563 0.439997 -0.680515)
(-4.55939 0.790506 -1.06854)
(-4.20481 0.820174 -0.872458)
(-3.47324 0.923994 -1.16587)
(-2.73058 1.1 -1.29369)
(-1.77417 1.36279 -1.59924)
(-0.72598 1.48374 -1.84385)
(0.742791 1.05587 -1.82615)
(2.39195 0.0386983 -1.20614)
(3.18547 -0.931112 -0.445724)
(2.96336 -1.26706 0.11287)
(2.33698 -0.722014 1.1032)
(2.52115 0.465602 1.01895)
(3.25524 1.28344 -0.589112)
(4.67141 1.3199 -2.38537)
(7.03858 0.654906 -3.34027)
(10.3092 -0.230873 -3.59273)
(13.8893 -1.11185 -3.27262)
(16.7478 -1.81771 -2.62158)
(18.5048 -1.96195 -2.0642)
(19.8224 -1.53397 -1.78412)
(20.8624 -0.869625 -1.0304)
(20.7984 -0.217419 0.345074)
(18.8667 0.705497 2.33795)
(15.287 1.64934 3.91043)
(13.1069 1.551 3.89743)
(12.4652 0.915738 2.59864)
(11.6772 0.434116 1.78995)
(10.8866 0.14569 1.61623)
(10.2311 -0.0468701 1.62203)
(9.71509 -0.218764 1.61013)
(9.41712 -0.379836 1.47592)
(9.3761 -0.414113 1.17059)
(9.41502 -0.161072 0.869604)
(9.38637 0.274821 0.716142)
(9.52452 0.511321 0.699244)
(9.90931 0.569491 0.715983)
(10.29 0.543318 0.753077)
(10.6115 0.523345 0.877052)
(10.7665 0.475611 1.04779)
(10.9489 0.44245 1.25748)
(10.9512 0.57043 1.53052)
(10.8733 0.908508 2.07265)
(10.4383 1.48589 2.78177)
(10.4531 2.14167 3.49601)
(11.0784 2.88351 4.43316)
(11.783 3.63648 5.28751)
(12.407 4.36674 5.91793)
(13.745 4.7764 6.36699)
(16.0969 4.92742 6.2767)
(18.1559 5.27218 4.88201)
(20.7712 4.33906 3.59492)
(21.9817 0.559186 2.82646)
(18.6216 -4.41889 3.01277)
(13.8314 -6.30267 3.75987)
(15.0429 -3.40277 2.30347)
(18.5696 -2.15102 1.86009)
(17.1098 -4.95214 3.15834)
(15.3483 -17.0609 11.306)
(-3.71441 1.69488 -1.77299)
(-4.79494 1.18047 -1.00413)
(-5.24246 0.90808 -1.02483)
(-5.42326 0.912002 -0.833049)
(-5.45134 0.927648 -0.962401)
(-5.45916 1.03157 -1.12014)