/*--------------------------------*- C++ -*----------------------------------*\
| =========                 |                                                 |
| \\      /  F ield         | OpenFOAM: The Open Source CFD Toolbox           |
|  \\    /   O peration     | Version:  2.1.1                                 |
|   \\  /    A nd           | Web:      www.OpenFOAM.org                      |
|    \\/     M anipulation  |                                                 |
\*---------------------------------------------------------------------------*/
FoamFile
{
    version     2.0;
    format      ascii;
    class       volVectorField;
    location    "0.0014";
    object      UFLUK;
}
// * * * * * * * * * * * * * * * * * * * * * * * * * * * * * * * * * * * * * //

dimensions      [0 1 -1 0 0 0 0];

internalField   nonuniform List<vector> 
36520
(
(-0.00011076 -0.884221 0.991718)
(-0.000144342 -0.100143 0.299445)
(9.83299e-06 0.16161 0.0108168)
(1.35575e-05 0.122542 -0.325059)
(1.92125e-05 0.104155 -0.491966)
(2.18163e-05 0.0928139 -0.641815)
(2.47115e-05 0.100059 -0.781135)
(2.85449e-05 0.104988 -0.886906)
(3.42019e-05 0.106365 -0.944636)
(4.29247e-05 0.0929368 -0.943878)
(5.52884e-05 0.0687375 -0.881199)
(7.43262e-05 0.0455102 -0.844329)
(0.000105075 0.0409493 -0.878267)
(0.000153428 0.0611107 -1.02648)
(0.000224976 0.102962 -1.24781)
(0.000322528 0.158093 -1.50355)
(0.000440403 0.208118 -1.68686)
(0.000559469 0.237021 -1.70785)
(0.000648112 0.227494 -1.49378)
(0.000669429 0.173031 -1.03441)
(0.000592588 0.0646576 -0.376872)
(0.000330696 -0.0573637 0.331256)
(-3.25066e-05 -0.170529 0.92517)
(-0.00027201 -0.239808 1.2555)
(-0.000308588 -0.241434 1.25409)
(-0.000189912 -0.188383 0.974379)
(-9.56707e-06 -0.127208 0.602684)
(0.000181476 -0.0835809 0.277286)
(0.000364769 -0.0567652 0.0394073)
(0.000535982 -0.0409548 -0.127046)
(0.000682015 -0.0267884 -0.246433)
(0.000760485 -0.014793 -0.338886)
(0.000735477 -0.00559927 -0.416119)
(0.000595319 0.000454477 -0.48823)
(0.000355849 0.00483659 -0.564337)
(5.33518e-05 0.00811795 -0.646953)
(-0.000268863 0.0113177 -0.739031)
(-0.000566845 0.0118742 -0.841991)
(-0.000802203 0.0079355 -0.953043)
(-0.000935053 0.00099426 -1.08114)
(-0.000922219 -0.00445601 -1.22682)
(-0.000731261 -0.00399785 -1.38682)
(-0.000407875 0.0120161 -1.54584)
(-0.000656814 0.0505212 -1.63557)
(-0.002079 0.120242 -1.57491)
(-0.00699865 0.119138 -1.33912)
(-0.0289779 -0.178409 -0.984265)
(-0.0512844 -0.316766 -0.45954)
(-0.037341 -0.270473 0.176348)
(-0.00879339 -0.174398 0.898267)
(0.00258674 0.101246 1.89667)
(0.00950904 0.24603 3.42218)
(0.0200048 0.202912 5.25298)
(0.117069 0.25444 7.31156)
(0.550084 0.804269 9.18325)
(0.449135 1.26543 12.4389)
(0.138738 1.1298 19.5815)
(-0.365903 -1.48596 33.3032)
(0.136088 -3.50717 53.7526)
(0.0159282 -13.1413 66.4058)
(-7.22845e-05 -0.733338 0.905327)
(-7.95498e-05 0.057031 -0.170981)
(2.25321e-05 0.316503 -0.25588)
(3.85373e-05 0.230373 -0.586013)
(4.22451e-05 0.222263 -0.62615)
(4.37334e-05 0.195962 -0.793364)
(5.35724e-05 0.230161 -0.886264)
(6.74729e-05 0.246844 -0.986502)
(8.61499e-05 0.261713 -1.02226)
(0.000108903 0.221306 -1.00157)
(0.000135788 0.161916 -0.908602)
(0.000173461 0.102268 -0.846597)
(0.00023073 0.0972392 -0.849339)
(0.000313255 0.154457 -0.987127)
(0.000419542 0.276778 -1.20147)
(0.000534283 0.429396 -1.46995)
(0.000624966 0.574502 -1.65636)
(0.000650596 0.655732 -1.68002)
(0.000587183 0.63545 -1.45004)
(0.000439873 0.481016 -0.954183)
(0.000228642 0.184561 -0.243264)
(8.76238e-06 -0.143125 0.526053)
(-0.00015269 -0.454478 1.1594)
(-0.000258937 -0.648771 1.50948)
(-0.000341324 -0.664905 1.49086)
(-0.000359282 -0.52808 1.16717)
(-0.00030628 -0.363122 0.75496)
(-0.000212498 -0.24603 0.412956)
(-0.000108802 -0.173464 0.170217)
(-2.68166e-05 -0.126806 0.00889107)
(2.26502e-05 -0.0871565 -0.108555)
(4.55493e-05 -0.0490483 -0.199824)
(4.3322e-05 -0.0172821 -0.275401)
(2.23933e-05 0.00898294 -0.344979)
(-1.16697e-05 0.0353778 -0.417006)
(-5.59299e-05 0.0610836 -0.493765)
(-0.000108987 0.0833985 -0.579881)
(-0.000171773 0.0969215 -0.672176)
(-0.000252372 0.0979969 -0.772632)
(-0.000448209 0.0922972 -0.888931)
(-0.00425305 0.0982399 -1.01187)
(-0.0162221 0.142184 -1.1247)
(-0.0241611 0.246584 -1.20523)
(-0.00979571 0.389297 -1.27697)
(0.00847411 0.537277 -1.42108)
(0.00460086 0.742661 -1.44362)
(0.000717547 0.995906 -1.25758)
(-0.00363554 1.28256 -0.907553)
(-0.0226177 1.48656 -0.433446)
(-0.0253241 1.76652 0.396394)
(-0.00759908 2.27582 1.38859)
(-0.000202284 2.68675 2.75718)
(0.000876195 2.65833 4.69975)
(0.000471766 2.32046 6.7287)
(0.00128108 2.72484 8.55255)
(0.0200928 4.54362 10.372)
(-1.48208 7.45853 14.2897)
(-1.63214 4.90591 20.2122)
(-0.549606 1.34462 25.6037)
(-0.0149554 -25.3126 32.6393)
(-4.20807e-05 -0.323108 0.876866)
(-4.31271e-05 0.311593 -0.251024)
(-3.20647e-06 0.506128 -0.37504)
(2.13919e-06 0.37998 -0.645842)
(-1.43093e-06 0.374745 -0.668219)
(-3.77131e-06 0.31825 -0.846884)
(-7.12335e-07 0.38026 -0.934841)
(5.28227e-06 0.397535 -1.06612)
(1.45192e-05 0.419039 -1.11609)
(2.58117e-05 0.348437 -1.08875)
(3.71159e-05 0.253559 -0.974245)
(4.88959e-05 0.170053 -0.880801)
(6.07685e-05 0.159912 -0.84873)
(6.85858e-05 0.241854 -0.993167)
(5.99125e-05 0.406511 -1.23418)
(1.44685e-05 0.624814 -1.55787)
(-7.95915e-05 0.838358 -1.80925)
(-0.000202962 0.972706 -1.88957)
(-0.000269347 0.956904 -1.68183)
(-0.000188722 0.737745 -1.14729)
(-6.72772e-05 0.281294 -0.335794)
(-1.85903e-05 -0.2137 0.535937)
(-4.29344e-05 -0.693348 1.25336)
(-1.75449e-05 -0.999144 1.68854)
(1.05701e-05 -1.01254 1.69846)
(4.48948e-06 -0.795969 1.31844)
(-4.29162e-07 -0.552674 0.830994)
(-3.00891e-06 -0.388618 0.444408)
(-2.9062e-06 -0.294894 0.181175)
(2.49174e-07 -0.237127 0.0117657)
(7.52732e-07 -0.188591 -0.107861)
(-2.83618e-07 -0.142202 -0.203897)
(-8.49009e-07 -0.102623 -0.283706)
(-1.04403e-06 -0.0686304 -0.357123)
(-1.08453e-06 -0.0338853 -0.433663)
(-1.11662e-06 -0.0021667 -0.519028)
(-5.36538e-06 0.0208792 -0.611699)
(-0.000133723 0.03323 -0.707355)
(-0.000637986 0.0255399 -0.810242)
(-0.00171115 0.00902689 -0.929178)
(-0.00330514 0.00232631 -1.06575)
(-0.00690353 0.0330178 -1.21186)
(-0.0372008 0.129799 -1.34009)
(-0.194989 0.248594 -1.46527)
(-0.383303 0.443824 -1.58457)
(-0.355033 0.765123 -1.76036)
(-0.127705 1.1668 -1.84558)
(-0.0271018 1.64683 -1.75704)
(-0.104667 2.03534 -1.35965)
(-0.236763 2.49617 -0.44349)
(-0.257758 2.92637 0.748693)
(-0.165992 2.98308 2.20593)
(-0.0796865 2.44941 3.75656)
(0.0241986 1.78387 5.64326)
(0.0474623 2.80811 7.52729)
(0.0142444 4.27397 9.34376)
(0.000344144 5.97877 10.1973)
(-1.79425 -0.56618 12.1736)
(-1.4028 -12.9005 15.498)
(-0.0577076 -32.9893 22.0733)
(-5.05992e-05 0.231575 0.882074)
(-4.67863e-05 0.541488 -0.35351)
(-1.7606e-05 0.605779 -0.472316)
(-1.48003e-05 0.452396 -0.715396)
(-1.66909e-05 0.447367 -0.78269)
(-2.30294e-05 0.394187 -0.946966)
(-3.6394e-05 0.468577 -1.06691)
(-4.25977e-05 0.499893 -1.21315)
(-2.08278e-05 0.522789 -1.2742)
(-7.67667e-08 0.421977 -1.21684)
(-1.00226e-07 0.301776 -1.03758)
(-1.30883e-07 0.219795 -0.872043)
(-1.71048e-07 0.242174 -0.80082)
(-2.2571e-07 0.368453 -0.970825)
(-3.04725e-07 0.581032 -1.3067)
(-4.20184e-07 0.842283 -1.75303)
(-1.00872e-06 1.08358 -2.17869)
(-0.00289565 1.1606 -2.58477)
(-0.0108594 0.962603 -2.89591)
(-0.0171191 0.513439 -2.75128)
(-0.0182213 -0.155003 -2.06049)
(-0.022056 -0.794185 -1.06065)
(-0.0249866 -1.27705 0.0800552)
(-0.0127835 -1.51973 1.06619)
(-0.000751178 -1.4274 1.44669)
(0.0013698 -1.10116 1.13338)
(0.000168723 -0.783483 0.611956)
(-0.0006391 -0.586614 0.207452)
(-0.000980805 -0.476819 -0.049804)
(-0.000909676 -0.402128 -0.209)
(-0.000699399 -0.334439 -0.327789)
(-0.000502741 -0.269674 -0.4314)
(-0.000307669 -0.213061 -0.524374)
(-0.000101927 -0.165188 -0.61358)
(7.32294e-05 -0.121931 -0.71008)
(0.000404633 -0.0802315 -0.815432)
(0.00104893 -0.0491814 -0.92575)
(0.00175526 -0.0414246 -1.03655)
(0.00231798 -0.0701127 -1.14525)
(0.00250187 -0.120228 -1.25838)
(0.0018064 -0.158551 -1.38054)
(0.000813881 -0.155938 -1.51329)
(-0.00727694 -0.0551382 -1.65725)
(-0.0570757 0.146134 -1.82596)
(-0.208215 0.261225 -1.90007)
(-0.205682 0.38186 -1.78264)
(-0.103509 0.702556 -1.77398)
(-0.0473713 1.23755 -1.70177)
(-0.0356787 1.93335 -1.473)
(-0.104867 2.64294 -1.19953)
(-0.434501 3.12037 -0.707772)
(-0.917274 3.12581 0.754756)
(-0.666352 1.6892 2.44034)
(-0.331497 -0.0051772 3.30115)
(-0.0298382 -0.481859 3.43066)
(0.163942 0.205023 3.98881)
(0.148857 1.92339 5.03455)
(0.0779699 0.27918 4.3781)
(-1.59081 -10.1705 4.4977)
(-0.116472 -31.8914 19.4195)
(-6.24154e-05 0.880318 0.494781)
(-6.0641e-05 0.85212 -0.478997)
(-3.30154e-05 0.830555 -0.538813)
(-9.69534e-06 0.575949 -0.760695)
(-1.16422e-05 0.570185 -0.848753)
(-0.000122297 0.525226 -1.01456)
(-0.000298549 0.583155 -1.19981)
(-0.000467895 0.614735 -1.42634)
(-0.000802281 0.605169 -1.55374)
(-0.00123045 0.465898 -1.52683)
(-0.00140364 0.325737 -1.33586)
(-0.00102977 0.251195 -1.21227)
(-0.000240602 0.286981 -1.3424)
(0.000525028 0.371558 -1.87845)
(0.000815917 0.464151 -2.74554)
(-0.00604235 0.514527 -3.84017)
(-0.0224982 0.490692 -4.92387)
(-0.0428951 0.360881 -5.78306)
(-0.0582573 0.0834418 -6.25349)
(-0.0597143 -0.380306 -6.06159)
(-0.0485291 -1.04214 -5.08646)
(-0.0367332 -1.68031 -3.57504)
(-0.0491958 -1.9925 -1.84964)
(-0.087619 -2.01412 -0.266784)
(-0.0531584 -1.88668 0.549848)
(-0.00206548 -1.54974 0.35442)
(0.00497102 -1.17966 -0.192852)
(-0.000568198 -0.924465 -0.62553)
(-0.0106757 -0.829321 -0.872049)
(-0.0203713 -0.762395 -1.00756)
(-0.0191576 -0.701124 -1.09881)
(-0.0101148 -0.638669 -1.18766)
(-0.0019733 -0.5848 -1.28268)
(0.00454512 -0.532518 -1.36926)
(0.0112361 -0.478041 -1.45467)
(0.0140887 -0.424931 -1.56813)
(0.0147074 -0.391651 -1.70688)
(0.0161701 -0.398067 -1.84964)
(0.0180203 -0.461558 -1.99285)
(0.0178318 -0.584088 -2.17058)
(0.0119033 -0.700951 -2.32594)
(0.00402186 -0.790597 -2.46454)
(-0.00211964 -0.789235 -2.61749)
(-0.00540274 -0.648132 -2.87074)
(-0.0121364 -0.524852 -3.26401)
(-0.031404 -0.349404 -3.61116)
(-0.0647136 -0.124299 -3.8222)
(-0.05806 0.255803 -3.85582)
(-0.0541679 0.927962 -4.05145)
(-0.162046 1.65636 -4.36446)
(-0.433226 2.34238 -4.0576)
(-1.06606 2.77183 -2.49803)
(-2.24474 2.66004 0.357037)
(-2.5034 0.796353 2.3537)
(-1.19779 -1.38519 2.70555)
(-0.085521 -2.11493 2.25495)
(0.10225 -1.3158 1.7055)
(0.068499 -1.86833 1.45949)
(-1.73363 -7.37556 4.95953)
(-0.434803 -27.453 17.8208)
(-6.12201e-05 1.21015 0.226491)
(-0.000422533 0.967316 -0.648974)
(-0.00144429 0.879127 -0.765723)
(-0.00271115 0.572161 -0.98835)
(-0.00512818 0.542648 -1.20995)
(-0.00779685 0.482394 -1.50103)
(-0.00846008 0.522789 -1.87094)
(-0.00864366 0.512437 -2.33339)
(-0.00966919 0.402601 -2.69525)
(-0.0104582 0.0906003 -2.87758)
(-0.019204 -0.130588 -2.80738)
(-0.0462849 -0.192595 -2.76058)
(-0.0876254 -0.16699 -2.93326)
(-0.152212 -0.0944827 -3.53997)
(-0.254571 -0.0738736 -4.57915)
(-0.391394 -0.219095 -5.957)
(-0.5593 -0.627382 -7.3639)
(-0.812667 -1.44402 -8.44864)
(-1.09939 -2.97826 -8.66319)
(-0.929504 -5.37783 -7.06367)
(-0.344017 -7.13472 -4.46486)
(0.0416857 -7.79129 -1.96798)
(0.247823 -7.55024 0.168085)
(0.330465 -6.6381 1.49016)
(0.303111 -4.35486 0.00754848)
(-0.128226 -2.60675 -1.19254)
(-0.0881425 -2.48237 -1.65905)
(-0.0712803 -2.45536 -1.95918)
(-0.072803 -2.33487 -2.21296)
(-0.142071 -2.02357 -2.47913)
(-0.229229 -1.76335 -2.63023)
(-0.249507 -1.57129 -2.74508)
(-0.17949 -1.43955 -2.86717)
(-0.0693872 -1.33493 -2.9822)
(0.0241935 -1.24493 -3.07676)
(0.0890262 -1.20197 -3.19687)
(0.0949325 -1.30703 -3.33042)
(0.0915512 -1.31581 -3.51355)
(0.089355 -1.50788 -3.66477)
(0.0813423 -1.79937 -3.80402)
(0.0602473 -2.08096 -3.86043)
(0.0182463 -2.20054 -3.86878)
(-0.000411878 -2.0086 -3.87467)
(0.00565655 -1.62301 -3.93568)
(0.0060614 -1.43485 -4.18572)
(-0.00793828 -1.38099 -4.54542)
(-0.045343 -1.33238 -5.03592)
(-0.0748608 -1.09023 -5.6435)
(-0.101745 -0.734957 -6.38752)
(-0.233816 -0.271736 -7.09692)
(-0.381453 0.337296 -7.21866)
(-0.201854 0.732449 -6.21248)
(-0.579097 0.131828 -3.40882)
(-1.74629 -0.32683 1.09513)
(-1.52921 -0.229168 3.05051)
(-1.73376 -0.0413134 3.33518)
(-0.39293 -1.52806 2.19416)
(-0.219485 -2.36144 1.46853)
(-1.16175 -5.76759 3.36927)
(-0.897473 -21.5067 16.2262)
(-0.020587 1.9512 -1.82866)
(-0.0465948 1.17439 -0.967783)
(-0.0917956 1.12125 -1.0382)
(-0.126908 0.914497 -1.23199)
(-0.158017 1.06763 -1.49943)
(-0.25649 1.34299 -1.36096)
(-0.457552 1.60603 -1.71057)
(-0.823501 1.87637 -2.07851)
(-1.42271 2.0002 -2.3049)
(-1.91042 2.07037 -2.17363)
(-2.27629 2.40448 -1.73867)
(-0.0818207 -1.54449 -4.07195)
(-0.0633824 -2.79828 -2.91946)
(-0.138022 -1.98263 -3.996)
(-0.346331 -0.795249 -5.84688)
(-0.573612 -0.913019 -7.53612)
(-0.673888 -1.73517 -9.25034)
(-0.691943 -3.55762 -10.1652)
(-0.633082 -7.0131 -8.55239)
(-0.463344 -9.4488 -4.15428)
(-0.222069 -10.1206 -0.98592)
(-0.0469205 -10.2127 1.30018)
(0.0914772 -9.69513 3.14468)
(0.197397 -8.62861 4.59174)
(0.396594 -7.63455 4.38991)
(0.474155 -4.54131 -2.52701)
(-0.180283 -1.37655 -4.74734)
(-0.185263 -3.48522 -4.395)
(-0.184938 -3.89762 -4.33949)
(-0.267892 -3.81209 -4.47015)
(-0.466072 -3.29769 -4.7603)
(-0.598857 -2.72631 -4.99248)
(-0.593043 -2.08691 -5.18382)
(-0.453487 -1.52108 -5.28158)
(-0.379032 -1.46038 -5.26264)
(-0.350795 -4.31399 -3.14752)
(-0.26484 -4.19253 -3.48088)
(-0.127328 -2.52699 -5.15173)
(-0.0598337 -1.70525 -5.61109)
(0.123494 -1.33113 -5.80806)
(0.238059 -1.48192 -5.87434)
(-0.0273483 -2.17717 -5.91846)
(-0.223632 -2.52063 -5.85107)
(-0.0550739 -2.46387 -5.6835)
(0.208771 -2.52005 -5.54375)
(0.215089 -2.90949 -5.64786)
(0.0517529 -3.37293 -5.98889)
(-0.0716004 -3.47442 -6.20146)
(-0.180124 -3.20453 -6.54868)
(-0.555146 -2.77199 -6.91126)
(-1.71976 -2.6046 -6.15965)
(-1.46848 -1.83334 -5.35478)
(-1.00594 -0.322635 -3.74288)
(0.415013 0.369744 0.0199784)
(0.11935 -1.08643 3.03613)
(-0.508055 -3.26033 5.03627)
(-1.29565 -0.793704 1.36433)
(-1.56862 -1.37824 1.3185)
(-0.716417 -4.61711 2.52521)
(-1.11096 -15.1534 14.8261)
(-0.0655196 1.72645 -1.13335)
(-0.185981 1.04736 -0.697442)
(-0.281838 1.52081 -0.97197)
(-0.144133 1.54446 -0.98793)
(0.229221 2.00406 -1.10158)
(0.00548066 -1.62197 -1.03865)
(0.00127135 -2.14273 -1.24927)
(0.00158584 -2.87018 -1.40944)
(0.0019192 -3.82185 -1.2182)
(0.00223576 -4.90101 -0.499962)
(-0.00849892 -5.41622 0.391932)
(-0.0153081 -5.34089 1.00169)
(-0.00826016 -4.84912 1.38592)
(-0.00395057 -4.47202 1.45045)
(-0.055934 -4.71344 0.369242)
(-0.393964 -1.28309 -7.38908)
(-0.232934 -0.301829 -9.10604)
(-0.111734 -1.23787 -10.0003)
(-0.0575344 -2.27043 -10.6402)
(-0.0315912 -4.41118 -10.7548)
(-0.0227382 -9.25661 -6.27736)
(-0.0221905 -9.95203 -0.444147)
(0.013164 -9.23765 2.16959)
(0.104316 -8.48328 3.76292)
(0.282811 -8.02569 2.96304)
(0.345246 -3.78753 -5.14995)
(-0.107899 -0.33079 -6.83619)
(-0.175348 -0.53149 -6.92409)
(-0.157586 -0.793261 -6.76214)
(-0.169482 -1.19717 -6.54801)
(-0.236477 -1.79356 -6.42569)
(-0.434855 -2.36598 -6.41501)
(-0.580852 -2.22204 -6.55951)
(-0.34721 -1.56887 -6.70577)
(-0.0404305 -1.36329 -6.70341)
(-0.695988 -1.37997 -6.63413)
(-4.37631 -1.20015 -5.84715)
(-4.21064 -1.13827 -5.98525)
(-0.571989 -0.999208 -6.73777)
(1.71256 -0.685698 -6.66868)
(1.11521 -0.106087 -6.70335)
(-0.24018 -0.245554 -6.63412)
(-0.351998 -1.02321 -6.5364)
(-0.122628 -1.44518 -6.41244)
(0.0502779 -1.83559 -6.34021)
(0.0196282 -2.22511 -6.27877)
(-0.0613624 -2.75536 -6.47468)
(-0.0365806 -3.30337 -6.81913)
(0.0750266 -3.52481 -7.17531)
(0.132296 -3.02996 -7.38961)
(-0.292305 -1.85258 -6.23397)
(-0.218734 -1.93817 -4.19415)
(0.0431436 -1.60305 -3.22313)
(0.213295 -1.67428 -1.77671)
(0.212827 -1.98958 2.21668)
(-1.85246 -3.64823 6.63701)
(-1.73353 -4.67692 6.67994)
(-1.60533 -2.19287 2.70809)
(-1.03461 -4.22181 3.89985)
(-1.07506 -11.3859 15.6465)
(0.00075833 3.06331 -16.2416)
(0.00124232 -0.0429283 -4.49969)
(0.00194696 -0.53223 -2.21019)
(0.00260911 -1.84013 -1.84199)
(0.00308372 -2.15841 -1.38738)
(0.00369531 -2.88415 -1.39281)
(0.00405243 -3.25015 -1.39831)
(0.0034949 -3.63578 -1.51116)
(0.0032645 -4.13934 -1.72216)
(0.00509539 -4.74255 -2.11115)
(0.00564045 -5.15733 -2.37744)
(0.0029183 -5.20485 -2.45377)
(-0.0244231 -4.76922 -2.55779)
(-0.153981 -4.22297 -2.79317)
(-0.373449 -4.16729 -2.91882)
(-0.46009 -4.72768 -2.84698)
(-0.334719 -5.62005 -2.85754)
(-0.150724 -6.44871 -2.94073)
(-0.0513938 -6.92082 -3.07378)
(0.026174 -7.15704 -3.20401)
(0.128962 -7.24785 -3.22352)
(0.213743 -7.05231 -2.94469)
(0.124905 -6.63112 -2.54634)
(0.0566564 -6.33221 -2.38254)
(0.0444935 -6.31597 -2.41573)
(0.0428154 -6.4404 -2.53623)
(0.0380639 -6.52225 -2.64061)
(0.0314317 -6.5487 -2.69656)
(0.0254032 -6.57076 -2.71609)
(0.0165821 -6.66145 -2.73236)
(0.00725111 -6.88631 -2.84464)
(-0.005996 -7.20202 -3.01149)
(-0.0494925 -7.31272 -3.10662)
(-0.0597406 -7.0984 -3.04893)
(-0.0260259 -6.66476 -2.9699)
(-0.0279393 -6.02851 -2.91534)
(-0.0606497 -5.59643 -2.85715)
(-0.0722567 -5.43084 -2.58459)
(-0.0527061 -5.33367 -2.44627)
(-0.0339572 -5.3164 -2.36414)
(-0.0245442 -5.3585 -2.30859)
(-0.017864 -5.4468 -2.26466)
(-0.0127651 -5.48911 -2.22173)
(-0.0103196 -5.41733 -2.15891)
(-0.00802725 -5.31145 -2.0975)
(-0.00323067 -5.27685 -2.07167)
(0.0047542 -5.34475 -2.09149)
(0.0163172 -5.49384 -2.19917)
(0.0285437 -5.75471 -2.43418)
(0.0321468 -6.16093 -2.83263)
(0.0184172 -6.52933 -3.44182)
(0.00429269 -6.23448 -3.93617)
(0.000401502 -5.72067 -3.50838)
(-0.000947375 -4.72581 -2.19185)
(-0.0152876 -3.93318 -0.900878)
(-0.180823 -3.87708 1.86605)
(-0.925539 -4.74806 8.54567)
(-1.05377 -3.7191 7.37243)
(-1.05454 -4.17439 7.66665)
(-0.851028 -8.50596 17.2384)
(0.000597969 6.25442 -19.564)
(0.000966577 0.969659 -3.63523)
(0.00158927 -0.612736 -1.68346)
(0.00200811 -1.87101 -1.90155)
(0.00178663 -2.26773 -1.17739)
(0.000243497 -2.62541 -0.718165)
(-0.00240407 -2.68383 -0.521373)
(-0.00705738 -2.67691 -0.48686)
(-0.00926972 -2.83757 -0.5985)
(9.93296e-05 -3.36042 -0.779158)
(0.00863704 -3.88856 -0.852036)
(0.00953413 -4.37934 -1.08317)
(0.0029797 -4.47568 -1.27836)
(-0.0218494 -4.35399 -1.39978)
(-0.132006 -4.27823 -1.47503)
(-0.336222 -4.29847 -1.57108)
(-0.489727 -4.36547 -1.59924)
(-0.342625 -4.55832 -1.50162)
(-0.122981 -4.83473 -1.3382)
(-0.0175655 -5.10133 -1.28624)
(0.0852675 -5.27221 -1.32117)
(0.176183 -5.44615 -1.30084)
(0.144308 -5.61648 -1.15139)
(0.0443271 -5.73627 -1.14439)
(0.0157801 -5.94201 -1.27721)
(0.0103571 -6.01919 -1.35973)
(0.0100216 -5.95553 -1.38368)
(0.0147852 -5.92077 -1.39646)
(0.0267646 -5.94071 -1.41048)
(0.0418129 -5.98074 -1.42437)
(0.0436367 -6.09113 -1.47018)
(0.025486 -6.37515 -1.59097)
(0.00535409 -6.89357 -1.77989)
(-0.0128644 -7.09889 -1.90799)
(-0.0501776 -6.69665 -1.85111)
(-0.0615272 -6.17246 -1.69382)
(-0.0667172 -5.57713 -1.52787)
(-0.0722572 -5.21041 -1.37147)
(-0.0552212 -5.06221 -1.25533)
(-0.0268805 -5.06495 -1.22109)
(-0.00781191 -5.06342 -1.24265)
(0.000341295 -5.02757 -1.26586)
(0.00269305 -4.97223 -1.25746)
(0.00310486 -4.86259 -1.22504)
(0.00310851 -4.74153 -1.18816)
(0.00405236 -4.67539 -1.15607)
(0.00717358 -4.70069 -1.1487)
(0.0119173 -4.7351 -1.1538)
(0.0161979 -4.76629 -1.19817)
(0.0137021 -4.87971 -1.42705)
(0.00536667 -5.0246 -1.81317)
(-0.00272813 -4.89089 -1.97618)
(-0.00577042 -4.19087 -1.44407)
(-0.00275415 -3.05648 -0.543474)
(-0.000907041 -2.76024 0.205755)
(-0.0795014 -2.97588 2.46536)
(-0.671053 -3.39518 8.0624)
(-0.797419 -3.33392 7.69032)
(-0.845022 -3.48527 8.36327)
(-0.759845 -6.36524 17.787)
(0.000177027 4.3605 -11.7827)
(0.000284029 0.846176 -0.871092)
(0.000635092 -1.64746 -0.283337)
(0.000857059 -2.98539 -0.478022)
(0.000938737 -3.45796 -0.524314)
(0.00100075 -3.63298 -0.66132)
(0.00104271 -3.5829 -0.873022)
(0.0010245 -3.52631 -0.992568)
(-0.000460025 -3.58878 -0.901021)
(0.00111365 -3.58364 -0.802762)
(0.0019959 -3.60157 -0.817243)
(0.0013356 -3.65179 -0.975529)
(-0.00057294 -4.15285 -1.1615)
(-0.0590004 -4.98103 -0.96571)
(-3.21232 -1.8724 3.1261)
(-4.58919 -3.329 1.17384)
(-2.54555 -4.62682 -0.234212)
(-1.00341 -4.8315 -0.509384)
(-0.215952 -5.07495 -0.681506)
(-0.0256714 -5.24545 -1.15869)
(0.119008 -5.30148 -1.72904)
(0.31422 -5.36157 -2.12084)
(0.360756 -5.7159 -1.97004)
(0.0939588 -6.5001 -1.17276)
(0.0180007 -6.9705 -1.16421)
(0.0073139 -7.02646 -1.27977)
(0.00310595 -6.61063 -1.29882)
(0.00289808 -6.3369 -1.28834)
(0.00778603 -6.2747 -1.30954)
(0.0160464 -6.34008 -1.36386)
(0.0193099 -6.51152 -1.45185)
(0.0118889 -6.73213 -1.49068)
(-0.00020571 -6.9693 -1.43377)
(-0.0224295 -7.18248 -1.3912)
(-0.0703618 -7.14018 -1.63613)
(0.042577 -6.79278 -1.91481)
(0.11513 -6.7115 -0.841148)
(0.034727 -6.44822 -0.618123)
(-0.00440779 -6.23682 -1.00915)
(-0.00936878 -6.14132 -1.21193)
(-0.00708575 -6.05442 -1.34819)
(-0.00330033 -5.95453 -1.41652)
(-0.00186984 -5.86315 -1.38105)
(-0.00197693 -5.72111 -1.32948)
(-0.00209685 -5.55057 -1.23756)
(-0.00188821 -5.35774 -1.14653)
(-9.10751e-05 -5.19035 -1.03446)
(0.00354503 -4.9866 -0.934809)
(0.0101734 -4.63178 -0.914227)
(0.0148504 -4.35949 -1.03638)
(0.00805741 -4.36957 -1.53272)
(-0.0165086 -4.29849 -2.7831)
(-0.0188562 -3.41371 -3.16958)
(0.00456995 -2.56352 -1.33228)
(0.0200052 -2.37566 -0.202298)
(-0.153959 -1.38175 2.02147)
(-0.904725 -1.77586 6.42203)
(-0.824574 -2.76837 6.94944)
(-0.920159 -3.13325 8.30756)
(-1.28447 -4.05882 17.6641)
(-0.0107751 3.3463 -2.06332)
(-0.664843 0.554067 -0.527254)
(-0.146465 -1.37714 -0.935754)
(-0.252383 -1.29211 -1.72617)
(0.165783 -1.33931 -2.39026)
(0.0609966 -2.28596 -2.60812)
(0.000366327 -2.64221 -3.07927)
(6.50154e-05 -3.03305 -3.34541)
(-0.00199277 -3.25656 -3.04081)
(-0.0023658 -3.04978 -2.4944)
(-0.00335743 -2.75635 -2.09464)
(-0.00418085 -3.11432 -1.95328)
(-0.0091522 -4.10874 -2.78865)
(-0.187098 -2.13318 -4.93716)
(-1.78689 -2.89181 -5.32232)
(-1.09838 -5.28177 2.31571)
(-0.865247 -3.85057 3.20112)
(-2.26361 -2.38167 3.57209)
(-4.92702 -1.45089 2.97275)
(-5.57945 -3.31033 0.919423)
(-0.252403 -4.59711 -2.43216)
(0.317223 -4.66029 -2.65398)
(0.523482 -4.94001 -2.86119)
(0.701507 -5.43377 -3.10685)
(0.757735 -6.97776 -2.87593)
(0.029498 -8.47039 -1.41312)
(-0.0570289 -7.89231 -1.82063)
(-0.137296 -7.05276 -2.20176)
(-0.100201 -6.70866 -2.36805)
(0.0225441 -6.57692 -2.5987)
(0.165166 -6.50427 -2.87786)
(0.321254 -6.43707 -2.93492)
(-0.446173 -6.78865 -1.59151)
(-8.59193 -3.35275 3.78146)
(-9.57023 -0.0937997 -2.36593)
(6.31912 -2.59925 -4.56453)
(2.81443 -5.85545 -3.31583)
(0.696611 -6.5215 -2.50536)
(0.0361914 -6.66184 -2.03864)
(-1.47478 -6.62258 -1.93531)
(-6.81886 -4.76268 -1.55935)
(-7.79406 3.57069 -1.59867)
(1.05133 -1.28418 -6.47173)
(3.77391 -3.58971 -4.7312)
(3.32687 -5.61264 -1.20493)
(-0.180585 -5.77019 1.11147)
(-0.472061 -5.36538 1.66914)
(0.904627 -5.16616 0.947281)
(0.970085 -4.39389 -1.26956)
(0.25274 -3.64347 -1.66619)
(-0.456 -2.65432 -2.82601)
(-0.785576 -0.716304 -5.03394)
(-0.00210028 -0.730995 -4.90829)
(0.784178 -0.775112 -1.08307)
(0.598361 -1.351 3.08117)
(-1.98986 -0.36914 5.60092)
(-1.7938 0.0377806 5.5385)
(-1.28706 -1.48042 4.17774)
(-1.19319 -1.75875 6.85912)
(-1.32656 -1.92401 18.2725)
(-0.352553 -2.86814 -2.03766)
(-1.07949 -0.752032 0.0113661)
(-0.427479 -1.17587 -0.021422)
(-0.345758 -0.691392 -2.14935)
(-0.356679 -0.274191 -2.86409)
(-0.362043 -1.23359 -2.84653)
(-0.21311 -1.73103 -2.3143)
(-0.0343731 -1.7962 -1.50539)
(0.0146565 -1.69922 -0.512942)
(0.00271825 -1.98228 0.3155)
(-0.0253124 -2.88433 0.128765)
(-0.0587022 -2.99567 -2.62458)
(-0.0392706 -1.78052 -4.08341)
(-0.0126267 -3.04624 -4.59329)
(0.0290571 -4.41709 -5.50266)
(0.0623094 -4.75079 -6.20874)
(-1.04906 -6.37161 -0.662114)
(-2.24912 -4.41401 1.79768)
(-3.35734 -2.48166 2.63675)
(-3.20167 -2.3518 3.40659)
(-1.85101 -4.06747 3.29178)
(-0.511122 -5.19954 1.31025)
(0.929039 -5.06594 -0.784817)
(2.17103 -4.39058 -2.29422)
(3.84389 -3.79165 -3.21606)
(4.71339 -6.57913 -2.005)
(0.0850385 -7.6093 2.64623)
(-0.0115298 -6.85251 2.71569)
(-0.0651113 -6.49827 2.81142)
(-0.0950359 -6.50785 2.89389)
(-0.0119831 -6.72678 2.90061)
(0.247891 -7.08826 2.76608)
(0.618461 -7.62733 2.44998)
(-8.64364 -4.81526 2.94582)
(-6.8254 0.316929 5.81877)
(0.215898 -2.00602 6.4936)
(2.85374 -6.4882 0.937152)
(1.6611 -6.48021 0.789499)
(0.549771 -6.40028 0.81019)
(0.0151525 -6.3508 0.773504)
(-0.638541 -5.61497 2.92061)
(-3.32788 -3.20833 4.96308)
(-3.92305 -2.54579 5.15648)
(2.91035 -4.04616 4.35308)
(4.07141 -5.2967 0.746374)
(1.29769 -5.39463 0.609214)
(-0.891974 -4.70704 0.972973)
(-2.79093 -3.48027 -1.22953)
(-0.549839 -0.686974 -4.11178)
(0.703461 0.46436 -3.5014)
(-0.327754 1.20881 -3.75002)
(-0.209744 2.87538 -5.23521)
(0.534222 4.52771 -4.48691)
(0.734648 2.30666 -1.688)
(0.311347 -0.145827 1.59819)
(-2.04699 0.577141 5.7962)
(-1.85516 -0.12977 5.97762)
(-1.2988 -0.708129 5.02412)
(-1.21069 0.0982004 7.12221)
(-1.3443 0.93252 18.2363)
(-8.20342e-05 -5.72657 -11.944)
(-0.000141577 -2.62923 -1.17066)
(-0.00193162 -2.21372 0.231957)
(-0.00355438 -2.20955 0.11266)
(-0.00352483 -1.90039 -0.314522)
(-0.00625368 -1.71959 -0.609084)
(-0.0124687 -1.68863 -0.758582)
(-0.0225568 -1.76224 -0.562298)
(-0.0344853 -1.91541 -0.0754542)
(-0.0533699 -2.51357 0.378007)
(-0.0806471 -3.4051 0.866653)
(-0.10471 -4.14036 0.763636)
(-0.0666199 -4.61871 0.0275126)
(0.0503177 -5.04167 -0.767224)
(0.384726 -5.47405 -2.37707)
(1.36779 -5.70706 -3.97836)
(2.4786 -6.08598 -2.99336)
(0.508126 -5.88673 0.80998)
(-2.62936 -0.416598 2.7387)
(-4.03303 0.0398928 2.13559)
(-4.47294 -0.434415 3.15227)
(-1.62619 -3.53713 2.89118)
(-0.00887594 -4.32451 2.21774)
(1.27137 -4.87764 1.40015)
(2.26609 -5.34231 0.547932)
(2.43958 -5.96643 -0.0271359)
(0.229559 -7.10764 1.47543)
(-0.00251755 -6.9414 1.39029)
(-0.00262505 -6.70283 1.32544)
(0.000826311 -6.71232 1.3501)
(0.00639897 -6.82084 1.37478)
(0.0138597 -6.98226 1.39158)
(0.0141154 -7.18064 1.4377)
(0.000295875 -7.20269 1.41929)
(-0.0552761 -6.9575 1.23689)
(-0.275211 -6.59959 1.40131)
(-0.0321092 -5.96231 2.51389)
(0.0491549 -6.25533 1.31757)
(-0.0119278 -6.17524 1.00689)
(-0.0145664 -6.03873 1.07361)
(-0.00920334 -5.98412 1.12062)
(-0.0103978 -5.94615 1.14509)
(-0.00916744 -5.83952 1.18432)
(-0.00298889 -5.65154 1.15862)
(0.0023888 -5.37182 1.08766)
(0.00106553 -4.93946 1.0178)
(-0.0087241 -4.22998 0.929015)
(-0.019178 -3.35159 0.730578)
(-0.0054556 -2.02958 0.308362)
(0.012354 -0.0100376 -0.415131)
(-0.00893482 1.48604 -1.60225)
(-0.04549 2.16724 -2.6281)
(0.00834275 2.93447 -2.29284)
(0.0481631 1.44299 -0.329412)
(0.0180496 0.352427 0.866258)
(-0.162459 0.115672 2.95474)
(-0.86718 -0.186377 5.17848)
(-0.825204 -0.133954 6.8485)
(-0.924401 1.56736 8.47886)
(-1.29202 3.42578 17.2456)
(-0.000142839 -7.70019 -19.9625)
(-0.00457911 -2.86021 -5.97696)
(-0.0642204 -1.76762 -1.94681)
(-0.777386 -1.18815 -0.968017)
(-1.68463 0.269967 -2.07625)
(-1.41873 1.18422 -2.46002)
(-0.434894 -0.828505 -0.457878)
(-0.155298 -0.884796 0.358258)
(-0.139282 -1.07755 0.720076)
(-0.238445 -1.77714 1.28097)
(-0.405094 -2.45127 1.90665)
(-0.231065 -3.06018 1.97171)
(-0.0535267 -3.7134 1.78385)
(0.0905032 -4.34555 1.52793)
(0.197319 -4.849 1.40945)
(0.297494 -5.27897 1.04799)
(0.296187 -5.49333 0.339462)
(0.0811014 -5.60314 0.370822)
(-0.629458 -6.33934 0.285793)
(-2.64975 -6.84222 -0.316131)
(-3.20974 -2.02025 4.20855)
(-1.76516 -0.560207 3.88358)
(-1.61273 -2.48232 4.46972)
(-0.206836 -4.4932 3.17575)
(0.870157 -4.73708 2.91649)
(2.4862 -4.86577 2.93837)
(4.19182 -4.75665 2.87897)
(0.479551 -5.98859 1.97887)
(0.0145096 -6.3544 1.5341)
(0.00684357 -6.61938 1.45494)
(-0.000299778 -6.87391 1.38508)
(-0.0162637 -7.0097 1.28347)
(-0.0623755 -6.7295 1.09423)
(-0.179074 -6.08671 0.835379)
(0.126877 -5.77292 0.984452)
(6.81485 -2.2454 3.16608)
(5.21133 -2.73937 4.00903)
(-0.154241 -2.50951 -5.63269)
(-0.215604 -3.41323 -5.01913)
(-0.194969 -5.36073 -2.68251)
(-0.249959 -5.78849 0.124052)
(-0.360813 -5.28666 1.02797)
(-0.26269 -4.86812 0.829829)
(0.0327631 -4.44227 0.590084)
(0.157118 -3.82546 0.496803)
(0.143185 -2.84411 0.177184)
(0.0659809 -1.37031 -0.458808)
(-0.00406668 -0.0386605 -0.788005)
(-0.00653453 1.13517 -1.05608)
(-0.0115467 2.6019 -1.77603)
(-0.0957277 3.39886 -2.48117)
(-0.110946 2.9193 -2.18892)
(0.0209967 2.78439 -1.32221)
(0.0934766 1.15302 0.0189496)
(0.064594 0.513643 0.857388)
(-0.51384 0.92486 4.16458)
(-1.18217 0.609083 4.97702)
(-0.865074 0.737425 6.11346)
(-0.877887 1.72358 8.15454)
(-1.1688 5.26147 16.578)
(-0.000218264 -3.6903 -18.3343)
(-0.000304697 -1.66733 -4.98905)
(-0.0434027 -2.89926 -0.838934)
(-0.0804682 -2.84368 0.313062)
(-0.165122 -3.37322 1.13033)
(-0.303463 -3.71191 1.58015)
(-0.52639 -4.13867 1.96552)
(-0.742363 -4.48603 2.18223)
(-0.734978 -4.64551 2.18173)
(-0.308164 -4.71986 2.43996)
(-0.046245 -5.01605 2.85136)
(0.116031 -5.58211 3.23688)
(0.210425 -6.04847 3.78218)
(0.168173 -5.34072 4.39832)
(0.000281406 -2.01461 5.08727)
(-0.0146413 -0.753297 4.88372)
(-0.905838 -4.10969 4.97492)
(-2.97028 -7.94997 1.70935)
(-2.66121 -8.45169 1.52878)
(-0.821397 -8.52461 2.79616)
(-0.20986 -8.48218 3.48279)
(-0.197837 -8.26016 3.84109)
(-0.256164 -6.33532 5.10641)
(-0.0568879 -2.42651 7.09056)
(0.590129 -0.844021 7.88994)
(2.25409 -1.46864 7.39648)
(3.67669 -3.56736 3.9399)
(0.44818 -5.29088 2.51459)
(-0.0569013 -6.17133 2.48837)
(-0.120272 -6.47114 2.45493)
(-0.111587 -6.28205 2.30403)
(-0.00861614 -5.76044 2.06949)
(0.132625 -5.19127 1.86684)
(0.395925 -4.89464 2.03646)
(0.951482 -4.36711 3.4153)
(-0.310504 1.60863 5.81922)
(-5.06595 1.36154 -5.13269)
(-4.51113 1.50139 -5.23035)
(-1.97889 2.01597 -5.60317)
(4.06282 2.49518 -4.714)
(7.61048 1.81459 -1.38192)
(6.18225 1.88696 2.06036)
(-2.68064 2.33466 3.44964)
(-0.81282 2.64277 3.27932)
(0.496202 -1.18172 2.10732)
(-0.621414 -1.05816 1.21375)
(-1.35781 -0.345357 0.134432)
(0.13141 6.07872 -3.93331)
(-2.95664 6.55153 -2.51864)
(-2.23927 7.77282 -3.43668)
(-0.240992 8.7731 -3.59861)
(0.230965 6.29037 -1.26003)
(0.146278 3.08649 -1.10492)
(0.180371 1.2674 0.206785)
(0.110026 0.624945 2.17816)
(-0.11943 4.07619 4.17713)
(-1.45769 2.06544 5.47928)
(-1.00951 1.40092 5.22132)