/*--------------------------------*- C++ -*----------------------------------*\
| =========                 |                                                 |
| \\      /  F ield         | OpenFOAM: The Open Source CFD Toolbox           |
|  \\    /   O peration     | Version:  2.1.1                                 |
|   \\  /    A nd           | Web:      www.OpenFOAM.org                      |
|    \\/     M anipulation  |                                                 |
\*---------------------------------------------------------------------------*/
FoamFile
{
    version     2.0;
    format      ascii;
    class       volScalarField;
    location    "0.0014";
    object      VOLVOL;
}
// * * * * * * * * * * * * * * * * * * * * * * * * * * * * * * * * * * * * * //

dimensions      [0 3 0 0 0 0 0];

internalField   nonuniform List<scalar> 
36520
(
2.96936e-11
2.96932e-11
2.96928e-11
2.96924e-11
2.9692e-11
2.96916e-11
2.96912e-11
2.96908e-11
2.96904e-11
2.96901e-11
2.96897e-11
2.96893e-11
2.96889e-11
2.96885e-11
2.96881e-11
2.96877e-11
2.96873e-11
2.96869e-11
2.96865e-11
2.96862e-11
2.96858e-11
2.96854e-11
2.9685e-11
2.96846e-11
2.96842e-11
2.96838e-11
2.96834e-11
2.9683e-11
2.96827e-11
2.96823e-11
2.96819e-11
2.96815e-11
2.96811e-11
2.96807e-11
2.96803e-11
2.96799e-11
2.96795e-11
2.96791e-11
2.96788e-11
2.96784e-11
2.9678e-11
2.96776e-11
2.96772e-11
2.96768e-11
2.96764e-11
2.9676e-11
2.96756e-11
2.96752e-11
2.96749e-11
2.96745e-11
2.96741e-11
2.96737e-11
2.96733e-11
2.96729e-11
2.96725e-11
2.96721e-11
2.96717e-11
2.96714e-11
2.9671e-11
2.96706e-11
3.00161e-11
3.00169e-11
3.00176e-11
3.00184e-11
3.00192e-11
3.00199e-11
3.00207e-11
3.00214e-11
3.00222e-11
3.00229e-11
3.00237e-11
3.00245e-11
3.00252e-11
3.0026e-11
3.00267e-11
3.00275e-11
3.00282e-11
3.0029e-11
3.00298e-11
3.00305e-11
3.00313e-11
3.0032e-11
3.00328e-11
3.00335e-11
3.00343e-11
3.00351e-11
3.00358e-11
3.00366e-11
3.00373e-11
3.00381e-11
3.00389e-11
3.00396e-11
3.00404e-11
3.00411e-11
3.00419e-11
3.00426e-11
3.00434e-11
3.00442e-11
3.00449e-11
3.00457e-11
3.00464e-11
3.00472e-11
3.0048e-11
3.00487e-11
3.00495e-11
3.00502e-11
3.0051e-11
3.00517e-11
3.00525e-11
3.00533e-11
3.0054e-11
3.00548e-11
3.00555e-11
3.00563e-11
3.00571e-11
3.00578e-11
3.00586e-11
3.00593e-11
3.00601e-11
3.00608e-11
3.16278e-11
3.16297e-11
3.16316e-11
3.16335e-11
3.16354e-11
3.16373e-11
3.16392e-11
3.16411e-11
3.1643e-11
3.16449e-11
3.16468e-11
3.16487e-11
3.16506e-11
3.16525e-11
3.16544e-11
3.16563e-11
3.16582e-11
3.16601e-11
3.1662e-11
3.16639e-11
3.16658e-11
3.16677e-11
3.16696e-11
3.16715e-11
3.16734e-11
3.16753e-11
3.16772e-11
3.16791e-11
3.1681e-11
3.1683e-11
3.16849e-11
3.16868e-11
3.16887e-11
3.16906e-11
3.16925e-11
3.16944e-11
3.16963e-11
3.16982e-11
3.17001e-11
3.1702e-11
3.17039e-11
3.17058e-11
3.17077e-11
3.17096e-11
3.17115e-11
3.17134e-11
3.17153e-11
3.17172e-11
3.17191e-11
3.1721e-11
3.17229e-11
3.17248e-11
3.17267e-11
3.17286e-11
3.17305e-11
3.17324e-11
3.17343e-11
3.17362e-11
3.17381e-11
3.174e-11
3.45952e-11
3.45981e-11
3.46011e-11
3.4604e-11
3.4607e-11
3.46099e-11
3.46128e-11
3.46158e-11
3.46187e-11
3.46217e-11
3.46246e-11
3.46275e-11
3.46305e-11
3.46334e-11
3.46364e-11
3.46393e-11
3.46423e-11
3.46452e-11
3.46481e-11
3.46511e-11
3.4654e-11
3.4657e-11
3.46599e-11
3.46629e-11
3.46658e-11
3.46687e-11
3.46717e-11
3.46746e-11
3.46776e-11
3.46805e-11
3.46835e-11
3.46864e-11
3.46894e-11
3.46923e-11
3.46952e-11
3.46982e-11
3.47011e-11
3.47041e-11
3.4707e-11
3.471e-11
3.47129e-11
3.47158e-11
3.47188e-11
3.47217e-11
3.47247e-11
3.47276e-11
3.47306e-11
3.47335e-11
3.47365e-11
3.47394e-11
3.47424e-11
3.47453e-11
3.47482e-11
3.47512e-11
3.47541e-11
3.47571e-11
3.476e-11
3.4763e-11
3.47659e-11
3.47689e-11
3.86909e-11
3.86944e-11
3.86979e-11
3.87014e-11
3.87049e-11
3.87084e-11
3.87119e-11
3.87154e-11
3.87189e-11
3.87224e-11
3.87259e-11
3.87294e-11
3.87329e-11
3.87364e-11
3.87399e-11
3.87434e-11
3.87469e-11
3.87504e-11
3.87539e-11
3.87574e-11
3.87609e-11
3.87644e-11
3.87679e-11
3.87714e-11
3.87749e-11
3.87784e-11
3.87819e-11
3.87854e-11
3.87889e-11
3.87923e-11
3.87958e-11
3.87993e-11
3.88028e-11
3.88063e-11
3.88098e-11
3.88133e-11
3.88168e-11
3.88204e-11
3.88239e-11
3.88274e-11
3.88309e-11
3.88344e-11
3.88379e-11
3.88414e-11
3.88449e-11
3.88484e-11
3.88519e-11
3.88554e-11
3.88589e-11
3.88624e-11
3.88659e-11
3.88694e-11
3.88729e-11
3.88764e-11
3.88799e-11
3.88834e-11
3.88869e-11
3.88904e-11
3.88939e-11
3.88974e-11
4.40098e-11
4.40132e-11
4.40166e-11
4.402e-11
4.40234e-11
4.40268e-11
4.40301e-11
4.40335e-11
4.40369e-11
4.40403e-11
4.40437e-11
4.40471e-11
4.40505e-11
4.40538e-11
4.40572e-11
4.40606e-11
4.4064e-11
4.40674e-11
4.40708e-11
4.40742e-11
4.40776e-11
4.4081e-11
4.40843e-11
4.40877e-11
4.40911e-11
4.40945e-11
4.40979e-11
4.41013e-11
4.41047e-11
4.41081e-11
4.41114e-11
4.41148e-11
4.41182e-11
4.41216e-11
4.4125e-11
4.41284e-11
4.41318e-11
4.41352e-11
4.41386e-11
4.41419e-11
4.41453e-11
4.41487e-11
4.41521e-11
4.41555e-11
4.41589e-11
4.41623e-11
4.41657e-11
4.4169e-11
4.41724e-11
4.41758e-11
4.41792e-11
4.41826e-11
4.4186e-11
4.41894e-11
4.41928e-11
4.41962e-11
4.41996e-11
4.42029e-11
4.42063e-11
4.42097e-11
5.14517e-11
5.14544e-11
5.14571e-11
5.14598e-11
5.14625e-11
5.14652e-11
5.14679e-11
5.14706e-11
5.14734e-11
5.14761e-11
5.14788e-11
5.14815e-11
5.14842e-11
5.14869e-11
5.14896e-11
5.14923e-11
5.1495e-11
5.14977e-11
5.15004e-11
5.15031e-11
5.15059e-11
5.15086e-11
5.15113e-11
5.1514e-11
5.15167e-11
5.15194e-11
5.15221e-11
5.15248e-11
5.15275e-11
5.15302e-11
5.15329e-11
5.15356e-11
5.15384e-11
5.15411e-11
5.15438e-11
5.15465e-11
5.15492e-11
5.15519e-11
5.15546e-11
5.15573e-11
5.156e-11
5.15627e-11
5.15654e-11
5.15681e-11
5.15709e-11
5.15736e-11
5.15763e-11
5.1579e-11
5.15817e-11
5.15844e-11
5.15871e-11
5.15898e-11
5.15925e-11
5.15952e-11
5.15979e-11
5.16007e-11
5.16034e-11
5.16061e-11
5.16088e-11
5.16115e-11
6.41791e-11
6.42117e-11
6.42443e-11
6.42769e-11
6.43095e-11
6.43421e-11
6.43747e-11
6.44073e-11
6.44399e-11
6.44725e-11
6.45051e-11
6.45377e-11
6.45703e-11
6.46029e-11
6.46356e-11
6.46682e-11
6.47008e-11
6.47334e-11
6.4766e-11
6.47986e-11
6.48312e-11
6.48638e-11
6.48964e-11
6.4929e-11
6.49616e-11
6.49942e-11
6.50268e-11
6.50594e-11
6.50921e-11
6.51247e-11
6.51573e-11
6.51899e-11
6.52225e-11
6.52551e-11
6.52877e-11
6.53203e-11
6.53529e-11
6.53855e-11
6.54182e-11
6.54508e-11
6.54834e-11
6.5516e-11
6.55486e-11
6.55812e-11
6.56138e-11
6.56465e-11
6.56791e-11
6.57117e-11
6.57443e-11
6.57769e-11
6.58095e-11
6.58421e-11
6.58748e-11
6.59074e-11
6.594e-11
6.59726e-11
6.60052e-11
6.60378e-11
6.60705e-11
6.61031e-11
6.14788e-11
6.15404e-11
6.1602e-11
6.16637e-11
6.17253e-11
6.1787e-11
6.18486e-11
6.19103e-11
6.19719e-11
6.20336e-11
6.20953e-11
6.2157e-11
6.22187e-11
6.22804e-11
6.23421e-11
6.24038e-11
6.24655e-11
6.25272e-11
6.25889e-11
6.26507e-11
6.27124e-11
6.27742e-11
6.28359e-11
6.28977e-11
6.29594e-11
6.30212e-11
6.3083e-11
6.31448e-11
6.32066e-11
6.32684e-11
6.33302e-11
6.3392e-11
6.34538e-11
6.35156e-11
6.35774e-11
6.36393e-11
6.37011e-11
6.3763e-11
6.38248e-11
6.38867e-11
6.39485e-11
6.40104e-11
6.40723e-11
6.41342e-11
6.41961e-11
6.4258e-11
6.43199e-11
6.43818e-11
6.44437e-11
6.45056e-11
6.45675e-11
6.46295e-11
6.46914e-11
6.47534e-11
6.48153e-11
6.48773e-11
6.49392e-11
6.50012e-11
6.50632e-11
6.51252e-11
4.24724e-11
4.25205e-11
4.25686e-11
4.26168e-11
4.26649e-11
4.27131e-11
4.27613e-11
4.28094e-11
4.28576e-11
4.29058e-11
4.2954e-11
4.30021e-11
4.30503e-11
4.30985e-11
4.31467e-11
4.31949e-11
4.32432e-11
4.32914e-11
4.33396e-11
4.33878e-11
4.34361e-11
4.34843e-11
4.35326e-11
4.35808e-11
4.36291e-11
4.36773e-11
4.37256e-11
4.37739e-11
4.38221e-11
4.38704e-11
4.39187e-11
4.3967e-11
4.40153e-11
4.40636e-11
4.41119e-11
4.41602e-11
4.42085e-11
4.42569e-11
4.43052e-11
4.43535e-11
4.44019e-11
4.44502e-11
4.44985e-11
4.45469e-11
4.45953e-11
4.46436e-11
4.4692e-11
4.47404e-11
4.47888e-11
4.48371e-11
4.48855e-11
4.49339e-11
4.49823e-11
4.50307e-11
4.50791e-11
4.51276e-11
4.5176e-11
4.52244e-11
4.52728e-11
4.53213e-11
3.28394e-11
3.28611e-11
3.28828e-11
3.29045e-11
3.29262e-11
3.2948e-11
3.29697e-11
3.29915e-11
3.30133e-11
3.30351e-11
3.30569e-11
3.30787e-11
3.31005e-11
3.31223e-11
3.31442e-11
3.31661e-11
3.31879e-11
3.32098e-11
3.32317e-11
3.32536e-11
3.32755e-11
3.32975e-11
3.33194e-11
3.33414e-11
3.33633e-11
3.33853e-11
3.34073e-11
3.34293e-11
3.34513e-11
3.34733e-11
3.34954e-11
3.35174e-11
3.35395e-11
3.35616e-11
3.35836e-11
3.36057e-11
3.36278e-11
3.365e-11
3.36721e-11
3.36942e-11
3.37164e-11
3.37385e-11
3.37607e-11
3.37829e-11
3.38051e-11
3.38273e-11
3.38495e-11
3.38718e-11
3.3894e-11
3.39163e-11
3.39386e-11
3.39608e-11
3.39831e-11
3.40054e-11
3.40277e-11
3.40501e-11
3.40724e-11
3.40948e-11
3.41171e-11
3.41395e-11
2.10089e-11
2.10044e-11
2.09999e-11
2.09954e-11
2.0991e-11
2.09865e-11
2.0982e-11
2.09776e-11
2.09731e-11
2.09686e-11
2.09642e-11
2.09597e-11
2.09552e-11
2.09507e-11
2.09463e-11
2.09418e-11
2.09373e-11
2.09329e-11
2.09284e-11
2.09239e-11
2.09194e-11
2.0915e-11
2.09105e-11
2.0906e-11
2.09016e-11
2.08971e-11
2.08926e-11
2.08881e-11
2.08837e-11
2.08792e-11
2.08747e-11
2.08703e-11
2.08658e-11
2.08613e-11
2.08568e-11
2.08524e-11
2.08479e-11
2.08434e-11
2.08389e-11
2.08345e-11
2.083e-11
2.08255e-11
2.08211e-11
2.08166e-11
2.08121e-11
2.08076e-11
2.08032e-11
2.07987e-11
2.07942e-11
2.07897e-11
2.07853e-11
2.07808e-11
2.07763e-11
2.07719e-11
2.07674e-11
2.07629e-11
2.07584e-11
2.0754e-11
2.07495e-11
2.0745e-11
2.09988e-11
2.09947e-11
2.09906e-11
2.09864e-11
2.09823e-11
2.09782e-11
2.09741e-11
2.097e-11
2.09658e-11
2.09617e-11
2.09576e-11
2.09535e-11
2.09494e-11
2.09452e-11
2.09411e-11
2.0937e-11
2.09329e-11
2.09288e-11
2.09247e-11
2.09205e-11
2.09164e-11
2.09123e-11
2.09082e-11
2.09041e-11
2.09e-11
2.08959e-11
2.08917e-11
2.08876e-11
2.08835e-11
2.08794e-11
2.08753e-11
2.08712e-11
2.08671e-11
2.0863e-11
2.08589e-11
2.08548e-11
2.08506e-11
2.08465e-11
2.08424e-11
2.08383e-11
2.08342e-11
2.08301e-11
2.0826e-11
2.08219e-11
2.08178e-11
2.08137e-11
2.08096e-11
2.08055e-11
2.08014e-11
2.07973e-11
2.07932e-11
2.07891e-11
2.0785e-11
2.07809e-11
2.07768e-11
2.07727e-11
2.07686e-11
2.07645e-11
2.07604e-11
2.07563e-11
3.28047e-11
3.28063e-11
3.28079e-11
3.28094e-11
3.2811e-11
3.28126e-11
3.28141e-11
3.28157e-11
3.28172e-11
3.28188e-11
3.28203e-11
3.28218e-11
3.28234e-11
3.28249e-11
3.28264e-11
3.28279e-11
3.28294e-11
3.28309e-11
3.28324e-11
3.28339e-11
3.28354e-11
3.28369e-11
3.28383e-11
3.28398e-11
3.28413e-11
3.28427e-11
3.28442e-11
3.28456e-11
3.28471e-11
3.28485e-11
3.285e-11
3.28514e-11
3.28528e-11
3.28542e-11
3.28556e-11
3.28571e-11
3.28585e-11
3.28599e-11
3.28612e-11
3.28626e-11
3.2864e-11
3.28654e-11
3.28668e-11
3.28681e-11
3.28695e-11
3.28708e-11
3.28722e-11
3.28735e-11
3.28749e-11
3.28762e-11
3.28776e-11
3.28789e-11
3.28802e-11
3.28815e-11
3.28828e-11
3.28841e-11
3.28854e-11
3.28867e-11
3.2888e-11
3.28893e-11
4.2322e-11
4.22967e-11
4.22715e-11
4.22463e-11
4.2221e-11
4.21958e-11
4.21706e-11
4.21454e-11
4.21202e-11
4.2095e-11
4.20699e-11
4.20447e-11
4.20196e-11
4.19944e-11
4.19693e-11
4.19442e-11
4.19191e-11
4.1894e-11
4.18689e-11
4.18439e-11
4.18188e-11
4.17938e-11
4.17687e-11
4.17437e-11
4.17187e-11
4.16937e-11
4.16687e-11
4.16437e-11
4.16187e-11
4.15938e-11
4.15688e-11
4.15439e-11
4.1519e-11
4.14941e-11
4.14692e-11
4.14443e-11
4.14194e-11
4.13945e-11
4.13696e-11
4.13448e-11
4.13199e-11
4.12951e-11
4.12703e-11
4.12455e-11
4.12207e-11
4.11959e-11
4.11711e-11
4.11464e-11
4.11216e-11
4.10969e-11
4.10721e-11
4.10474e-11
4.10227e-11
4.0998e-11
4.09733e-11
4.09486e-11
4.09239e-11
4.08993e-11
4.08746e-11
4.085e-11
6.10137e-11
6.09712e-11
6.09288e-11
6.08864e-11
6.0844e-11
6.08016e-11
6.07592e-11
6.07168e-11
6.06745e-11
6.06322e-11
6.05899e-11
6.05476e-11
6.05053e-11
6.0463e-11
6.04208e-11
6.03785e-11
6.03363e-11
6.02941e-11
6.02519e-11
6.02097e-11
6.01676e-11
6.01254e-11
6.00833e-11
6.00412e-11
5.99991e-11
5.9957e-11
5.99149e-11
5.98729e-11
5.98308e-11
5.97888e-11
5.97468e-11
5.97048e-11
5.96628e-11
5.96209e-11
5.95789e-11
5.9537e-11
5.94951e-11
5.94532e-11
5.94113e-11
5.93694e-11
5.93276e-11
5.92857e-11
5.92439e-11
5.92021e-11
5.91603e-11
5.91185e-11
5.90767e-11
5.9035e-11
5.89933e-11
5.89515e-11
5.89098e-11
5.88682e-11
5.88265e-11
5.87848e-11
5.87432e-11
5.87016e-11
5.86599e-11
5.86183e-11
5.85768e-11
5.85352e-11
6.36924e-11
6.36943e-11
6.36962e-11
6.36981e-11
6.37e-11
6.3702e-11
6.37039e-11
6.37058e-11
6.37077e-11
6.37096e-11
6.37115e-11
6.37134e-11
6.37153e-11
6.37172e-11
6.37191e-11
6.3721e-11
6.37229e-11
6.37248e-11
6.37267e-11
6.37286e-11
6.37305e-11
6.37324e-11
6.37343e-11
6.37362e-11
6.37381e-11
6.37399e-11
6.37418e-11
6.37437e-11
6.37456e-11
6.37475e-11
6.37494e-11
6.37513e-11
6.37531e-11
6.3755e-11
6.37569e-11
6.37588e-11
6.37607e-11
6.37625e-11
6.37644e-11
6.37663e-11
6.37682e-11
6.377e-11
6.37719e-11
6.37738e-11
6.37757e-11
6.37775e-11
6.37794e-11
6.37813e-11
6.37831e-11
6.3785e-11
6.37869e-11
6.37887e-11
6.37906e-11
6.37924e-11
6.37943e-11
6.37962e-11
6.3798e-11
6.37999e-11
6.38017e-11
6.38036e-11
4.76298e-11
4.76282e-11
4.76267e-11
4.76251e-11
4.76235e-11
4.76219e-11
4.76203e-11
4.76187e-11
4.76171e-11
4.76156e-11
4.7614e-11
4.76124e-11
4.76108e-11
4.76092e-11
4.76076e-11
4.7606e-11
4.76045e-11
4.76029e-11
4.76013e-11
4.75997e-11
4.75981e-11
4.75965e-11
4.75949e-11
4.75934e-11
4.75918e-11
4.75902e-11
4.75886e-11
4.7587e-11
4.75854e-11
4.75838e-11
4.75823e-11
4.75807e-11
4.75791e-11
4.75775e-11
4.75759e-11
4.75743e-11
4.75727e-11
4.75711e-11
4.75696e-11
4.7568e-11
4.75664e-11
4.75648e-11
4.75632e-11
4.75616e-11
4.756e-11
4.75585e-11
4.75569e-11
4.75553e-11
4.75537e-11
4.75521e-11
4.75505e-11
4.7549e-11
4.75474e-11
4.75458e-11
4.75442e-11
4.75426e-11
4.7541e-11
4.75394e-11
4.75379e-11
4.75363e-11
3.57237e-11
3.57213e-11
3.57189e-11
3.57166e-11
3.57142e-11
3.57118e-11
3.57095e-11
3.57071e-11
3.57047e-11
3.57024e-11
3.57e-11
3.56976e-11
3.56953e-11
3.56929e-11
3.56905e-11
3.56882e-11
3.56858e-11
3.56835e-11
3.56811e-11
3.56787e-11
3.56764e-11
3.5674e-11
3.56716e-11
3.56693e-11
3.56669e-11
3.56645e-11
3.56622e-11
3.56598e-11
3.56574e-11
3.56551e-11
3.56527e-11
3.56503e-11
3.5648e-11
3.56456e-11
3.56432e-11
3.56409e-11
3.56385e-11
3.56362e-11
3.56338e-11
3.56314e-11
3.56291e-11
3.56267e-11
3.56243e-11
3.5622e-11
3.56196e-11
3.56172e-11
3.56149e-11
3.56125e-11
3.56101e-11
3.56078e-11
3.56054e-11
3.56031e-11
3.56007e-11
3.55983e-11
3.5596e-11
3.55936e-11
3.55912e-11
3.55889e-11
3.55865e-11
3.55841e-11
2.59273e-11
2.59246e-11
2.5922e-11
2.59193e-11
2.59166e-11
2.59139e-11
2.59113e-11
2.59086e-11
2.59059e-11
2.59032e-11
2.59006e-11
2.58979e-11
2.58952e-11
2.58925e-11
2.58899e-11
2.58872e-11
2.58845e-11
2.58818e-11
2.58792e-11
2.58765e-11
2.58738e-11
2.58711e-11
2.58685e-11
2.58658e-11
2.58631e-11
2.58604e-11
2.58578e-11
2.58551e-11
2.58524e-11
2.58498e-11
2.58471e-11
2.58444e-11
2.58417e-11
2.58391e-11
2.58364e-11
2.58337e-11
2.5831e-11
2.58284e-11
2.58257e-11
2.5823e-11
2.58203e-11
2.58177e-11
2.5815e-11
2.58123e-11
2.58096e-11
2.5807e-11
2.58043e-11
2.58016e-11
2.5799e-11
2.57963e-11
2.57936e-11
2.57909e-11
2.57883e-11
2.57856e-11
2.57829e-11
2.57802e-11
2.57776e-11
2.57749e-11
2.57722e-11
2.57695e-11
2.22508e-11
2.22485e-11
2.22461e-11
2.22438e-11
2.22414e-11
2.22391e-11
2.22367e-11
2.22344e-11
2.2232e-11
2.22297e-11
2.22273e-11
2.2225e-11
2.22227e-11
2.22203e-11
2.2218e-11
2.22156e-11
2.22133e-11
2.22109e-11
2.22086e-11
2.22062e-11
2.22039e-11
2.22015e-11
2.21992e-11
2.21968e-11
2.21945e-11
2.21921e-11
2.21898e-11
2.21874e-11
2.21851e-11
2.21827e-11
2.21804e-11
2.2178e-11
2.21757e-11
2.21733e-11
2.2171e-11
2.21686e-11
2.21663e-11
2.21639e-11
2.21616e-11
2.21592e-11
2.21569e-11
2.21545e-11
2.21522e-11
2.21498e-11
2.21475e-11
2.21451e-11
2.21428e-11
2.21404e-11
2.21381e-11
2.21357e-11
2.21334e-11
2.2131e-11
2.21287e-11
2.21263e-11
2.2124e-11
2.21216e-11
2.21193e-11
2.2117e-11
2.21146e-11
2.21123e-11
2.47119e-11
2.47103e-11
2.47087e-11
2.47071e-11
2.47055e-11
2.47039e-11
2.47023e-11
2.47007e-11
2.46991e-11
2.46976e-11
2.4696e-11
2.46944e-11
2.46928e-11
2.46912e-11
2.46896e-11
2.4688e-11
2.46864e-11
2.46848e-11
2.46832e-11
2.46817e-11
2.46801e-11
2.46785e-11
2.46769e-11
2.46753e-11
2.46737e-11
2.46721e-11
2.46705e-11
2.46689e-11
2.46673e-11
2.46657e-11
2.46642e-11
2.46626e-11
2.4661e-11
2.46594e-11
2.46578e-11
2.46562e-11
2.46546e-11
2.4653e-11
2.46514e-11
2.46498e-11
2.46483e-11
2.46467e-11
2.46451e-11
2.46435e-11
2.46419e-11
2.46403e-11
2.46387e-11
2.46371e-11
2.46355e-11
2.46339e-11
2.46324e-11
2.46308e-11
2.46292e-11
2.46276e-11
2.4626e-11
2.46244e-11
2.46228e-11
2.46212e-11
2.46196e-11
2.4618e-11
2.78087e-11
2.78078e-11
2.7807e-11
2.78061e-11
2.78052e-11
2.78043e-11
2.78034e-11
2.78026e-11
2.78017e-11
2.78008e-11
2.77999e-11
2.77991e-11
2.77982e-11
2.77973e-11
2.77964e-11
2.77955e-11
2.77947e-11
2.77938e-11
2.77929e-11
2.7792e-11
2.77912e-11
2.77903e-11
2.77894e-11
2.77885e-11
2.77876e-11
2.77868e-11
2.77859e-11
2.7785e-11
2.77841e-11
2.77833e-11
2.77824e-11
2.77815e-11
2.77806e-11
2.77797e-11
2.77789e-11
2.7778e-11
2.77771e-11
2.77762e-11
2.77754e-11
2.77745e-11
2.77736e-11
2.77727e-11
2.77718e-11
2.7771e-11
2.77701e-11
2.77692e-11
2.77683e-11
2.77675e-11
2.77666e-11
2.77657e-11
2.77648e-11
2.77639e-11
2.77631e-11
2.77622e-11
2.77613e-11
2.77604e-11
2.77596e-11
2.77587e-11
2.77578e-11
2.77569e-11
3.04183e-11
3.04181e-11
3.0418e-11
3.04178e-11
3.04176e-11
3.04174e-11
3.04173e-11
3.04171e-11
3.04169e-11
3.04167e-11
3.04166e-11
3.04164e-11
3.04162e-11
3.0416e-11
3.04159e-11
3.04157e-11
3.04155e-11
3.04153e-11
3.04152e-11
3.0415e-11
3.04148e-11
3.04146e-11
3.04145e-11
3.04143e-11
3.04141e-11
3.04139e-11
3.04137e-11
3.04136e-11
3.04134e-11
3.04132e-11
3.0413e-11
3.04129e-11
3.04127e-11
3.04125e-11
3.04123e-11
3.04122e-11
3.0412e-11
3.04118e-11
3.04116e-11
3.04115e-11
3.04113e-11
3.04111e-11
3.04109e-11
3.04108e-11
3.04106e-11
3.04104e-11
3.04102e-11
3.04101e-11
3.04099e-11
3.04097e-11
3.04095e-11
3.04094e-11
3.04092e-11
3.0409e-11
3.04088e-11
3.04086e-11
3.04085e-11
3.04083e-11
3.04081e-11
3.04079e-11
3.11763e-11
3.11764e-11
3.11765e-11
3.11766e-11
3.11766e-11
3.11767e-11
3.11768e-11
3.11769e-11
3.11769e-11
3.1177e-11
3.11771e-11
3.11772e-11
3.11772e-11
3.11773e-11
3.11774e-11
3.11775e-11
3.11776e-11
3.11776e-11
3.11777e-11
3.11778e-11
3.11779e-11
3.11779e-11
3.1178e-11
3.11781e-11
3.11782e-11
3.11782e-11
3.11783e-11
3.11784e-11
3.11785e-11
3.11786e-11
3.11786e-11
3.11787e-11
3.11788e-11
3.11789e-11
3.11789e-11
3.1179e-11
3.11791e-11
3.11792e-11
3.11793e-11
3.11793e-11
3.11794e-11
3.11795e-11
3.11796e-11
3.11796e-11
3.11797e-11
3.11798e-11
3.11799e-11
3.11799e-11
3.118e-11
3.11801e-11
3.11802e-11
3.11803e-11
3.11803e-11
3.11804e-11
3.11805e-11
3.11806e-11
3.11806e-11
3.11807e-11
3.11808e-11
3.11809e-11
3.09081e-11
3.09077e-11
3.09073e-11
3.09069e-11
3.09066e-11
3.09062e-11
3.09058e-11
3.09055e-11
3.09051e-11
3.09047e-11
3.09043e-11
3.0904e-11
3.09036e-11
3.09032e-11
3.09028e-11
3.09025e-11
3.09021e-11
3.09017e-11
3.09013e-11
3.0901e-11
3.09006e-11
3.09002e-11
3.08999e-11
3.08995e-11
3.08991e-11
3.08987e-11
3.08984e-11
3.0898e-11
3.08976e-11
3.08972e-11
3.08969e-11
3.08965e-11
3.08961e-11
3.08958e-11
3.08954e-11
3.0895e-11
3.08946e-11
3.08943e-11
3.08939e-11
3.08935e-11
3.08931e-11
3.08928e-11
3.08924e-11
3.0892e-11
3.08916e-11
3.08913e-11
3.08909e-11
3.08905e-11
3.08902e-11
3.08898e-11
3.08894e-11
3.0889e-11
3.08887e-11
3.08883e-11
3.08879e-11
3.08875e-11
3.08872e-11
3.08868e-11
3.08864e-11
3.08861e-11
3.02268e-11
3.0226e-11
3.02252e-11
3.02244e-11
3.02236e-11
3.02228e-11
3.0222e-11
3.02212e-11
3.02204e-11
3.02196e-11
3.02188e-11
3.0218e-11
3.02172e-11
3.02164e-11
3.02156e-11
3.02148e-11
3.0214e-11
3.02132e-11
3.02124e-11
3.02116e-11
3.02108e-11
3.021e-11
3.02092e-11
3.02084e-11
3.02076e-11
3.02068e-11
3.02059e-11
3.02051e-11
3.02043e-11
3.02035e-11
3.02027e-11
3.02019e-11
3.02011e-11
3.02003e-11
3.01995e-11
3.01987e-11
3.01979e-11
3.01971e-11
3.01963e-11
3.01955e-11
3.01947e-11
3.01939e-11
3.01931e-11
3.01923e-11
3.01915e-11
3.01907e-11
3.01899e-11
3.01891e-11
3.01883e-11
3.01875e-11
3.01867e-11
3.01859e-11
3.01851e-11
3.01843e-11
3.01835e-11
3.01827e-11
3.01819e-11
3.01811e-11
3.01803e-11
3.01795e-11
2.86474e-11
2.86462e-11
2.86451e-11
2.86439e-11
2.86428e-11
2.86417e-11
2.86405e-11
2.86394e-11
2.86382e-11
2.86371e-11
2.86359e-11
2.86348e-11
2.86337e-11
2.86325e-11
2.86314e-11
2.86302e-11
2.86291e-11
2.8628e-11
2.86268e-11
2.86257e-11
2.86245e-11
2.86234e-11
2.86223e-11
2.86211e-11
2.862e-11
2.86188e-11
2.86177e-11
2.86165e-11
2.86154e-11
2.86143e-11
2.86131e-11
2.8612e-11
2.86108e-11
2.86097e-11
2.86086e-11
2.86074e-11
2.86063e-11
2.86051e-11
2.8604e-11
2.86028e-11
2.86017e-11
2.86006e-11
2.85994e-11
2.85983e-11
2.85971e-11
2.8596e-11
2.85949e-11
2.85937e-11
2.85926e-11
2.85914e-11
2.85903e-11
2.85891e-11
2.8588e-11
2.85869e-11
2.85857e-11
2.85846e-11
2.85834e-11
2.85823e-11
2.85812e-11
2.858e-11
2.5916e-11
2.59147e-11
2.59134e-11
2.59121e-11
2.59108e-11
2.59095e-11
2.59082e-11
2.59069e-11
2.59056e-11
2.59043e-11
2.5903e-11
2.59017e-11
2.59004e-11
2.58991e-11
2.58978e-11
2.58965e-11
2.58952e-11
2.58939e-11
2.58926e-11
2.58913e-11
2.589e-11
2.58887e-11
2.58874e-11
2.58861e-11
2.58848e-11
2.58835e-11
2.58822e-11
2.58809e-11
2.58796e-11
2.58783e-11
2.5877e-11
2.58757e-11
2.58743e-11
2.5873e-11
2.58717e-11
2.58704e-11
2.58691e-11
2.58678e-11
2.58665e-11
2.58652e-11
2.58639e-11
2.58626e-11
2.58613e-11
2.586e-11
2.58587e-11
2.58574e-11
2.58561e-11
2.58548e-11
2.58535e-11
2.58522e-11
2.58509e-11
2.58496e-11
2.58483e-11
2.5847e-11
2.58457e-11
2.58444e-11
2.58431e-11
2.58418e-11
2.58405e-11
2.58392e-11
2.37277e-11
2.37264e-11
2.37251e-11
2.37238e-11
2.37225e-11
2.37212e-11
2.372e-11
2.37187e-11
2.37174e-11
2.37161e-11
2.37148e-11
2.37136e-11
2.37123e-11
2.3711e-11
2.37097e-11
2.37084e-11
2.37071e-11
2.37059e-11
2.37046e-11
2.37033e-11
2.3702e-11
2.37007e-11
2.36995e-11
2.36982e-11
2.36969e-11
2.36956e-11
2.36943e-11
2.3693e-11
2.36918e-11
2.36905e-11
2.36892e-11
2.36879e-11
2.36866e-11
2.36853e-11
2.36841e-11
2.36828e-11
2.36815e-11
2.36802e-11
2.36789e-11
2.36777e-11
2.36764e-11
2.36751e-11
2.36738e-11
2.36725e-11
2.36712e-11
2.367e-11
2.36687e-11
2.36674e-11
2.36661e-11
2.36648e-11
2.36636e-11
2.36623e-11
2.3661e-11
2.36597e-11
2.36584e-11
2.36571e-11
2.36559e-11
2.36546e-11
2.36533e-11
2.3652e-11
2.79075e-11
2.79064e-11
2.79053e-11
2.79042e-11
2.79032e-11
2.79021e-11
2.7901e-11
2.78999e-11
2.78988e-11
2.78977e-11
2.78966e-11
2.78955e-11
2.78944e-11
2.78933e-11
2.78922e-11
2.78911e-11
2.789e-11
2.7889e-11
2.78879e-11
2.78868e-11
2.78857e-11
2.78846e-11
2.78835e-11
2.78824e-11
2.78813e-11
2.78802e-11
2.78791e-11
2.7878e-11
2.78769e-11
2.78758e-11
2.78748e-11
2.78737e-11
2.78726e-11
2.78715e-11
2.78704e-11
2.78693e-11
2.78682e-11
2.78671e-11
2.7866e-11
2.78649e-11
2.78638e-11
2.78627e-11
2.78616e-11
2.78605e-11
2.78595e-11
2.78584e-11
2.78573e-11
2.78562e-11
2.78551e-11
2.7854e-11
2.78529e-11
2.78518e-11
2.78507e-11
2.78496e-11
2.78485e-11
2.78474e-11
2.78464e-11
2.78453e-11
2.78442e-11
2.78431e-11
3.89341e-11
3.89573e-11
3.89805e-11
3.90037e-11
3.90269e-11
3.90501e-11
3.90733e-11
3.90965e-11
3.91197e-11
3.91429e-11
3.91661e-11
3.91893e-11
3.92125e-11
3.92357e-11
3.92588e-11
3.9282e-11
3.93052e-11
3.93284e-11
3.93516e-11
3.93747e-11
3.93979e-11
3.94211e-11
3.94442e-11
3.94674e-11
3.94906e-11
3.95137e-11
3.95369e-11
3.95601e-11
3.95832e-11
3.96064e-11
3.96295e-11
3.96527e-11
3.96758e-11
3.9699e-11
3.97221e-11
3.97453e-11
3.97684e-11
3.97915e-11
3.98147e-11
3.98378e-11
3.9861e-11
3.98841e-11
3.99072e-11
3.99303e-11
3.99535e-11
3.99766e-11
3.99997e-11
4.00228e-11
4.0046e-11
4.00691e-11
4.00922e-11
4.01153e-11
4.01384e-11
4.01615e-11
4.01846e-11
4.02077e-11
4.02309e-11
4.0254e-11
4.02771e-11
4.03002e-11
5.48003e-11
5.48511e-11
5.49018e-11
5.49526e-11
5.50033e-11
5.5054e-11
5.51046e-11
5.51553e-11
5.52059e-11
5.52565e-11
5.5307e-11
5.53576e-11
5.54081e-11
5.54586e-11
5.5509e-11
5.55594e-11
5.56098e-11
5.56602e-11
5.57106e-11
5.57609e-11
5.58112e-11
5.58615e-11
5.59118e-11
5.5962e-11
5.60122e-11
5.60624e-11
5.61125e-11
5.61626e-11
5.62127e-11
5.62628e-11
5.63129e-11
5.63629e-11
5.64129e-11
5.64629e-11
5.65128e-11
5.65627e-11
5.66126e-11
5.66625e-11
5.67124e-11
5.67622e-11
5.6812e-11
5.68617e-11
5.69115e-11
5.69612e-11
5.70109e-11
5.70606e-11
5.71102e-11
5.71598e-11
5.72094e-11
5.7259e-11
5.73085e-11
5.7358e-11
5.74075e-11
5.7457e-11
5.75064e-11
5.75559e-11
5.76052e-11
5.76546e-11
5.77039e-11
5.77533e-11
5.49306e-11
5.49365e-11
5.49422e-11
5.49479e-11
5.49535e-11
5.4959e-11
5.49645e-11
5.49698e-11
5.49751e-11
5.49803e-11
5.49854e-11
5.49905e-11
5.49954e-11
5.50003e-11
5.50051e-11
5.50098e-11
5.50144e-11
5.50189e-11
5.50234e-11
5.50278e-11
5.5032e-11
5.50363e-11
5.50404e-11
5.50444e-11
5.50484e-11
5.50523e-11
5.50561e-11
5.50598e-11
5.50635e-11
5.5067e-11
5.50705e-11
5.50739e-11
5.50772e-11
5.50804e-11
5.50836e-11
5.50866e-11
5.50896e-11
5.50925e-11
5.50953e-11
5.50981e-11
5.51007e-11
5.51033e-11
5.51058e-11
5.51082e-11
5.51105e-11
5.51128e-11
5.5115e-11
5.5117e-11
5.5119e-11
5.5121e-11
5.51228e-11
5.51246e-11
5.51262e-11
5.51278e-11
5.51293e-11
5.51308e-11
5.51321e-11
5.51334e-11
5.51346e-11
5.51357e-11
4.01264e-11
4.01106e-11
4.00948e-11
4.0079e-11
4.00632e-11
4.00474e-11
4.00316e-11
4.00158e-11
4e-11
3.99842e-11
3.99684e-11
3.99526e-11
3.99368e-11
3.9921e-11
3.99052e-11
3.98894e-11
3.98736e-11
3.98577e-11
3.98419e-11
3.98261e-11
3.98103e-11
3.97944e-11
3.97786e-11
3.97628e-11
3.9747e-11
3.97311e-11
3.97153e-11
3.96994e-11
3.96836e-11
3.96678e-11
3.96519e-11
3.96361e-11
3.96202e-11
3.96044e-11
3.95885e-11
3.95726e-11
3.95568e-11
3.95409e-11
3.95251e-11
3.95092e-11
3.94933e-11
3.94775e-11
3.94616e-11
3.94457e-11
3.94299e-11
3.9414e-11
3.93981e-11
3.93822e-11
3.93663e-11
3.93504e-11
3.93346e-11
3.93187e-11
3.93028e-11
3.92869e-11
3.9271e-11
3.92551e-11
3.92392e-11
3.92233e-11
3.92074e-11
3.91915e-11
3.52626e-11
3.52328e-11
3.52031e-11
3.51734e-11
3.51436e-11
3.51139e-11
3.50842e-11
3.50545e-11
3.50248e-11
3.49951e-11
3.49654e-11
3.49357e-11
3.4906e-11
3.48763e-11
3.48467e-11
3.4817e-11
3.47873e-11
3.47577e-11
3.4728e-11
3.46984e-11
3.46688e-11
3.46391e-11
3.46095e-11
3.45799e-11
3.45503e-11
3.45206e-11
3.4491e-11
3.44614e-11
3.44318e-11
3.44022e-11
3.43727e-11
3.43431e-11
3.43135e-11
3.42839e-11
3.42544e-11
3.42248e-11
3.41953e-11
3.41657e-11
3.41362e-11
3.41066e-11
3.40771e-11
3.40476e-11
3.4018e-11
3.39885e-11
3.3959e-11
3.39295e-11
3.39e-11
3.38705e-11
3.3841e-11
3.38115e-11
3.37821e-11
3.37526e-11
3.37231e-11
3.36937e-11
3.36642e-11
3.36348e-11
3.36053e-11
3.35759e-11
3.35464e-11
3.3517e-11
3.43856e-11
3.43609e-11
3.43362e-11
3.43116e-11
3.42869e-11
3.42622e-11
3.42376e-11
3.42129e-11
3.41883e-11
3.41637e-11
3.4139e-11
3.41144e-11
3.40898e-11
3.40652e-11
3.40406e-11
3.4016e-11
3.39915e-11
3.39669e-11
3.39423e-11
3.39178e-11
3.38932e-11
3.38687e-11
3.38442e-11
3.38197e-11
3.37951e-11
3.37706e-11
3.37461e-11
3.37216e-11
3.36972e-11
3.36727e-11
3.36482e-11
3.36238e-11
3.35993e-11
3.35749e-11
3.35504e-11
3.3526e-11
3.35016e-11
3.34772e-11
3.34528e-11
3.34284e-11
3.3404e-11
3.33796e-11
3.33552e-11
3.33309e-11
3.33065e-11
3.32821e-11
3.32578e-11
3.32335e-11
3.32091e-11
3.31848e-11
3.31605e-11
3.31362e-11
3.31119e-11
3.30876e-11
3.30633e-11
3.30391e-11
3.30148e-11
3.29905e-11
3.29663e-11
3.2942e-11
3.5219e-11
3.52089e-11
3.51988e-11
3.51887e-11
3.51785e-11
3.51684e-11
3.51582e-11
3.5148e-11
3.51378e-11
3.51276e-11
3.51174e-11
3.51072e-11
3.50969e-11
3.50867e-11
3.50764e-11
3.50661e-11
3.50559e-11
3.50456e-11
3.50352e-11
3.50249e-11
3.50146e-11
3.50042e-11
3.49939e-11
3.49835e-11
3.49731e-11
3.49627e-11
3.49523e-11
3.49419e-11
3.49315e-11
3.49211e-11
3.49106e-11
3.49001e-11
3.48897e-11
3.48792e-11
3.48687e-11
3.48582e-11
3.48476e-11
3.48371e-11
3.48266e-11
3.4816e-11
3.48054e-11
3.47949e-11
3.47843e-11
3.47737e-11
3.4763e-11
3.47524e-11
3.47418e-11
3.47311e-11
3.47204e-11
3.47098e-11
3.46991e-11
3.46884e-11
3.46777e-11
3.46669e-11
3.46562e-11
3.46455e-11
3.46347e-11
3.46239e-11
3.46131e-11
3.46023e-11
3.51934e-11
3.52131e-11
3.52326e-11
3.52522e-11
3.52717e-11
3.52911e-11
3.53105e-11
3.53299e-11
3.53492e-11
3.53685e-11
3.53877e-11
3.54069e-11
3.5426e-11
3.54451e-11
3.54642e-11
3.54832e-11
3.55021e-11
3.5521e-11
3.55399e-11
3.55587e-11
3.55775e-11
3.55962e-11
3.56149e-11
3.56335e-11
3.56521e-11
3.56707e-11
3.56892e-11
3.57076e-11
3.5726e-11
3.57444e-11
3.57627e-11
3.5781e-11
3.57992e-11
3.58174e-11
3.58355e-11
3.58536e-11
3.58717e-11
3.58897e-11
3.59076e-11
3.59255e-11
3.59434e-11
3.59612e-11
3.5979e-11
3.59967e-11
3.60144e-11
3.60321e-11
3.60497e-11
3.60672e-11
3.60847e-11
3.61022e-11
3.61196e-11
3.6137e-11
3.61543e-11
3.61716e-11
3.61888e-11
3.6206e-11
3.62231e-11
3.62402e-11
3.62573e-11
3.62743e-11
2.98344e-11
2.98216e-11
2.98089e-11
2.97961e-11
2.97834e-11
2.97706e-11
2.97578e-11
2.9745e-11
2.97322e-11
2.97194e-11
2.97066e-11
2.96938e-11
2.9681e-11
2.96682e-11
2.96554e-11
2.96426e-11
2.96297e-11
2.96169e-11
2.96041e-11
2.95912e-11
2.95784e-11
2.95655e-11
2.95527e-11
2.95398e-11
2.95269e-11
2.95141e-11
2.95012e-11
2.94883e-11
2.94754e-11
2.94625e-11
2.94496e-11
2.94367e-11
2.94238e-11
2.94109e-11
2.9398e-11
2.93851e-11
2.93722e-11
2.93592e-11
2.93463e-11
2.93334e-11
2.93204e-11
2.93075e-11
2.92945e-11
2.92815e-11
2.92686e-11
2.92556e-11
2.92426e-11
2.92297e-11
2.92167e-11
2.92037e-11
2.91907e-11
2.91777e-11
2.91647e-11
2.91517e-11
2.91387e-11
2.91257e-11
2.91126e-11
2.90996e-11
2.90866e-11
2.90736e-11
4.2419e-11
4.23751e-11
4.23313e-11
4.22874e-11
4.22436e-11
4.21997e-11
4.21559e-11
4.21121e-11
4.20683e-11
4.20245e-11
4.19807e-11
4.1937e-11
4.18932e-11
4.18495e-11
4.18058e-11
4.1762e-11
4.17183e-11
4.16746e-11
4.1631e-11
4.15873e-11
4.15436e-11
4.15e-11
4.14564e-11
4.14127e-11
4.13691e-11
4.13255e-11
4.12819e-11
4.12384e-11
4.11948e-11
4.11512e-11
4.11077e-11
4.10642e-11
4.10207e-11
4.09772e-11
4.09337e-11
4.08902e-11
4.08467e-11
4.08033e-11
4.07598e-11
4.07164e-11
4.0673e-11
4.06295e-11
4.05861e-11
4.05428e-11
4.04994e-11
4.0456e-11
4.04127e-11
4.03693e-11
4.0326e-11
4.02827e-11
4.02394e-11