/*--------------------------------*- C++ -*----------------------------------*\
| =========                 |                                                 |
| \\      /  F ield         | OpenFOAM: The Open Source CFD Toolbox           |
|  \\    /   O peration     | Version:  2.1.1                                 |
|   \\  /    A nd           | Web:      www.OpenFOAM.org                      |
|    \\/     M anipulation  |                                                 |
\*---------------------------------------------------------------------------*/
FoamFile
{
    version     2.0;
    format      ascii;
    class       Cloud<solidParticle>;
    location    "0.00125";
    object      positions;
}
// * * * * * * * * * * * * * * * * * * * * * * * * * * * * * * * * * * * * * //

44454
(
(0.000657717 0.00899142 0.00101072) 20041
(0.0222482 0.00623692 0.00199523) 13484
(0.0221714 0.00623946 0.00199838) 13484
(0.0220886 0.00624234 0.00200173) 13484
(0.0220024 0.00624545 0.00200521) 13484
(0.0219114 0.00624886 0.00200881) 13483
(0.0218154 0.00625252 0.00201245) 13483
(0.0217136 0.00625649 0.00201617) 13483
(0.021608 0.00626063 0.00201966) 13483
(0.0214975 0.00626499 0.00202298) 13482
(0.0213814 0.00626969 0.00202614) 13482
(0.0212605 0.00627477 0.00202908) 13482
(0.021134 0.00628038 0.00203185) 13482
(0.0210019 0.00628671 0.00203452) 13482
(0.0208663 0.00629383 0.00203713) 13481
(0.0207296 0.00630182 0.00203983) 13481
(0.020593 0.00631073 0.00204276) 13481
(0.0228153 0.00622042 0.00196818) 13485
(0.0227565 0.0062203 0.00196813) 13485
(0.0226952 0.00622043 0.00196809) 13485
(0.0226315 0.00622087 0.0019685) 13485
(0.0225649 0.00622159 0.00196929) 13485
(0.0224947 0.00622266 0.00197058) 13484
(0.0224204 0.00622409 0.0019723) 13484
(0.0223424 0.00622579 0.0019742) 13484
(0.0222589 0.00622792 0.00197641) 13484
(0.0221727 0.00623045 0.00197902) 13484
(0.0220808 0.00623341 0.00198204) 13484
(0.0219849 0.00623674 0.00198535) 13483
(0.0218834 0.00624047 0.00198865) 13483
(0.0217774 0.00624462 0.00199214) 13483
(0.0216664 0.00624917 0.00199578) 13483
(0.021552 0.00625402 0.00199937) 13483
(0.0214308 0.0062592 0.00200274) 13482
(0.0213048 0.00626479 0.00200579) 13482
(0.0232714 0.00623075 0.0019719) 13486
(0.0211723 0.00627106 0.00200867) 13482
(0.0232227 0.0062273 0.00196884) 13486
(0.0173093 0.00296731 0.00331432) 31969
(0.0210362 0.00627791 0.00201122) 13482
(0.0231723 0.00622424 0.00196614) 13486
(0.0171699 0.00296245 0.00331452) 31969
(0.0208944 0.00628556 0.00201356) 13481
(0.0231199 0.00622147 0.00196337) 13486
(0.0170242 0.0029577 0.00331503) 31969
(0.0207508 0.00629418 0.00201585) 13481
(0.0230658 0.00621897 0.00196056) 13486
(0.0168656 0.00295242 0.00331612) 31825
(0.0206049 0.00630404 0.00201831) 13481
(0.0230097 0.00621687 0.00195823) 13486
(0.0166916 0.00294636 0.0033179) 31825
(0.0204568 0.00631518 0.00202096) 13480
(0.0229514 0.00621522 0.00195636) 13485
(0.0165001 0.00293923 0.00332049) 31825
(0.0228903 0.00621399 0.00195496) 13485
(0.0162911 0.00293088 0.0033239) 31681
(0.0228267 0.00621306 0.00195352) 13485
(0.0160638 0.00292089 0.00332823) 31681
(0.0227603 0.00621246 0.00195229) 13485
(0.0158205 0.00290902 0.00333351) 31537
(0.0226906 0.00621233 0.00195173) 13485
(0.0155652 0.00289514 0.00333975) 31537
(0.0226164 0.00621269 0.00195183) 13485
(0.0153068 0.00287943 0.00334669) 31393
(0.0225377 0.00621342 0.00195244) 13485
(0.0224564 0.0062146 0.00195325) 13484
(0.0223687 0.00621642 0.00195471) 13484
(0.0222764 0.00621878 0.00195681) 13484
(0.0186815 0.00300074 0.00331942) 817
(0.0221791 0.00622161 0.00195935) 13484
(0.01859 0.00299764 0.00331634) 32401
(0.0220761 0.00622497 0.00196195) 13484
(0.0184948 0.00299428 0.00331366) 32257
(0.0219671 0.006229 0.00196512) 13483
(0.0183935 0.00299046 0.0033115) 32257
(0.0218518 0.00623373 0.00196875) 13483
(0.0236154 0.00625978 0.00199108) 13487
(0.0182885 0.00298639 0.00330962) 32257
(0.021731 0.00623899 0.00197252) 13483
(0.0235726 0.00625345 0.0019854) 13487
(0.0181775 0.00298192 0.00330809) 32257
(0.0216043 0.00624483 0.00197629) 13483
(0.0235281 0.00624738 0.00198013) 13487
(0.0180615 0.00297721 0.00330687) 32257
(0.0214715 0.00625123 0.00198008) 13482
(0.0234818 0.00624171 0.00197541) 13486
(0.0179405 0.00297224 0.00330596) 32113
(0.0213329 0.00625809 0.0019836) 13482
(0.0234337 0.00623621 0.00197037) 13486
(0.0178142 0.00296722 0.0033053) 32113
(0.0211866 0.00626563 0.00198685) 13482
(0.023384 0.00623106 0.00196557) 13486
(0.0176808 0.00296207 0.00330494) 32113
(0.0210336 0.0062742 0.00198989) 13482
(0.0233324 0.00622634 0.0019612) 13486
(0.0175416 0.00295704 0.00330476) 32113
(0.0208746 0.00628381 0.00199258) 13481
(0.0232785 0.00622215 0.0019574) 13486
(0.0173957 0.00295214 0.00330481) 31969
(0.0207093 0.00629488 0.00199527) 13481
(0.0232223 0.0062184 0.00195378) 13486
(0.0172362 0.00294668 0.00330546) 31969
(0.0205384 0.00630773 0.00199828) 13481
(0.023164 0.00621496 0.00194993) 13486
(0.0170601 0.00294036 0.00330683) 31969
(0.0203626 0.00632255 0.00200152) 13480
(0.0231032 0.00621206 0.00194665) 13486
(0.016866 0.00293296 0.003309) 31825
(0.0230394 0.00620972 0.00194393) 13486
(0.0166538 0.00292425 0.00331203) 31825
(0.0229725 0.0062079 0.00194174) 13485
(0.0164218 0.00291379 0.00331599) 31681
(0.0229019 0.00620651 0.00193942) 13485
(0.0166022 0.00458295 0.000900299) 11553
(0.0161746 0.0029014 0.00332094) 31681
(0.0228269 0.00620569 0.00193764) 13485
(0.0165645 0.00458969 0.000897816) 11553
(0.0159147 0.0028866 0.00332701) 31537
(0.019507 0.00301162 0.00333268) 819
(0.0227478 0.00620539 0.00193661) 13485
(0.0165253 0.00459624 0.000895256) 11553
(0.0156534 0.00286989 0.0033337) 31537
(0.0194288 0.00300983 0.00332831) 818
(0.0226645 0.00620567 0.0019364) 13485
(0.0164849 0.00460262 0.000892671) 11552
(0.0154057 0.00285217 0.00334047) 31393
(0.0193477 0.0030078 0.0033241) 818
(0.0225763 0.00620646 0.00193632) 13485
(0.0164435 0.00460884 0.000890073) 11552
(0.0192632 0.00300548 0.00332005) 818
(0.0224825 0.00620793 0.00193685) 13484
(0.016401 0.00461491 0.000887448) 11552
(0.0191748 0.00300284 0.0033162) 818
(0.0223829 0.00621022 0.00193844) 13484
(0.0163575 0.00462081 0.000884804) 11552
(0.0190825 0.00299986 0.00331259) 32545
(0.0222759 0.0062133 0.00194066) 13484
(0.0239052 0.00630295 0.00202461) 13487
(0.0163131 0.00462657 0.000882139) 11552
(0.018987 0.00299657 0.00330921) 32401
(0.0221641 0.00621701 0.00194305) 13484
(0.0238667 0.00629498 0.00201699) 13487
(0.0162678 0.00463216 0.000879453) 11552
(0.0188868 0.00299288 0.00330625) 32401
(0.0220447 0.00622167 0.00194637) 13484
(0.0238263 0.00628689 0.00200925) 13487
(0.0162211 0.00463763 0.000876734) 11552
(0.0187824 0.00298879 0.00330371) 32401
(0.0219176 0.00622726 0.00195035) 13483
(0.0237842 0.00627906 0.00200223) 13487
(0.0161728 0.00464299 0.000873971) 11552
(0.0186743 0.00298433 0.00330142) 32401
(0.021782 0.00623363 0.00195444) 13483
(0.0237399 0.0062714 0.0019957) 13487
(0.0161231 0.00464829 0.00087116) 11552
(0.0185606 0.00297941 0.00329944) 32401
(0.0216403 0.00624085 0.00195877) 13483
(0.0236942 0.00626371 0.00198871) 13487
(0.0160719 0.00465351 0.000868296) 11552
(0.0184437 0.00297429 0.00329767) 32257
(0.0214917 0.00624882 0.0019633) 13482
(0.0236464 0.00625619 0.00198184) 13487
(0.0183221 0.00296889 0.00329617) 32257
(0.0213333 0.00625737 0.0019674) 13482
(0.0235964 0.0062491 0.00197564) 13487
(0.0181963 0.00296348 0.00329487) 32257
(0.0211658 0.00626687 0.00197116) 13482
(0.0235442 0.00624247 0.00197018) 13487
(0.0180645 0.00295809 0.00329375) 32257
(0.0209894 0.00627775 0.00197466) 13481
(0.0234899 0.00623604 0.00196432) 13486
(0.0176086 0.00515144 0.000592779) 7835
(0.0179268 0.00295284 0.00329278) 32113
(0.0208024 0.00629022 0.00197774) 13481
(0.0234332 0.00623012 0.00195881) 13486
(0.0175601 0.00515709 0.000594612) 7835
(0.017782 0.00294781 0.00329194) 32113
(0.020607 0.00630493 0.00198112) 13481
(0.0233742 0.0062248 0.00195389) 13486
(0.0175093 0.00516252 0.000596212) 7835
(0.0176227 0.00294226 0.00329163) 32113
(0.0204022 0.0063225 0.001985) 13480
(0.0233123 0.00622012 0.00194962) 13486
(0.0172953 0.0045533 0.000901031) 11554
(0.0174565 0.00516776 0.000597619) 7834
(0.0174464 0.00293595 0.00329197) 31969
(0.0203453 0.0030205 0.00335336) 820
(0.023247 0.00621585 0.00194512) 13486
(0.0172592 0.00456069 0.000898767) 11554
(0.0174015 0.00517283 0.00059872) 7834
(0.0172508 0.00292845 0.00329302) 31969
(0.0202726 0.0030197 0.00334819) 820
(0.0231791 0.00621214 0.00194078) 13486
(0.0172214 0.00456781 0.000896514) 11554
(0.0173444 0.00517775 0.000599635) 7834
(0.0170346 0.00291944 0.00329501) 31969
(0.0201983 0.00301879 0.00334315) 820
(0.0231082 0.00620917 0.00193723) 13486
(0.0171819 0.00457468 0.00089426) 11554
(0.0172856 0.00518257 0.000600393) 7834
(0.0167967 0.00290834 0.00329806) 31825
(0.020122 0.00301772 0.00333822) 820
(0.0230334 0.00620692 0.00193436) 13486
(0.017141 0.00458138 0.000892001) 11554
(0.0172252 0.0051873 0.000601009) 11914
(0.0165394 0.00289463 0.0033023) 31825
(0.0200433 0.00301644 0.00333344) 820
(0.0229537 0.00620522 0.00193145) 13485
(0.0170987 0.00458788 0.000889734) 11554
(0.0171629 0.00519198 0.000601486) 11914
(0.0162721 0.00287855 0.00330768) 31681
(0.0199619 0.00301495 0.00332877) 819
(0.0228702 0.00620414 0.00192889) 13485
(0.0170552 0.0045942 0.000887454) 11554
(0.0170991 0.00519665 0.000601856) 11914
(0.0160043 0.0028601 0.00331393) 31681
(0.0198776 0.0030132 0.00332418) 819
(0.0149425 0.00369243 0.0034579) 14489
(0.0227804 0.0062039 0.0019274) 13485
(0.0242053 0.00636692 0.0020853) 13428
(0.0170112 0.00460036 0.00088542) 11554
(0.0170347 0.00520134 0.000602375) 11914
(0.0157584 0.00284143 0.00332038) 31537
(0.0197901 0.00301118 0.00331987) 819
(0.0199885 0.00652139 0.00154876) 6759
(0.0149182 0.00369238 0.00345793) 14489
(0.0148911 0.00378591 0.00366996) 14549
(0.0226863 0.00620435 0.00192691) 13485
(0.0241722 0.0063581 0.00207561) 13488
(0.0169663 0.00460646 0.000883341) 11553
(0.0169686 0.00520609 0.000602764) 11913
(0.0155613 0.00282541 0.00332514) 31537
(0.0196999 0.00300888 0.00331558) 819
(0.0198411 0.00653072 0.00154423) 6759
(0.014894 0.0036923 0.00345797) 14489
(0.0148672 0.00378583 0.00366994) 14549
(0.0225862 0.00620542 0.00192643) 13485
(0.0241379 0.00634927 0.00206573) 13488
(0.0169204 0.00461245 0.000881225) 11553
(0.0169013 0.00521087 0.000603049) 11913
(0.0196057 0.00300618 0.00331141) 819
(0.019681 0.00654197 0.00153963) 6759
(0.0148798 0.00637915 0.00289474) 13529
(0.0148697 0.0036922 0.00345802) 14489
(0.0148435 0.00378574 0.00366993) 14549
(0.02248 0.00620743 0.00192693) 13484
(0.0241017 0.00634051 0.00205655) 13488
(0.0168737 0.00461835 0.000879062) 11553
(0.0168329 0.00521573 0.00060325) 11913
(0.0186408 0.00509291 0.000571938) 7837
(0.0195094 0.00300315 0.00330732) 819
(0.0195069 0.00655549 0.00153501) 6759
(0.0148566 0.00637906 0.00289483) 13529
(0.0148455 0.00369208 0.00345807) 14489
(0.0153532 0.00368717 0.00345926) 14490
(0.0148197 0.00378563 0.00366994) 14549
(0.0223661 0.00621044 0.00192866) 13484
(0.0240635 0.00633163 0.00204757) 13488
(0.0168262 0.00462417 0.000876856) 11553
(0.0167633 0.00522065 0.000603353) 11913
(0.018616 0.00510172 0.000576905) 7837
(0.0194102 0.0029998 0.00330337) 32545
(0.0193215 0.00657139 0.00153055) 6758
(0.0148333 0.00637899 0.00289491) 13529
(0.0148213 0.00369194 0.00345813) 14489
(0.0153291 0.00368748 0.00345923) 14490
(0.014796 0.0037855 0.00366997) 14549
(0.0152934 0.00378186 0.00367518) 14550
(0.0222448 0.00621434 0.00193078) 13484
(0.0240242 0.0063226 0.00203813) 13488
(0.016778 0.00462992 0.000874599) 11553
(0.0166927 0.00522567 0.000603384) 11913
(0.0185854 0.00510969 0.000581199) 7837
(0.0193067 0.00299597 0.00329981) 32545
(0.0191748 0.00657806 0.00152729) 6758
(0.0148101 0.00637895 0.00289499) 13529
(0.0152911 0.00638692 0.00289178) 13530
(0.0147972 0.00369177 0.00345819) 14489
(0.0153049 0.00368777 0.00345921) 14490
(0.0147723 0.00378535 0.00367) 14549
(0.0152691 0.00378207 0.00367497) 14550
(0.0221163 0.00621921 0.00193357) 13484
(0.0239831 0.00631368 0.00202938) 13487
(0.0167286 0.00463563 0.000872284) 11553
(0.0166204 0.00523081 0.000603324) 11913
(0.018553 0.00511727 0.000585223) 7837
(0.0192003 0.00299179 0.00329659) 32545
(0.0190614 0.00658138 0.00152542) 6758
(0.0147868 0.00637894 0.00289507) 13529
(0.0152689 0.00638642 0.00289194) 13530
(0.014773 0.00369158 0.00345825) 14489
(0.0152807 0.00368805 0.00345918) 14490
(0.0147487 0.00378519 0.00367005) 14549
(0.0152449 0.00378227 0.00367477) 14550
(0.0219795 0.00622526 0.00193749) 13483
(0.0239392 0.00630478 0.00202127) 13487
(0.016678 0.00464131 0.000869903) 11553
(0.0165466 0.00523611 0.00060321) 11913
(0.018519 0.00512449 0.000589013) 7837
(0.0190893 0.00298706 0.00329371) 32545
(0.0189567 0.0065841 0.00152387) 6757
(0.0147634 0.00637894 0.00289513) 13529
(0.0152467 0.00638595 0.00289211) 13530
(0.0147489 0.00369137 0.00345832) 14489
(0.0152565 0.00368831 0.00345916) 14490
(0.0147252 0.00378501 0.00367011) 14549
(0.0152207 0.00378245 0.00367457) 14550
(0.0218331 0.0062323 0.00194178) 13483
(0.0238939 0.00629566 0.00201252) 13487
(0.0166264 0.00464699 0.000867454) 11553
(0.0184833 0.00513136 0.000592568) 7836
(0.0189765 0.00298212 0.00329099) 32401
(0.0188595 0.00658712 0.00152284) 6757
(0.0147401 0.00637898 0.00289519) 13529
(0.0152243 0.00638549 0.00289227) 13530
(0.0147249 0.00369114 0.00345839) 14489
(0.0152323 0.00368855 0.00345914) 14490
(0.0147016 0.00378482 0.00367017) 14549
(0.0151966 0.00378262 0.00367438) 14550
(0.0216776 0.00624046 0.0019463) 13483
(0.0238465 0.00628671 0.00200413) 13487
(0.0165735 0.00465267 0.000864931) 11553
(0.0184455 0.00513789 0.000595877) 7836
(0.0188595 0.00297675 0.00328853) 32401
(0.018779 0.00659071 0.001523) 6757
(0.0147167 0.00637903 0.00289524) 13529
(0.0152019 0.00638505 0.00289242) 13530
(0.0147008 0.00369089 0.00345846) 14489
(0.0152081 0.00368878 0.00345912) 14490
(0.0146782 0.00378461 0.00367025) 14549
(0.0151724 0.00378277 0.0036742) 14550
(0.0215127 0.00624971 0.00195115) 13483
(0.0237969 0.00627801 0.0019965) 13487
(0.0165195 0.00465835 0.00086233) 11553
(0.0184055 0.0051441 0.000598933) 7836
(0.0187389 0.00297114 0.0032863) 32401
(0.0187076 0.00659459 0.00152375) 6757
(0.0146932 0.00637911 0.00289528) 13529
(0.0151795 0.00638464 0.00289258) 13530
(0.0145818 0.00421689 0.0018697) 14129
(0.0146769 0.00369061 0.00345854) 14489
(0.0151839 0.00368899 0.0034591) 14490
(0.0156871 0.00367921 0.00346092) 14491
(0.0146547 0.00378438 0.00367034) 14549
(0.0151483 0.0037829 0.00367402) 14550
(0.0146975 0.00638447 0.00312824) 15269
(0.0213354 0.00625983 0.00195563) 13482
(0.023745 0.00626949 0.00198925) 13487
(0.0164643 0.00466401 0.00085965) 11552
(0.0183632 0.00514999 0.000601715) 7836
(0.0186136 0.00296531 0.00328432) 32401
(0.0212342 0.00302512 0.00337216) 822
(0.0186352 0.00659851 0.00152432) 6757
(0.0146698 0.00637921 0.00289531) 13529
(0.015157 0.00638424 0.00289272) 13530
(0.0145594 0.00421668 0.00186968) 14129
(0.0146529 0.00369031 0.00345862) 14489
(0.0151597 0.00368917 0.00345909) 14490
(0.0156633 0.00367966 0.00346084) 14491
(0.0146314 0.00378413 0.00367044) 14549
(0.0151242 0.00378302 0.00367385) 14550
(0.0144653 0.00500763 0.00438051) 14848
(0.0146741 0.00638462 0.00312833) 15269
(0.0151627 0.00638817 0.00312753) 15270
(0.0211473 0.00627111 0.00195973) 13482
(0.0236912 0.006261 0.00198141) 13487
(0.0164078 0.00466968 0.000856905) 11552
(0.0180032 0.00453218 0.000902429) 11556
(0.0183183 0.00515558 0.000604222) 7836
(0.0184831 0.00295958 0.00328251) 32257
(0.0211636 0.0030252 0.00336726) 822
(0.0185621 0.00660243 0.00152471) 6757
(0.0146463 0.00637934 0.00289533) 13529
(0.0151344 0.00638386 0.00289287) 13530
(0.015593 0.00639744 0.0028889) 13531
(0.0145371 0.00421645 0.00186966) 14129
(0.014629 0.00368999 0.00345871) 14489
(0.0151354 0.00368934 0.00345907) 14490
(0.0156394 0.00368011 0.00346076) 14491
(0.014608 0.00378387 0.00367055) 14549
(0.0151001 0.00378312 0.00367369) 14550
(0.0156015 0.00377578 0.0036809) 14551
(0.0144424 0.00500747 0.00438088) 14848
(0.0149255 0.00501064 0.00437974) 14849
(0.0146507 0.00638479 0.00312842) 15269
(0.0151399 0.00638784 0.00312755) 15270
(0.0209472 0.00628423 0.00196349) 13481
(0.0236348 0.00625299 0.00197425) 13487
(0.01635 0.00467532 0.000854093) 11612
(0.0179696 0.00454045 0.000900698) 11555
(0.0182707 0.0051609 0.000606468) 11916
(0.0183484 0.00295424 0.00328073) 32257
(0.0210908 0.00302518 0.00336249) 822
(0.0184889 0.00660619 0.00152493) 6756
(0.0146228 0.00637949 0.00289535) 13529
(0.0151117 0.0063835 0.00289301) 13530
(0.015572 0.00639676 0.00288907) 13531
(0.0145147 0.00421621 0.00186962) 14129
(0.0149753 0.00421523 0.0018657) 14129
(0.0146051 0.00368965 0.0034588) 14489
(0.0151112 0.00368949 0.00345906) 14490
(0.0156156 0.00368054 0.00346068) 14491
(0.0145847 0.00378359 0.00367067) 14549
(0.015076 0.00378321 0.00367354) 14550
(0.0155774 0.00377612 0.00368063) 14551
(0.0144195 0.00500732 0.00438126) 14848
(0.0149021 0.00501044 0.0043797) 14849
(0.0146273 0.00638498 0.00312852) 15269
(0.015117 0.00638753 0.00312758) 15270
(0.0207344 0.00629959 0.0019669) 13481
(0.0235758 0.0062455 0.00196795) 13487
(0.0162907 0.00468093 0.000851186) 11612
(0.0179356 0.00454843 0.000898967) 11555
(0.0182206 0.00516599 0.000608466) 11916
(0.0182054 0.00294911 0.00327906) 32257
(0.0210162 0.00302502 0.00335782) 822
(0.0184152 0.00660985 0.00152498) 6756
(0.0145993 0.00637966 0.00289536) 13529
(0.015089 0.00638317 0.00289314) 13530
(0.0155509 0.00639609 0.00288924) 13531
(0.0144924 0.00421596 0.00186958) 14128
(0.0149527 0.0042153 0.00186593) 14129
(0.0145812 0.00368928 0.00345889) 14489
(0.0150869 0.00368961 0.00345905) 14490
(0.0155917 0.00368097 0.00346061) 14491
(0.0145615 0.0037833 0.0036708) 14549
(0.015052 0.00378328 0.0036734) 14550
(0.0155532 0.00377645 0.00368037) 14551
(0.0143966 0.00500717 0.00438166) 14848
(0.0148787 0.00501024 0.0043797) 14849
(0.0146038 0.00638519 0.00312862) 15269
(0.0150941 0.00638725 0.0031276) 15270
(0.0205088 0.00631834 0.001971) 13481
(0.023514 0.00623836 0.00196167) 13487
(0.0178999 0.00455611 0.000897246) 11555
(0.0181678 0.00517088 0.000610216) 11916
(0.0180476 0.00294353 0.00327781) 32257
(0.0209381 0.00302466 0.00335334) 821
(0.0183408 0.00661346 0.00152485) 6756
(0.020992 0.00652148 0.00156086) 6761
(0.0145757 0.00637985 0.00289535) 13529
(0.0150662 0.00638286 0.00289327) 13530
(0.0155298 0.00639543 0.00288941) 13531
(0.0144702 0.0042157 0.00186952) 14128
(0.0149302 0.00421535 0.00186614) 14129
(0.0145574 0.0036889 0.00345899) 14489
(0.0150626 0.00368971 0.00345905) 14490
(0.0155678 0.00368138 0.00346053) 14491
(0.0145382 0.00378299 0.00367094) 14549
(0.015028 0.00378333 0.00367326) 14550
(0.015529 0.00377677 0.00368011) 14551
(0.0143738 0.00500702 0.00438208) 14848
(0.0148553 0.00501004 0.00437971) 14849
(0.0145804 0.00638542 0.00312872) 15269
(0.0150711 0.00638698 0.00312763) 15270
(0.0202677 0.00634153 0.00197612) 13480
(0.0234504 0.00623175 0.00195535) 13486
(0.0178623 0.0045635 0.000895534) 11555
(0.0181123 0.0051756 0.000611742) 11916
(0.017871 0.00293706 0.00327721) 32113
(0.0208586 0.0030242 0.00334894) 821
(0.0182659 0.00661721 0.00152452) 6756
(0.0209135 0.00652314 0.00155919) 6761
(0.0145521 0.00638006 0.00289534) 13529
(0.0150432 0.00638257 0.0028934) 13530
(0.0155085 0.00639478 0.00288958) 13531
(0.0144479 0.00421542 0.00186946) 14128
(0.0149076 0.00421539 0.00186635) 14129
(0.0145335 0.00368849 0.00345909) 14489
(0.0150383 0.00368979 0.00345906) 14490
(0.0155439 0.00368178 0.00346046) 14491
(0.0145151 0.00378266 0.00367109) 14549
(0.015004 0.00378336 0.00367314) 14550
(0.0155048 0.00377708 0.00367985) 14551
(0.014351 0.00500687 0.0043825) 14848
(0.0148319 0.00500984 0.00437974) 14849
(0.0145569 0.00638568 0.00312883) 15269
(0.015048 0.00638675 0.00312767) 15270
(0.0233829 0.00622592 0.00194977) 13486
(0.0178226 0.00457061 0.000893821) 11555
(0.0180545 0.00518017 0.000613061) 11916
(0.0176732 0.00292942 0.0032774) 32113
(0.0207777 0.00302361 0.00334461) 821
(0.0181919 0.00662112 0.00152405) 6756
(0.0208233 0.00652583 0.00155669) 6761
(0.0145285 0.0063803 0.00289533) 13529
(0.0150203 0.00638231 0.00289352) 13530
(0.0154871 0.00639415 0.00288975) 13530
(0.0144257 0.00421514 0.00186938) 14128
(0.014885 0.00421542 0.00186654) 14129
(0.0145098 0.00368806 0.00345919) 14489
(0.0150139 0.00368984 0.00345906) 14490
(0.0155199 0.00368216 0.0034604) 14491
(0.0144919 0.00378232 0.00367126) 14548
(0.0149801 0.00378338 0.00367304) 14549
(0.0154805 0.00377737 0.0036796) 14550
(0.0143282 0.00500673 0.00438294) 14848
(0.0148086 0.00500963 0.0043798) 14849
(0.0145334 0.00638594 0.00312895) 15269
(0.0150248 0.00638653 0.00312771) 15270
(0.0233122 0.00622084 0.0019449) 13486
(0.0177811 0.00457748 0.000892097) 11555
(0.0179941 0.00518462 0.000614177) 11915
(0.0174513 0.00291998 0.00327866) 31969
(0.0206937 0.00302283 0.00334041) 821
(0.018118 0.00662506 0.00152338) 6756
(0.0207213 0.00652962 0.00155351) 6761
(0.0145048 0.00638055 0.0028953) 13529
(0.0149972 0.00638206 0.00289365) 13529
(0.0154657 0.00639353 0.00288992) 13530
(0.0148237 0.00442014 0.00175066) 14069
(0.0144035 0.00421484 0.0018693) 14128
(0.0148624 0.00421543 0.00186672) 14129
(0.014486 0.00368761 0.0034593) 14488
(0.0149896 0.00368986 0.00345908) 14489
(0.0154959 0.00368254 0.00346034) 14490
(0.0144688 0.00378197 0.00367143) 14548
(0.0149561 0.00378338 0.00367294) 14549
(0.0154563 0.00377766 0.00367935) 14550
(0.0143054 0.0050066 0.00438339) 14848
(0.0147852 0.00500943 0.00437988) 14849
(0.0145099 0.00638623 0.00312907) 15269
(0.0150016 0.00638634 0.00312775) 15270
(0.0232386 0.0062163 0.00193982) 13486
(0.017738 0.00458414 0.00089036) 11555
(0.0179315 0.00518901 0.000615118) 11915
(0.0172062 0.00290828 0.00328104) 31969
(0.0206079 0.0030219 0.00333629) 821
(0.0180431 0.00662905 0.00152243) 2496
(0.0206078 0.00653467 0.00154986) 6761
(0.0144812 0.00638083 0.00289526) 13528
(0.0149741 0.00638185 0.00289376) 13529
(0.0154441 0.00639292 0.00289009) 13530
(0.0143475 0.00441865 0.00175248) 14068
(0.0148013 0.00442013 0.00175081) 14069
(0.0143813 0.00421453 0.00186921) 14128
(0.0148398 0.00421542 0.00186689) 14129
(0.0144623 0.00368714 0.00345942) 14488
(0.0149652 0.00368987 0.0034591) 14489
(0.0154718 0.0036829 0.00346029) 14490
(0.0144458 0.0037816 0.00367162) 14548
(0.0149322 0.00378336 0.00367286) 14549
(0.0154321 0.00377794 0.00367911) 14550
(0.0142826 0.00500647 0.00438385) 14848
(0.0147619 0.00500923 0.00437998) 14849
(0.0144864 0.00638653 0.00312919) 15268
(0.0149784 0.00638617 0.0031278) 15269
(0.0154541 0.00639604 0.00312793) 15270
(0.0231607 0.0062125 0.00193497) 13486
(0.0244365 0.00643088 0.00214969) 13428
(0.0176932 0.00459059 0.000888604) 11555
(0.0178668 0.00519334 0.000615903) 11915
(0.0193449 0.00505361 0.000553957) 7838
(0.0169388 0.0028935 0.00328472) 31825
(0.0205212 0.00302084 0.00333221) 821
(0.0179662 0.00663296 0.00152109) 2495
(0.0204823 0.00654127 0.00154585) 6760
(0.0144575 0.00638112 0.00289522) 13528
(0.0149509 0.00638166 0.00289387) 13529
(0.0154225 0.00639232 0.00289026) 13530
(0.0143252 0.00441848 0.00175223) 14068
(0.0147788 0.00442011 0.00175094) 14069
(0.0143591 0.00421421 0.0018691) 14128
(0.0148172 0.00421541 0.00186704) 14129
(0.0152742 0.00420999 0.00185915) 14130
(0.0144386 0.00368665 0.00345953) 14488
(0.0149409 0.00368985 0.00345913) 14489
(0.0154478 0.00368325 0.00346024) 14490
(0.0144227 0.00378122 0.00367182) 14548
(0.0149084 0.00378333 0.00367279) 14549
(0.0154078 0.0037782 0.00367888) 14550
(0.0142598 0.00500634 0.00438432) 14848
(0.0147387 0.00500903 0.0043801) 14849
(0.0144628 0.00638685 0.00312932) 15268
(0.0149551 0.00638603 0.00312785) 15269
(0.0154322 0.00639546 0.00312792) 15270
(0.0230788 0.0062096 0.00193093) 13486
(0.024406 0.00642129 0.00214048) 13428
(0.0176469 0.00459687 0.000886823) 11555
(0.0178004 0.00519765 0.000616543) 11915
(0.0193457 0.005066 0.000561576) 7838
(0.0166602 0.00287569 0.00328981) 31825
(0.0204314 0.00301954 0.00332823) 820
(0.0178862 0.00663679 0.00151925) 2495
(0.020345 0.00654959 0.00154161) 6760
(0.0144338 0.00638144 0.00289517) 13528
(0.0149276 0.00638149 0.00289398) 13529
(0.0154008 0.00639174 0.00289042) 13530
(0.0143029 0.0044183 0.00175198) 14068
(0.0147564 0.00442008 0.00175106) 14069
(0.014337 0.00421388 0.00186899) 14128
(0.0147947 0.00421537 0.00186718) 14129
(0.0152521 0.00421023 0.00185956) 14130
(0.014415 0.00368615 0.00345965) 14488
(0.0149165 0.00368981 0.00345916) 14489
(0.0154236 0.00368359 0.0034602) 14490
(0.0143997 0.00378083 0.00367204) 14548
(0.0148846 0.00378328 0.00367274) 14549
(0.0153836 0.00377846 0.00367866) 14550
(0.014237 0.00500622 0.00438479) 14848
(0.0147154 0.00500883 0.00438023) 14849
(0.0144393 0.00638719 0.00312946) 15268
(0.0149317 0.00638591 0.00312791) 15269
(0.0154102 0.00639491 0.00312791) 15270
(0.0229926 0.00620747 0.00192755) 13485
(0.0243753 0.00641168 0.00213079) 13428
(0.0175993 0.004603 0.000885016) 11555
(0.0177321 0.00520195 0.000617047) 11915
(0.0193426 0.00507767 0.000568739) 7838
(0.0163846 0.00285552 0.00329576) 31681
(0.0203396 0.00301803 0.00332426) 820
(0.0178031 0.00664045 0.00151686) 2495
(0.0201947 0.00656 0.00153726) 6760
(0.01441 0.00638177 0.00289512) 13528
(0.0149043 0.00638134 0.00289408) 13529
(0.015379 0.00639118 0.00289059) 13530
(0.0142806 0.00441812 0.00175171) 14068
(0.0147339 0.00442005 0.00175116) 14069
(0.0143148 0.00421354 0.00186887) 14128
(0.0147721 0.00421532 0.00186731) 14129
(0.0152299 0.00421045 0.00185996) 14130
(0.0143914 0.00368563 0.00345977) 14488
(0.0148922 0.00368974 0.0034592) 14489
(0.0153995 0.00368391 0.00346017) 14490
(0.0143768 0.00378042 0.00367226) 14548
(0.0148608 0.00378321 0.0036727) 14549
(0.0153593 0.0037787 0.00367844) 14550
(0.0142143 0.0050061 0.00438528) 14848
(0.0146922 0.00500863 0.00438039) 14849
(0.0144158 0.00638754 0.0031296) 15268
(0.0149083 0.00638582 0.00312797) 15269
(0.0153882 0.00639437 0.0031279) 15270
(0.0229007 0.00620599 0.00192389) 13485
(0.0243438 0.00640203 0.00212056) 13428
(0.0175506 0.00460901 0.000883183) 11555
(0.0176626 0.0052063 0.000617452) 11915
(0.0193355 0.00508864 0.000575457) 7838
(0.0161391 0.00283573 0.00330148) 31681
(0.020245 0.00301624 0.00332032) 820
(0.0177167 0.00664381 0.00151384) 2495
(0.0200295 0.00657287 0.00153277) 6760
(0.0143863 0.00638213 0.00289505) 13528
(0.014881 0.00638123 0.00289418) 13529
(0.0153571 0.00639063 0.00289076) 13530
(0.0141085 0.00579297 0.00189666) 13768
(0.0142584 0.00441794 0.00175142) 14068
(0.0147115 0.00442001 0.00175123) 14069
(0.0142927 0.00421319 0.00186874) 14128
(0.0147495 0.00421526 0.00186742) 14129
(0.0152078 0.00421067 0.00186034) 14130
(0.0143678 0.00368509 0.00345989) 14488
(0.0148679 0.00368966 0.00345925) 14489
(0.0153754 0.00368422 0.00346014) 14490
(0.0143538 0.00378001 0.00367249) 14548
(0.0148371 0.00378314 0.00367268) 14549
(0.0153351 0.00377894 0.00367823) 14550
(0.0141915 0.00500599 0.00438576) 14848
(0.014669 0.00500844 0.00438057) 14849
(0.0143922 0.0063879 0.00312974) 15268
(0.0148848 0.00638575 0.00312804) 15269
(0.015366 0.00639384 0.0031279) 15270
(0.0228032 0.00620541 0.0019212) 13485
(0.0243122 0.00639242 0.00210996) 13428
(0.0175009 0.00461492 0.00088131) 11555
(0.0175917 0.00521068 0.000617752) 11915
(0.0193212 0.00509852 0.000581443) 7838
(0.0159518 0.00281985 0.0033051) 31537
(0.020147 0.00301411 0.00331644) 820
(0.0176263 0.00664669 0.00151007) 2495
(0.0198792 0.00658101 0.00152912) 6759
(0.0143625 0.0063825 0.00289499) 13528
(0.0148575 0.00638113 0.00289427) 13529
(0.0153351 0.0063901 0.00289093) 13530
(0.014086 0.00579318 0.00189633) 13768
(0.0142361 0.00441775 0.00175112) 14068
(0.014689 0.00441996 0.00175129) 14069
(0.0142706 0.00421283 0.0018686) 14128
(0.014727 0.00421518 0.00186752) 14129
(0.0151856 0.00421088 0.00186072) 14130
(0.0143442 0.00368454 0.00346001) 14488
(0.0148437 0.00368955 0.0034593) 14489
(0.0153512 0.00368452 0.00346011) 14490
(0.0143309 0.00377958 0.00367273) 14548
(0.0148134 0.00378304 0.00367267) 14549
(0.0153108 0.00377916 0.00367802) 14550
(0.0141688 0.00500588 0.00438626) 14848
(0.0146459 0.00500825 0.00438076) 14849
(0.0143687 0.00638828 0.00312989) 15268
(0.0148614 0.00638571 0.00312811) 15269
(0.0153438 0.00639334 0.0031279) 15270
(0.0226994 0.00620573 0.00191987) 13485
(0.0242795 0.00638274 0.00209887) 13428
(0.0174503 0.00462073 0.000879395) 11554
(0.0175192 0.00521511 0.000617935) 11915
(0.0193015 0.00510759 0.000586815) 7838
(0.0200484 0.00301174 0.00331252) 820
(0.0175309 0.00664905 0.00150544) 2495
(0.0197525 0.00658511 0.00152665) 6759
(0.0143387 0.0063829 0.00289491) 13528
(0.0148341 0.00638107 0.00289436) 13529
(0.015313 0.00638958 0.00289109) 13530
(0.0140635 0.0057934 0.001896) 13768
(0.0142138 0.00441756 0.00175081) 14068
(0.0146666 0.0044199 0.00175133) 14069
(0.0151187 0.00441873 0.00174342) 14070
(0.0142485 0.00421246 0.00186844) 14128
(0.0147045 0.00421509 0.00186761) 14129
(0.0151634 0.00421107 0.00186108) 14130
(0.0143206 0.00368398 0.00346013) 14488
(0.0148194 0.00368943 0.00345935) 14489
(0.015327 0.0036848 0.00346009) 14490
(0.014308 0.00377913 0.00367297) 14548
(0.0147898 0.00378293 0.00367267) 14549
(0.0152866 0.00377937 0.00367782) 14550
(0.0141461 0.00500578 0.00438676) 14848
(0.0146228 0.00500806 0.00438097) 14849
(0.0143452 0.00638867 0.00313003) 15268
(0.0148379 0.00638569 0.00312818) 15269
(0.0153215 0.00639285 0.0031279) 15270
(0.0225891 0.0062068 0.00191869) 13485
(0.0242454 0.00637302 0.00208752) 13428
(0.0173988 0.00462644 0.000877425) 11554
(0.0174455 0.00521964 0.000618033) 11914
(0.0192787 0.00511611 0.000591876) 7838
(0.0199471 0.00300899 0.00330863) 819
(0.0196462 0.00658811 0.00152546) 6759
(0.0143149 0.00638331 0.00289483) 13528
(0.0148106 0.00638102 0.00289445) 13529
(0.0152908 0.00638909 0.00289126) 13530
(0.014041 0.00579363 0.00189566) 13768
(0.0141915 0.00441736 0.00175049) 14068
(0.0146441 0.00441983 0.00175134) 14069
(0.0150967 0.00441884 0.00174383) 14070
(0.0142265 0.00421208 0.00186828) 14128
(0.014682 0.00421498 0.00186768) 14129
(0.0151411 0.00421126 0.00186143) 14130