/*--------------------------------*- C++ -*----------------------------------*\
| =========                 |                                                 |
| \\      /  F ield         | OpenFOAM: The Open Source CFD Toolbox           |
|  \\    /   O peration     | Version:  2.1.1                                 |
|   \\  /    A nd           | Web:      www.OpenFOAM.org                      |
|    \\/     M anipulation  |                                                 |
\*---------------------------------------------------------------------------*/
FoamFile
{
    version     2.0;
    format      ascii;
    class       scalarField;
    location    "0.00125";
    object      T;
}
// * * * * * * * * * * * * * * * * * * * * * * * * * * * * * * * * * * * * * //


44454
(
603.821
523.347
516.796
510.194
503.938
497.952
491.628
485.461
479.579
474.452
470.003
465.614
461.879
459.117
457.248
455.328
453.828
571.117
563.013
554.856
546.583
538.251
530.212
522.177
513.759
505.258
496.768
488.228
480.207
472.233
463.971
455.907
448.189
441.66
434.781
632.215
428.279
623.402
701.064
422.431
614.415
692.417
417.93
605.223
683.883
412.707
595.948
674.637
407.778
586.773
664.704
403.833
577.706
654.107
568.274
642.818
558.562
630.718
3.91153e+180
619.73
4.72822e+222
609.866
528.749
600.312
518.826
509.366
499.606
489.524
757.207
479.448
750.809
469.36
743.936
459.951
3.91153e+180
450.463
685.262
729.14
440.671
676.745
721.133
431.038
667.994
712.733
422.373
659.18
703.885
414.008
650.071
695.021
405.403
640.462
685.798
397.377
630.404
676.265
390.616
620.06
665.895
3.91153e+180
609.562
654.58
375.108
598.772
642.274
368.512
3.91153e+180
628.402
576.766
613.289
566.054
595.145
555.22
746.091
576.946
1.19354e+190
746.851
556.46
776.417
532.243
2.06697e+161
535.096
772.721
520.557
747.96
512.241
2.06685e+161
508.864
2.06697e+161
763.717
2.06697e+161
748.135
758.406
486.6
747.823
752.504
474.968
731.338
747.29
746.028
463.348
723.737
746.52
6.75387e+87
451.901
2.06697e+161
745.406
731.988
441.267
707.165
743.889
724.39
429.928
698.372
6.75387e+87
9.09155e+223
2.06697e+161
689.284
739.724
708.106
408.204
679.708
699.693
398.289
669.693
691.279
387.918
659.487
682.907
378.627
649.195
755.763
674.304
369.594
638.556
6.75387e+87
665.81
359.667
627.253
760.102
656.733
351.298
4.2695e+257
715.138
761.881
646.32
798.696
603.418
2.06697e+161
763.331
9.09155e+223
4.2695e+257
590.967
714.974
764.495
622.972
791.465
578.179
714.542
765.363
608.071
787.59
565.49
713.879
765.938
590.585
783.51
4.2695e+257
712.984
9.09155e+223
9.09155e+223
779.27
540.348
711.889
766.223
544.045
774.52
539.936
527.047
783.207
710.585
766.081
520.075
769.498
670.991
539.401
608.754
513.58
9.09155e+223
709.041
765.682
494.872
764.045
669.919
538.834
607.588
500.117
768.654
707.088
765.052
758.097
669.239
555.229
538.258
606.354
487.277
761.013
704.746
764.258
737.589
751.605
668.675
554.414
537.653
516.561
605.051
474.484
2.06697e+161
702.081
9.09155e+223
741.08
744.581
668.517
553.598
537.005
516.207
603.658
586.652
461.138
745.225
9.09155e+223
762.065
744.132
737.101
667.163
552.769
546.67
536.292
515.867
602.158
586.094
447.823
737.067
695.619
9.09155e+223
746.993
729.279
665.421
551.895
544.981
535.428
515.515
600.541
585.427
2.06697e+161
728.669
9.09155e+223
758.597
749.706
721.103
663.214
550.942
543.294
534.476
515.099
598.872
584.711
2.06697e+161
720.041
9.09155e+223
9.09155e+223
712.599
661.225
549.988
541.674
533.509
514.686
597.158
583.984
2.06697e+161
710.911
682.29
754.498
703.79
659.399
549.043
540.142
532.509
514.28
595.488
583.265
398.03
701.186
676.895
756.476
694.975
657.541
548.097
538.724
672.094
531.59
513.916
496.743
593.838
582.539
546.675
386.752
9.09155e+223
671.057
758.125
686.243
851.555
655.463
547.25
537.422
669.593
530.748
513.615
496.288
592.191
581.811
564.834
545.629
543.738
374.733
9.09155e+223
664.778
718.719
759.421
677.432
845.105
653.184
546.494
536.219
551.955
667.098
529.952
513.34
495.856
590.537
581.077
560.368
563.273
574.643
544.665
542.107
364.563
669.794
658.103
719.194
760.347
668.503
838.979
650.567
545.802
535.105
549.251
664.593
689.566
529.163
513.065
495.405
588.87
580.319
560.144
561.696
573.384
543.765
540.541
353.745
658.357
9.09155e+223
719.317
760.871
659.811
833.09
647.876
545.156
534.063
546.657
662.088
687.523
528.344
512.787
494.939
587.186
579.54
559.912
560.104
572.107
542.9
539.032
343.124
9.09155e+223
719.168
760.98
651.017
827.456
645.085
699.351
544.552
533.093
544.158
659.582
685.477
527.502
512.512
494.482
585.483
578.739
559.659
558.494
570.806
542.059
537.596
333.535
635.055
718.742
760.667
641.568
822.05
642.202
698.629
543.977
532.183
541.769
657.063
683.407
526.615
512.224
494.039
583.757
577.908
559.385
556.867
569.479
541.235
536.23
622.508
9.09155e+223
759.898
632.395
816.813
639.184
697.628
543.424
531.326
539.451
654.527
681.32
525.702
511.929
493.606
582.005
577.05
559.103
555.225
568.123
540.434
534.931
9.09155e+223
717.014
758.699
622.917
811.707
636.009
696.364
542.883
530.519
537.234
700.084
651.971
679.199
524.765
511.609
493.181
580.232
576.164
558.811
553.568
566.736
539.656
533.692
595.735
9.09155e+223
1.49258e+195
613.108
806.656
632.705
694.904
542.343
529.757
535.107
664.859
697.757
649.39
677.035
523.801
511.265
492.766
578.431
575.249
558.501
551.893
565.315
538.893
532.516
548.746
581.741
825.044
714.2
754.933
9.09155e+223
3.94662e+180
9.09155e+223
629.197
693.285
541.815
529.042
533.087
662.494
695.383
646.774
674.819
700.261
522.804
510.906
492.365
576.617
574.298
558.164
550.203
563.867
538.161
531.412
546.022
567.36
819.359
9.09155e+223
9.09155e+223
738
588.668
796.55
625.507
691.898
541.284
528.366
531.164
660.1
692.941
644.101
672.532
697.682
521.776
510.506
491.964
574.789
573.3
557.8
548.527
562.404
537.46
530.364
543.397
553.344
813.378
9.09155e+223
749.38
743.225
574.268
791.135
621.644
690.984
540.73
527.719
529.329
657.657
690.387
641.373
670.165
695.121
520.757
510.087
491.567
572.943
572.246
557.41
546.871
560.938
536.771
529.365
540.881
539.267
807.159
707.703
745.894
748.125
558.916
785.434
617.619
690.429
540.153
527.094
527.568
484.922
655.153
687.878
638.584
667.698
692.629
519.747
509.632
491.181
571.062
571.133
556.99
545.242
559.475
536.098
528.415
538.462
524.402
800.474
704.945
741.9
752.685
541.932
779.413
613.565
689.006
539.552
526.476
525.871
483.885
652.52
685.443
635.722
665.187
690.217
518.732
509.164
490.808
569.116
569.954
556.53
543.671
558.01
535.429
527.495
536.136
509.156
793.17
9.09155e+223
730.034
756.798
772.932
609.559
687.02
538.906
525.847
524.219
482.882
649.924
683.06
718.469
632.773
662.667
687.872
517.697
508.659
490.454
567.111
568.691
556.02
542.154
556.543
534.739
526.597
533.913
493.837
9.09155e+223
698.173
732.447
760.424
765.978
684.764
538.213
525.191
522.617
481.912
647.466
680.719
715.816
629.797
660.203
685.596
516.623
508.093
490.121
565.032
567.325
555.44
540.693
555.077
534.008
525.694
531.76
479.248
9.09155e+223
9.09155e+223
726.875
763.537
758.345
682.276
537.427
524.494
521.034
480.977
645.078
678.411
713.222
626.875
657.777
683.375
515.488
507.399
489.798
562.843
565.843
554.763
539.29
553.612
533.223
524.758
529.647
464.657
9.09155e+223
684.129
689.6
720.881
766.133
750.178
679.508
536.531
523.728
519.464
480.075
642.739
676.132
710.685
624.054
655.379
681.2
514.254
506.592
489.428
560.475
564.313
554.071
537.941
552.149
532.363
523.763
527.557
449.512
759.408
679.985
684.521
714.372
768.369
741.46
676.927
535.537
522.938
517.935
479.206
640.452
673.87
708.198
621.305
653
679.075
513.06
505.753
489.064
558.098
562.789
553.415
536.65
550.687
522.712
525.53
434.578
750.259
675.37
678.819
707.236
770.332
732.268
941.63
674.436
534.543
522.15
516.501
478.351
671.621
705.758
618.622
650.634
676.986
511.889
504.872
488.715
555.841
561.297
552.76
535.422
549.227
521.666
523.602
420.971
741.079
670.194
672.452
699.496
771.962
722.629
934.823
671.841
533.612
521.381
515.183
477.509
669.378
703.347
616.002
648.274
674.921
510.858
504.087
488.42
553.649
559.814
552.104
534.257
547.77
520.666
521.824
9.09155e+223
731.765
664.453
665.425
691.29
773.204
712.466
927.435
668.979
532.776
520.708
513.977
476.674
667.138
700.987
613.43
645.918
672.881
509.939
503.34
488.16
551.534
558.329
551.447
533.155
546.307
519.754
520.182
392.349
722.33
658.212
9.09155e+223
747.894
682.386
774.082
702.216
919.764
665.845
724.574
532.021
520.11
512.869
475.848
664.893
698.672
610.902
643.567
670.867
509.097
502.606
487.91
549.471
556.831
550.781
532.1
544.836
518.904
518.648
380.119
712.627
651.384
649.433
748.429
674.078
774.557
691.995
911.66
662.414
726.227
531.341
519.57
511.841
475.025
662.657
696.391
608.418
641.212
668.878
508.317
501.862
487.663
547.456
555.313
550.099
531.082
543.359
518.103
517.183
366.697
702.281
644.742
640.546
748.65
667.395
774.676
681.959
903.171
658.692
727.339
530.689
519.075
510.878
660.426
694.145
605.968
638.849
666.888
507.608
501.088
487.421
545.495
553.768
549.401
530.098
541.87
517.329
515.788
2.06697e+161
691.445
638.905
584.261
631.165
748.567
660.625
774.322
672.143
894.469
654.736
727.966
530.076
518.613
509.984
658.194
691.902
603.563
636.471
664.898
506.97
500.301
487.171
543.571
552.191
548.682
540.368
516.569
514.458
343.361
2.06697e+161
9.09155e+223
584.064
621.34
748.236
773.555
662.59
885.607
650.516
728.223
529.494
518.172
509.148
655.956
689.662
601.196
634.075
662.903
506.379
499.498
486.931
541.682
550.578
547.941
538.853
515.82
513.19
2.06697e+161
668.333
626.058
583.766
611.136
747.656
772.368
652.927
876.686
645.966
728.118
528.945
517.736
508.367
653.698
687.415
598.863
631.656
660.89
505.835
498.676
486.687
539.82
548.934
547.171
537.324
515.075
511.987
655.72
9.09155e+223
583.359
787.611
787.611
787.611
600.602
746.769
770.753
732.074
642.988
868.017
641.042
727.749
517.306
507.636
651.42
685.143
596.558
629.211
658.849
505.333
497.827
486.442
537.983
547.273
546.37
535.785
514.339
510.846
642.931
582.836
788.306
2.06697e+161
788.306
9.09155e+223
745.096
768.727
738.964
633.187
859.692
635.807
727.129
516.879
506.947
649.119
682.834
594.27
626.735
656.766
504.888
496.969
486.186
536.191
545.593
545.54
534.232
513.613
509.764
2.06697e+161
861.65
582.19
789.063
789.063
789.063
744.012
766.262
745.69
623.092
851.645
630.233
726.513
516.442
506.307
646.782
680.482
591.999
624.223
654.633
504.515
496.118
485.917
534.465
543.889
544.678
532.672
512.91
508.744
615.859
9.09155e+223
9.09155e+223
789.919
789.919
789.919
742.161
763.316
752.227
613.521
843.94
624.303
726.04
516
505.702
644.391
678.062
589.743
621.66
652.435
504.208
495.272
485.62
532.798
542.16
543.774
531.127
512.228
507.773
2.06697e+161
850.451
580.107
790.748
790.748
790.748
739.976
760.016
758.541
603.56
836.638
617.971
725.267
515.544
505.126
641.938
675.627
587.499
619.037
650.155
503.972
494.43
485.296
531.201
540.401
542.822
529.603
511.56
506.851
585.845
2.06697e+161
9.09155e+223
4.2695e+257
790.978
790.978
737.424
755.973
764.534
592.945
829.561
611.075
723.949
515.058
504.569
639.4
673.279
585.267
616.353
647.779
503.745
493.594
484.937
529.658
538.608
541.811
528.095
510.898
505.971
570.154
9.09155e+223
721.408
576.694
790.484
790.484
790.484
734.472
751.311
770.13
582.84
822.572
603.608
722.506
514.536
504.017
636.83
670.988
613.594
645.382
503.528
492.742
484.553
528.148
536.771
540.735
526.639
510.236
505.12
554.483
9.09155e+223
9.09155e+223
574.463
789.621
789.621
789.621
731.096
746.164
775.203
571.666
815.571
595.579
720.858
513.971
503.457
634.388
668.736
610.734
643.044
503.321
491.866
484.133
526.665
534.876
539.577
525.235
509.554
504.287
2.06697e+161
825.619
9.09155e+223
571.891
9.09155e+223
788.513
788.513
727.285
740.474
779.724
559.871
808.429
587.199
719.001
513.344
502.869
632.026
666.523
607.89
640.733
503.111
490.951
483.635
525.196
532.893
538.318
523.88
508.834
503.443
523.324
818.914
718.673
569.052
787.144
787.144
787.144
811.561
723.045
734.235
783.653
549.047
801.057
578.696
716.938
512.638
502.234
629.712
664.339
605.146
638.45
502.899
489.966
483.015
523.724
530.813
536.936
522.576
508.054
502.567
506.862
811.964
716.309
9.09155e+223
3.94662e+180
9.09155e+223
785.553
804.102
718.259
727.548
786.949
793.179
1021.2
569.87
714.704
511.836
501.533
627.435
662.174
602.473
636.192
502.672
488.911
482.291
522.238
528.593
535.518
521.326
507.191
501.632
490.303
9.09155e+223
713.083
784.117
784.117
784.117
795.929
712.95
720.43
789.629
784.699
1018.01
560.987
712.5
510.921
500.811
625.199
660.023
599.853
633.95
502.476
487.887
481.537
520.758
526.39
534.145
520.129
506.226
500.644
2.06697e+161
796.365
9.09155e+223
782.758
782.758
782.758
778.278
778.278
778.278
787.065
707.097
712.3
791.707
775.696
1014.32
552.265
710.291
509.981
500.098
623.003
657.875
597.289
631.712
502.297
486.869
480.768
519.306
524.293
532.783
518.986
505.257
499.668
458.799
787.566
2.06697e+161
780.443
9.09155e+223
780.443
781.211
781.211
781.211
777.599
700.554
703.458
793.37
766.176
1010.13
544.355
707.856
509.107
499.453
620.847
655.734
594.777
629.48
502.174
485.977
480.115
517.941
522.279
531.415
517.901
504.312
498.749
442.269
9.09155e+223
698.468
777.516
777.516
777.516
783.738
783.738
783.738
767.536
693.256
693.94
794.74
755.999
1005.4
536.654
705.106
748.089
508.299
498.895
618.729
653.591
592.309
627.247
502.141
485.165
479.501
516.698
520.34
530.036
516.874
503.457
497.897
426.441
768.5
692.048
785.69
785.69
785.69
756.881
685.189
789.578
683.734
795.786
745.247
1000.12
702.07
751.786
507.574
498.394
616.644
651.447
589.887
625.016
502.194
484.4
478.906
515.57
518.462
528.638
515.883
502.655
497.095
549.379
2.06697e+161
684.855
9.09155e+223
787.158
787.158
787.158
745.72
676.407
790.691
672.838
796.478
734.106
994.193
698.71
754.917
506.919
497.94
614.591
649.3
587.512
622.782
502.32
483.704
478.303
514.544
516.633
527.218
514.928
501.89
496.329
395.207
748.629
676.779
607.831
788.118
788.118
788.118
734.086
666.957
791.596
661.512
796.809
723.772
987.635
695.008
757.508
506.327
497.52
612.568
647.144
585.175
620.541
502.502
483.065
477.686
513.58
514.837
525.773
514.004
501.154
495.58
380.747
9.09155e+223
667.906
606.754
788.939
788.939
788.939
721.97
656.89
792.243
651.21
796.741
766.658
980.449
690.981
759.575
505.791
497.123
610.576
644.974
582.882
618.285
502.717
482.477
477.038
683.399
683.399
683.399
512.642
513.068
524.3
513.108
500.44
494.84
790.993
781.17
366.376
9.09155e+223
658.969
605.365
789.829
789.829
789.829
709.354
646.177
792.611
641.378
796.311
700.548
972.724
686.586
761.197
505.295
496.74
608.612
642.783
580.626
616
502.948
481.926
476.372
684.443
684.443
684.443
511.728
511.32
522.799
512.239
499.73
494.106
790.834
782.499
2.06697e+161
718.308
9.09155e+223
603.673
790.786
790.786
790.786
696.371
634.857
792.754
631.517
795.642
690.108
964.38
681.841
762.432
504.84
496.364
606.661
640.576
578.403
613.687
503.191
481.404
475.688
685.423
685.423
685.423
510.849
509.601
521.268
574.804
511.394
499.027
493.383
563.66
713.352
790.628
784.226
2.06697e+161
707.533
640.579
601.73
791.688
791.688
791.688
683.267
622.967
792.689
621.669
794.605
680.048
955.486
676.729
763.348
504.404
495.981
508.679
604.733
638.349
576.211
611.34
695.579
695.579
695.579
503.442
480.912
474.981
686.335
686.335
686.335
510.006
507.9
519.716
575.001
510.569
498.332
492.67
567.531
718.248
790.635
786.392
2.06697e+161
696.03
905.463
630.474
599.615
792.303
792.303
792.303
670.18
610.573
792.377
611.706
793.022
750.59
670.016
945.958
671.215
764.082
503.976
495.592
728.942
509.015
617.309
602.823
636.097
574.046
608.955
615.32
696.605
696.605
696.605
503.713
480.467
474.28
687.17
687.17
687.17
509.202
506.236
518.143
575.154
509.759
497.644
491.961
571.819
723.457
791.289
788.963
922.114
684.157
900.283
9.09155e+223
597.392
792.565
792.565
792.565
597.756
791.791
601.525
791.045
758.877
660.371
935.923
665.291
764.779
503.57
495.205
730.405
509.349
618
600.928
633.808
571.901
606.529
616.864
597.754
697.598
697.598
697.598
504.018
480.065
473.582
687.945
687.945
687.945
610.934
508.472
504.615
516.55
575.277
508.971
815.399
496.967
491.269
576.007
728.634
1356.84
1217.02
792.417
792.337
920.931
671.561
894.83
608.685
595.089
792.593
792.593
792.593
584.5
790.887
788.646
766.903
650.401
925.69
658.948
765.065
503.162
494.803
731.726
509.674
618.665
599.034
631.457
569.771
604.052
618.328
598.656
698.584
698.584
698.584
504.356
479.701
472.886
688.695
688.695
688.695
612.293
507.82
503.043
514.928
575.373
508.22
815.073
496.312
490.583
994.371
580.185
734.485
1349.33
1357.01
1216.37
794.095
797.867
920.865
1187
658.16
889.121
597.151
747.57
592.736
792.328
792.328
792.328
570.904
789.657
785.83
774.571
639.427
915.244
652.18
764.821
502.751
494.368
733.026
509.99
619.334
597.145
629.04
567.662
601.521
619.734
599.558
699.554
699.554
699.554
504.735
479.394
472.196
689.433
689.433
689.433
613.675
543.933
507.259
501.533
513.281
575.453
507.512
814.765
495.671
489.901
1035.03
1034.38
991.89
584.926
742.47
1340.66
1351.17
1215.83
795.809
748.401
923.203
1218.88
1097.22
1186.69
644.608
883.176
749.081
590.35
791.747
791.747
791.747
557.036
788.09
782.613
781.82
628.454
904.806
644.85
764.076
502.336
493.905
734.343
510.309
620.04
595.252
626.566
680.545
680.545
680.545
565.572
598.933
621.097
600.457
700.51
700.51
700.51
505.146
479.12
471.506
690.179
690.179
690.179
615.085
544.759
506.792
500.085
511.599
575.53
506.843
814.463
495.051
489.225
1024.73
1033.25
989.175
1332.28
1339.85
1215.56
2095.86
1794.62
751.309
929.496
1204.87
1393.59
1188.16
630.68
876.994
750.37
2.06697e+161
790.791
790.791
790.791
868.096
542.894
786.117
779.02
788.616
616.449
894.542
636.928
763.05
501.884
493.391
735.602
510.627
620.753
593.338
624.177
682.233
682.233
682.233
563.489
596.275
622.406
601.378
701.474
701.474
701.474
505.561
478.864
470.8
690.932
690.932
690.932
616.516
545.699
506.419
498.682
509.865
575.594
506.216
814.183
494.436
488.541
1025.4
1033.12
987.257
1326.12
1215.29
2121.17
1866.38
755.131
940.283
1184.82
1290.24
1176.72
615.459
870.597
751.422
585.242
789.683
789.683
789.683
864.958
783.729
775.187
794.881
604.523
884.527
628.287
761.791
501.387
492.798
736.812
510.932
621.476
591.466
621.867
683.951
683.951
683.951
561.414
593.538
623.664
602.31
702.459
702.459
702.459
505.954
478.614
470.067
691.698
691.698
691.698
617.972
546.755
506.14
497.302
508.077
575.649
552.559
505.633
813.878
493.807
487.833
1026.97
1030.63
985.935
1308.77
1216.72
2114.42
1932.54
759.072
1189.59
1185.87
599.422
9.09155e+223
752.107
582.127
673.569
788.39
788.39
788.39
779.164
779.164
779.164
860.705
780.887
634.165
770.699
800.601
592.74
874.914
618.965
760.329
500.851
492.126
737.983
511.232
485.825
622.208
589.645
619.618
685.688
685.688
685.688
559.342
590.883
624.875
587.671
603.256
703.454
703.454
703.454
630.223
506.31
478.372
469.288
692.488
692.488
692.488
619.456
547.928
505.926
495.93
506.219
575.698
553.382
505.12
813.533
493.147
487.082
1034.61
1029.35
982.811
931.306
1289.52
1216.7
2099.07
1986.31
762.984
909.858
1186.02
1185.68
582.838
857.113
752.355
578.558
673.184
786.268
786.268
786.268
783.813
783.813
783.813
855.256
777.547
633.445
765.49
805.701
579.946
865.67
1074.02
609.146
758.616
500.263
491.36
739.093
511.537
486.093
622.95
587.909
617.417
687.378
687.378
687.378
557.31
588.299
626.025
590.419
604.212
704.426
704.426
704.426
631.959
506.657
478.124
468.438
693.288
693.288
693.288
620.976
549.219
505.745
494.552
504.266
575.746
554.188
504.677
813.155
492.441
486.275
1038.38
1028.06
981.697
927.354
1271.59
1216.41
1990.74
766.959
783.701
1189.55
1185.04
565.737
9.09155e+223
751.961
574.528
672.24
783.548
783.548
783.548
787.874
787.874
787.874
848.903
773.672
632.496
759.81
810.212
568.027
856.755
1073.31
599.105
756.729
499.618
490.469
740.118
702.333
511.857
486.352
623.705
586.256
615.252
689.057
689.057
689.057
555.341
585.77
627.096
593.104
605.159
705.383
705.383
705.383
633.659
507.024
477.85
467.539
694.068
694.068
694.068
622.477
550.582
505.587
493.162
502.191
575.769
554.964
504.301
812.728
491.673
485.393
1046.53
1026.85
980.886
924.778
1256.15
1216.33
1112.81
1983.26
768.266
779.814
1185.11
1184.25
549.138
9.09155e+223
751
570.077
670.908
780.318
780.318
780.318
791.393
791.393
791.393
841.427
769.234
631.056
753.628
814.137
556.291
848.148
1072.36
588.384
754.661
498.942
489.461
741.051
704.825
512.192
486.604
624.482
626.63
584.68
613.119
690.716
690.716
690.716
553.485
583.283
628.098
595.733
606.088
706.332
706.332
706.332
635.323
507.411
477.596
466.651
694.828
694.828
694.828
623.947
551.978
505.497
491.779
500.207
575.746
555.675
503.995
812.25
490.828
484.413
1050.84
1025.62
980.043
924.117
1244.38
1217.51
1108.44
1402.87
1360.48
1702.23
1843.74
2004.33
770.415
783.203
1184.21
1182.67
9.09155e+223
836.212
749.584
565.24
668.942
776.546
776.546
776.546
794.215
794.215
794.215
832.721
764.208
628.934
746.915
817.463
544.049
839.438
1071.12
577.252
752.407
498.29
488.486
741.873
707.353
512.547
486.852
625.281
627.146
583.177
611.023
692.346
692.346
692.346
551.733
580.846
629.037
598.306
607.026
707.276
707.276
707.276
636.957
559.69
507.821
477.353
465.763
695.574
695.574
695.574
625.387
553.402
505.479
490.423
498.312
575.68
556.323
503.75
811.741
490.001
483.431
1054.59
1024.13
979.851
924.164
1235.54
1220.08
1105.73
1396.17
1357.39
1553.68
1949.26
1279.08
2060.97
1347.97
774.189
785.014
1185.86
1185.01
1169.68
514.4
829.083
747.543
560
666.394
772.2
772.2
772.2
796.454
796.454
796.454
832.072
2195.1
758.616
626.227
739.779
820.185
830.546
1069.54
565.78
749.879
764.985
497.699
487.651
742.585
709.882
512.923
487.096
626.138
627.717
581.753
608.967
693.948
693.948
693.948
629.877
550.074
578.447
629.922
600.822
607.981
572.985
708.218
708.218
708.218
638.564
561.521
508.252
477.153
464.994
696.307
696.307
696.307
626.798
554.85
505.538
489.131
496.484
575.572
556.909
649.192
503.573
811.233
547.043
489.193
482.476
1060.12
1022.16
978.957
924.407
1229.02
1222.36
1103.38
1392.4
1347.44
1429.99
2072.23
1333.8
2089.16
1422.03
778.894
787.772
1185
1186.41
1118.15
496.462
821.818
744.647
554.399
663.264
767.336
767.336
767.336
798.412
798.412
798.412
824.266
812.003
752.533
623.037
731.786
822.307
818.287
821.327
1067.58
554.422
747.022
771.258
497.15
486.899
743.25
712.389
513.342
487.351
627.053
628.346
580.201
580.406
606.939
695.524
695.524
695.524
632.002
548.51
576.093
630.756
603.317
608.941
574.122
709.152
709.152
709.152
640.141
563.38
508.707
477.028
464.297
697.032
697.032
697.032
628.183
556.319
505.681
487.946
494.71
575.429
557.434
649.24
503.459
810.714
546.765
488.424
481.59
1063.36
1018.93
978.02
923.641
1224.59
1224.55
1101.36
1346.41
1363.42
2033.1
1389.11
2085.97
1591.93
788.468
791.756
1181.43
1199.83
1088.36
479.629
9.09155e+223
740.803
548.666
638.595
659.508
762.286
762.286
6.22655e+228
799.937
799.937
799.937
816.04
800.249
745.538
822.645
722.864
823.999
821.96
811.648
1065.18
543.204
743.83
776.726
496.635
486.216
743.911
714.853
513.819
487.622
628.026
629.019
580.573
579.135
604.943
697.071
697.071
697.071
634.165
547.04
573.783
631.577
605.822
609.902
575.262
710.08
710.08
710.08
641.689
565.258
509.2
476.974
463.66
697.752
697.752
697.752
629.544
557.81
505.904
486.869
492.979
575.247
557.9
649.263
503.408
810.197
546.512
487.725
480.739
1065.52
1009.41
977.441
922.294
1221.15
1227.05
1099.61
1346.62
1335.08
1952.17
1452.72
1794.44
798.898
794.015
1166.4
1349.46
1092.42
9.09155e+223
806.35
735.988
542.903
638.299
655.079
756.263
756.263
756.263
800.891
800.891
800.891
807.271
787.637
737.897
823.681
713.111
825.364
825.36
801.333
1062.37
531.735
740.294
781.443
496.157
485.587
744.534
717.294
514.365
487.911
629.048
629.725
581.077
577.943
602.971
636.361
550.22
545.663
571.516
632.428
608.341
576.415
711.008
711.008
711.008
643.212
567.147
509.72
476.99
463.081
698.471
698.471
698.471
630.88
559.324
506.198
485.88
491.288
575.088
558.362
649.269
503.405
809.672
546.287
487.079
479.927
1564.36
982.259
976.049
921.649
1217.18
1228.34
1098.12
1347.45
1308.62
1922.79
1537.56
799.636
1136.02
1459.98
1093.87
444.737
797.791
9.09155e+223
537.121
637.863
649.938
749.639
749.639
749.639
801.425
801.425
801.425
797.084
774.131
729.504
824.561
702.598
826.409
828.481
790.244
1059.07
520.912
736.404
785.585
495.718
485.008
745.114
719.712
514.989
488.221
630.092
630.479
581.749
576.809
601.018
638.584
550.672
544.38
569.294
633.315
610.887
577.585
711.939
711.939
711.939
644.711
569.012
510.226
477.058
462.544
699.189
699.189
699.189
632.191
560.859
506.516
484.949
489.626
574.973
558.823
649.258
503.443
809.147
546.096
486.48
479.149
1587.97
949.537
975.072
921.061
1213.39
1230.29
1096.6
1341.74
1284
1213.99
1958.19
1688.89
804.025
1112.66
1443.36
1094.53
2.06697e+161
788.601
9.09155e+223
531.067
637.298
644.637
742.443
742.443
742.443
801.636
801.636
801.636
786.026
759.84
720.359
825.267
691.388
827.124
831.284
778.488
1055.26
510.037
732.172
789.163
495.303
484.471
745.643
722.105
515.688
488.555
631.164
631.273
582.561
575.747
599.087
640.808
589.601
551.242
543.186
567.109
634.246
613.465
578.77
712.85
712.85
712.85
646.162
570.839
510.714
477.144
462.036
699.88
699.88
699.88
633.469
562.371
506.856
484.046
487.981
574.9
559.296
649.296
503.518
808.616
545.94
520.255
485.922
478.391
1611.54
936.647
974.034
920.466
1210.02
1230.72
1094.96
1342.01
1269.78
1256.01
1828.25
811.441
1098.44
1237.99
1094.9
412.165
779.126
714.111
524.508
636.573
639.187
734.695
734.695
734.695
801.766
801.766
801.766
774.27
744.824
710.601
825.769
679.654
827.474
833.757
766.212
1050.88
500.147
727.614
792.193
494.891
483.962
746.129
724.469
516.463
488.916
468.209
632.253
632.099
622.384
583.497
574.763
597.175
643.017
591.687
551.919
542.078
564.95
635.224
616.03
579.97
713.72
713.72
713.72
647.542
572.632
511.199
477.245
461.539
700.518
700.518
700.518
634.672
563.862
507.227
483.172
486.355
574.876
559.786
649.389
503.621
680.185
545.865
519.997
485.382
477.64
1640.48
939.392
972.99
919.833
1207.27
1227.14
1093.46
1340.96
1257.32
1266.09
1912.74
1972.65
1093.84
820.812
1088.4
1157.7
1094.37
395.536
769.502
9.09155e+223
635.538
632.67
726.406
726.406
726.406
802.635
801.854
801.854
761.946
729.09
700.197
826.053
668.447
827.449
835.89
753.706
1045.87
722.736
794.762
494.465
483.462
746.587
726.8
517.314
489.303
468.41
633.329
632.964
625.24
584.577
573.851
595.281
645.215
593.859
552.703
541.05
562.809
636.227
618.557
583.937
581.183
714.557
714.557
714.557
648.858
574.395
511.691
477.365
461.055
701.102
701.102
701.102
635.808
565.334
507.642
482.332
484.743
574.904
560.296
534.854
649.543
529.252
503.75
681.594
545.895
519.79
484.838
476.883
1663.16
941.903
971.828
919.25
1205.31
1220.64
1092.26
1332.79
1246.5
1289.95
1975.61
1983.89
1087.39
832.08
1080.45
1136.17
1093.12
381.363
759.689
694.422
634.145
625.261
717.515
717.515
717.515
801.889
801.889
801.889
749.532
712.726
689.128
826.152
657.401
827.048
837.67
741.155
1040.23
717.55
796.954
494.014
482.954
746.981
729.095
518.198
489.708
468.627
634.424
633.864
628.223
585.812
573.016
593.401
647.404
596.128
553.59
540.105
560.689
637.216
621.047
588.209
582.41
715.361
715.361
715.361
650.115
576.132
512.196
477.505
460.599
701.635
701.635
701.635
636.88
566.788
508.107
481.531
483.149
574.982
560.801
536.176
649.754
530.37
503.903
682.962
545.95
519.578
499.699
484.287
476.129
1623.72
1721.13
944.922
969.975
918.139
1204.16
1212.78
1091.37
1326.57
1238
1313.23
2009.25
1971.51
1082.09
841.219
1074.22
1108.36
1087.95
2.06697e+161
749.833
3.94662e+180
683.794
632.361
708.023
708.023
708.023
801.844
801.844
801.844
695.724
677.417
826.104
646.417
826.367
839.088
729.007
1033.95
712.006
798.919
508.318
493.556
482.453
731.348
519.089
490.125
468.882
456.04
635.543
634.798
631.364
587.204
572.258
591.526
649.592
598.496
554.61
539.235
558.588
638.195
623.505
592.523
583.652
651.317
577.842
512.727
477.674
460.182
702.12
702.12
702.12
637.896
568.226
508.632
480.771
481.596
575.082
561.284
537.5
650.017
616.431
531.515
504.077
684.31
519.364
499.29
483.732
475.377
1581.31
1784.16
949.525
968.815
916.014
1203.02
1203.9
1090.84
1321.3
1236.24
1330.05
1987.53
1076.84
852.018
1069.36
1106.73
1088.36
353.6
739.793
941.791
672.46
771.137
630.161
697.869
697.869
697.869
801.699
801.699
801.699
678.448
665.062
825.909
635.245
825.405
772.663
840.182
717.162
1027.02
706.13
800.545
507.919
493.103
481.969
733.554
702.426
520.026
490.561
469.175
455.97
635.767
634.68
588.73
571.562
589.659
651.776
600.994
555.759
538.442
556.505
625.93
596.873
584.912
652.456
579.537
513.338
477.884
459.818
702.563
702.563
702.563
638.861
569.648
509.217
480.085
480.091
575.202
561.749
538.822
650.307
616.973
532.692
504.293
685.633
519.159
498.879
483.171
474.646
1579.21
1622.41
953.025
967.552
914.073
1194.79
1090.56
1317.04
1235.72
1320.24
1174.43
2039.28
1136.22
1072.31
1065
1106.68
1084.92
340.662
9.09155e+223
936.183
660.551
772.294
627.518
801.612
801.612
801.612
661.031
652.077
825.559
623.778
823.985
782.172
840.939
706.073
1019.38
699.896
801.673
507.559
492.659
481.488
735.705
705.753
491.014
469.506
455.914
636.785
641.474
638.151
590.384
570.923
587.8
653.985
603.624
557.027
537.72
554.437
628.326
601.25
586.189
653.574
581.254
514.039
478.139
459.504
639.772
571.056
509.911
479.483
478.643
575.342
562.198
540.149
650.618
617.489
533.912
504.564
686.931
518.971
498.483
482.625
473.932
1587.78
957.994
965.57
912.095
1185.44
1090.45
1316.78
1235.24
1284.22
2093.84
1149.27
2073.13
1179.09
1068.42
1107.2
1084.24
2.06697e+161
930.286
9.09155e+223
773.421
624.581
801.474
801.474
801.474
643.574
638.518
825.026
612.114
822.042
791.271
841.326
695.968
1011.01
693.296
802.253
507.242
492.218
480.987
737.799
709.195
491.484
469.868
455.875
637.848
642.505
641.759
592.198
570.353
585.941
656.228
606.387
558.407
537.067
552.386
630.686
605.662
587.482
654.699
582.99
514.848
478.432
459.234
640.675
572.498
510.723
478.972
477.249
575.502
562.632
541.483
650.954
617.982
535.169
504.889
688.196
518.811
498.113
482.102
473.236
1599.23
964.834
963.424
910.219
1176.47
1090.56
1317.7