/*--------------------------------*- C++ -*----------------------------------*\
| =========                 |                                                 |
| \\      /  F ield         | OpenFOAM: The Open Source CFD Toolbox           |
|  \\    /   O peration     | Version:  2.1.1                                 |
|   \\  /    A nd           | Web:      www.OpenFOAM.org                      |
|    \\/     M anipulation  |                                                 |
\*---------------------------------------------------------------------------*/
FoamFile
{
    version     2.0;
    format      ascii;
    class       vectorField;
    location    "0.00125";
    object      U;
}
// * * * * * * * * * * * * * * * * * * * * * * * * * * * * * * * * * * * * * //


44454
(
(-0.552807 -0.0210853 0.0195696)
(21.3173 -1.2604 -1.21779)
(21.2421 -1.2257 -1.17642)
(21.1608 -1.1869 -1.13073)
(21.1097 -1.14494 -1.07884)
(21.083 -1.10194 -1.02247)
(20.9983 -1.06053 -0.968794)
(20.9059 -1.01596 -0.912422)
(20.8077 -0.969383 -0.855096)
(20.7451 -0.91927 -0.791266)
(20.6997 -0.873156 -0.728728)
(20.5759 -0.836727 -0.679548)
(20.4234 -0.802486 -0.636147)
(20.2859 -0.766688 -0.593902)
(20.1653 -0.732235 -0.556203)
(19.9419 -0.707768 -0.539787)
(19.7076 -0.680807 -0.527092)
(21.8548 -1.4988 -1.50101)
(21.789 -1.48343 -1.47691)
(21.72 -1.46626 -1.45255)
(21.648 -1.44565 -1.42532)
(21.5761 -1.42142 -1.3942)
(21.5448 -1.39414 -1.35697)
(21.5221 -1.36366 -1.31528)
(21.4483 -1.33104 -1.27379)
(21.3631 -1.29482 -1.22974)
(21.2757 -1.25558 -1.18378)
(21.1821 -1.21068 -1.13185)
(21.1498 -1.16095 -1.07054)
(21.1089 -1.1117 -1.00825)
(21.0136 -1.06311 -0.948577)
(20.9101 -1.01102 -0.886579)
(20.8047 -0.956502 -0.821893)
(20.798 -0.897179 -0.745451)
(20.6834 -0.854532 -0.689436)
(22.3165 -1.55095 -1.65207)
(20.5219 -0.816598 -0.642135)
(22.2643 -1.55715 -1.64056)
(8.89744 -0.389932 0.41836)
(20.3539 -0.779653 -0.600123)
(22.2077 -1.55959 -1.62629)
(8.68984 -0.39726 0.420437)
(20.2824 -0.735086 -0.548978)
(22.1422 -1.55919 -1.61045)
(8.4729 -0.40419 0.422958)
(20.0267 -0.711796 -0.536473)
(22.0768 -1.55671 -1.59339)
(8.23191 -0.411836 0.426488)
(19.7421 -0.686646 -0.530895)
(22.0381 -1.55345 -1.57451)
(7.9621 -0.420493 0.431073)
(19.5417 -0.653381 -0.514466)
(22.02 -1.54886 -1.55347)
(7.65688 -0.430817 0.437027)
(21.9748 -1.53953 -1.52971)
(7.3151 -0.442999 0.444351)
(21.9026 -1.52667 -1.50502)
(6.93385 -0.457886 0.453107)
(21.825 -1.51121 -1.47956)
(6.51464 -0.47562 0.463366)
(21.7437 -1.49211 -1.45193)
(6.06815 -0.49695 0.4751)
(21.6553 -1.46807 -1.4197)
(5.60567 -0.520708 0.487764)
(21.5856 -1.43925 -1.38132)
(21.5693 -1.40766 -1.33753)
(21.5068 -1.37205 -1.29148)
(21.4058 -1.33231 -1.24378)
(10.4163 -0.346799 0.433481)
(21.3007 -1.28761 -1.19252)
(10.2882 -0.352281 0.42912)
(21.1913 -1.23671 -1.13534)
(10.1529 -0.358224 0.425498)
(21.1687 -1.17828 -1.06486)
(10.0051 -0.365184 0.422893)
(21.1016 -1.12165 -0.995902)
(22.6531 -1.40799 -1.65937)
(9.85024 -0.372646 0.420855)
(20.9796 -1.06444 -0.929153)
(22.6103 -1.43758 -1.66429)
(9.68418 -0.380801 0.419544)
(20.8378 -1.00375 -0.860743)
(22.5776 -1.46773 -1.66766)
(9.50929 -0.389364 0.418863)
(20.7941 -0.934949 -0.777304)
(22.557 -1.49728 -1.6681)
(9.325 -0.398404 0.418884)
(20.6992 -0.880608 -0.708192)
(22.5305 -1.52421 -1.66781)
(9.13222 -0.407544 0.419435)
(20.5027 -0.838791 -0.657556)
(22.4894 -1.54483 -1.6634)
(8.92789 -0.4167 0.420507)
(20.2986 -0.79737 -0.612122)
(22.4359 -1.55968 -1.65483)
(8.71508 -0.425385 0.421855)
(20.1956 -0.748276 -0.558699)
(22.3758 -1.57048 -1.64338)
(8.49152 -0.433621 0.423645)
(19.8612 -0.723928 -0.552914)
(22.3105 -1.57765 -1.63015)
(8.24308 -0.442606 0.42654)
(19.5158 -0.694396 -0.55068)
(22.2368 -1.5816 -1.61605)
(7.9625 -0.452901 0.430758)
(19.2487 -0.656047 -0.537985)
(22.1541 -1.5811 -1.5987)
(7.6444 -0.464942 0.436531)
(22.0875 -1.57834 -1.57872)
(7.29048 -0.478533 0.443637)
(22.0604 -1.57487 -1.55625)
(6.89288 -0.49458 0.452211)
(22.0156 -1.56799 -1.53254)
(6.49747 -0.479322 -0.349021)
(6.46179 -0.513247 0.462299)
(21.9258 -1.55461 -1.50613)
(6.45051 -0.470954 -0.352586)
(5.99401 -0.535926 0.474382)
(11.1484 -0.335128 0.479313)
(21.8268 -1.53652 -1.47722)
(6.40055 -0.462832 -0.356292)
(5.51901 -0.56197 0.487287)
(11.0443 -0.338663 0.471968)
(21.7217 -1.51314 -1.44452)
(6.34826 -0.454905 -0.360057)
(5.05542 -0.589795 0.500421)
(10.9348 -0.34256 0.464855)
(21.6141 -1.4846 -1.40735)
(6.29364 -0.447205 -0.36388)
(10.8184 -0.34706 0.458032)
(21.5742 -1.4503 -1.36075)
(6.23631 -0.439775 -0.367789)
(10.694 -0.352194 0.451581)
(21.5212 -1.41041 -1.30892)
(6.17672 -0.432559 -0.371771)
(10.5615 -0.357996 0.445595)
(21.3943 -1.36552 -1.25629)
(22.9361 -1.14748 -1.56073)
(6.11504 -0.425514 -0.375834)
(10.422 -0.364419 0.440127)
(21.2578 -1.31531 -1.20106)
(22.9136 -1.19553 -1.58257)
(6.05114 -0.418668 -0.379978)
(10.2729 -0.37169 0.435491)
(21.1377 -1.25484 -1.1342)
(22.889 -1.24335 -1.60434)
(5.98424 -0.411989 -0.384224)
(10.1146 -0.379967 0.431743)
(21.1179 -1.18599 -1.05209)
(22.8569 -1.2861 -1.61896)
(5.91377 -0.405435 -0.388595)
(9.94846 -0.389041 0.428591)
(20.9801 -1.12203 -0.978347)
(22.8215 -1.32744 -1.62934)
(5.84027 -0.398943 -0.393096)
(9.77112 -0.39909 0.426177)
(20.8017 -1.05469 -0.904721)
(22.7823 -1.36856 -1.64157)
(5.76311 -0.392528 -0.397725)
(9.58744 -0.409555 0.424339)
(20.7018 -0.978123 -0.815972)
(22.7363 -1.40606 -1.651)
(9.39493 -0.420727 0.423201)
(20.6011 -0.911496 -0.733533)
(22.6806 -1.4412 -1.65685)
(9.19542 -0.431955 0.422509)
(20.3344 -0.867049 -0.682671)
(22.6302 -1.47577 -1.65989)
(8.98636 -0.443066 0.422217)
(20.1302 -0.815256 -0.626564)
(22.597 -1.51252 -1.66455)
(7.22127 -0.391796 -0.889274)
(8.76711 -0.453847 0.422311)
(19.8816 -0.770991 -0.589814)
(22.5632 -1.54544 -1.66621)
(7.15044 -0.385906 -0.888305)
(8.53861 -0.463478 0.422402)
(19.4405 -0.741209 -0.592406)
(22.5086 -1.5696 -1.66153)
(7.07508 -0.380329 -0.887696)
(8.28457 -0.473416 0.423339)
(19.1313 -0.694031 -0.573741)
(22.4366 -1.58581 -1.65101)
(6.94591 -0.528823 -0.366728)
(6.99603 -0.374958 -0.887383)
(7.99837 -0.484107 0.425457)
(11.9657 -0.32013 0.543924)
(22.3552 -1.59809 -1.63914)
(6.90201 -0.519591 -0.369926)
(6.91224 -0.369792 -0.887533)
(7.6743 -0.496415 0.428941)
(11.867 -0.322264 0.535471)
(22.2643 -1.60526 -1.62525)
(6.85482 -0.510769 -0.373137)
(6.8245 -0.364783 -0.887966)
(7.30865 -0.510704 0.434142)
(11.7663 -0.324569 0.527045)
(22.1608 -1.60633 -1.60702)
(6.80433 -0.502299 -0.376385)
(6.73331 -0.359861 -0.888638)
(6.89363 -0.528393 0.441459)
(11.6627 -0.327133 0.518673)
(22.0797 -1.60453 -1.58529)
(6.75115 -0.49408 -0.379677)
(6.63883 -0.354989 -0.889529)
(6.43337 -0.550216 0.450892)
(11.5547 -0.330114 0.510395)
(22.0448 -1.60262 -1.56195)
(6.6952 -0.486136 -0.383018)
(6.54043 -0.350146 -0.89065)
(5.94269 -0.575768 0.462444)
(11.4426 -0.333702 0.502135)
(21.9703 -1.59368 -1.5358)
(6.63685 -0.478441 -0.38641)
(6.43885 -0.345247 -0.891944)
(5.43814 -0.606337 0.475569)
(11.3247 -0.33754 0.493983)
(22.733 0.0444135 0.0395472)
(21.8476 -1.57657 -1.5058)
(23.2839 -0.787344 -1.35183)
(6.57805 -0.470909 -0.389454)
(6.3361 -0.340243 -0.893007)
(4.96644 -0.636797 0.48887)
(11.2006 -0.341972 0.486155)
(11.0709 -0.180099 -0.757426)
(22.7306 0.044404 0.0393907)
(22.7382 0.0449179 -7.38872e-05)
(21.7183 -1.55316 -1.47215)
(23.2234 -0.825191 -1.37939)
(6.51744 -0.463453 -0.392588)
(6.22984 -0.335075 -0.89429)
(4.59037 -0.665119 0.499223)
(11.0709 -0.347033 0.47833)
(10.7618 -0.158083 -0.770004)
(22.7282 0.0443536 0.0392777)
(22.7358 0.0449053 -0.00019063)
(21.5815 -1.52367 -1.43361)
(23.182 -0.864829 -1.41255)
(6.45416 -0.456193 -0.395813)
(6.12066 -0.329762 -0.895744)
(10.9327 -0.35295 0.470677)
(10.4178 -0.130961 -0.78193)
(22.7672 -0.0703169 0.0512819)
(22.7258 0.0442606 0.0391976)
(22.7334 0.0448577 -0.000255317)
(21.5273 -1.48619 -1.3833)
(23.1362 -0.909298 -1.4396)
(6.3888 -0.449059 -0.399155)
(6.00916 -0.32425 -0.89733)
(8.31636 -0.452795 -0.936978)
(10.7891 -0.359588 0.463212)
(10.0386 -0.096919 -0.793386)
(22.765 -0.0705837 0.0514673)
(22.7233 0.0441224 0.0391426)
(22.7733 0.0411725 0.0412197)
(22.731 0.0447736 -0.000273124)
(21.4535 -1.44129 -1.32613)
(23.0905 -0.956409 -1.46288)
(6.32157 -0.442023 -0.40261)
(5.89488 -0.318531 -0.899069)
(8.29534 -0.441346 -0.930582)
(10.6389 -0.366922 0.456054)
(9.62814 -0.0556824 -0.804352)
(22.7627 -0.0708162 0.0516486)
(22.7207 0.0439367 0.0391059)
(22.7709 0.0415755 0.0411679)
(22.7287 0.0446509 -0.000248309)
(22.7748 0.0409873 0.00434904)
(21.2913 -1.39144 -1.26976)
(23.0594 -1.00708 -1.4941)
(6.25243 -0.435056 -0.40619)
(5.77826 -0.312555 -0.90093)
(8.26085 -0.431633 -0.925601)
(10.4785 -0.375357 0.449662)
(9.32885 -0.0398865 -0.81298)
(22.7605 -0.0710125 0.0518257)
(22.8022 -0.0620503 0.0482778)
(22.7182 0.0437029 0.0390763)
(22.7684 0.0419553 0.0411274)
(22.7263 0.0444881 -0.000184655)
(22.7725 0.0414231 0.00407591)
(21.1142 -1.33228 -1.20662)
(23.0329 -1.06364 -1.52371)
(6.18061 -0.428139 -0.409912)
(5.65787 -0.306275 -0.902942)
(8.22277 -0.422556 -0.921042)
(10.3114 -0.384737 0.444002)
(9.11458 -0.032998 -0.818813)
(22.7582 -0.0711711 0.0519985)
(22.8004 -0.0626077 0.0483961)
(22.7157 0.0434194 0.0390448)
(22.7659 0.0423105 0.041091)
(22.7239 0.0442863 -8.94345e-05)
(22.7701 0.0418322 0.00381801)
(21.0405 -1.25933 -1.12344)
(23.0029 -1.12198 -1.54745)
(6.10577 -0.421252 -0.413795)
(5.53455 -0.299621 -0.905051)
(8.18135 -0.414053 -0.916845)
(10.1332 -0.39553 0.439188)
(8.92398 -0.0272137 -0.823943)
(22.7559 -0.0712904 0.0521674)
(22.7986 -0.0631498 0.0485204)
(22.7132 0.0430934 0.0390118)
(22.7633 0.0426414 0.0410543)
(22.7215 0.0440497 2.74723e-05)
(22.7678 0.0422198 0.00356696)
(20.9398 -1.18586 -1.03816)
(22.9733 -1.18228 -1.57633)
(6.02837 -0.414331 -0.417843)
(8.13649 -0.40608 -0.91301)
(9.95136 -0.406823 0.434898)
(8.74729 -0.0212849 -0.828131)
(22.7537 -0.0713778 0.0523312)
(22.7967 -0.0636814 0.0486485)
(22.7108 0.0427265 0.0389794)
(22.7608 0.0429531 0.0410163)
(22.7192 0.0437777 0.00016555)
(22.7654 0.0425887 0.00331885)
(20.7261 -1.11351 -0.959754)
(22.9392 -1.23955 -1.60232)
(5.9479 -0.407417 -0.422057)
(8.0875 -0.398704 -0.909554)
(9.75997 -0.419183 0.431388)
(8.60459 -0.0144667 -0.829983)
(22.7514 -0.0714334 0.0524885)
(22.7948 -0.0642043 0.048779)
(22.7083 0.0423208 0.0389472)
(22.7583 0.0432444 0.0409771)
(22.7169 0.0434754 0.00031262)
(22.763 0.0429412 0.00306604)
(20.5563 -1.0308 -0.867602)
(22.8967 -1.29069 -1.62019)
(5.8645 -0.400484 -0.426445)
(8.03408 -0.391898 -0.906507)
(9.56121 -0.432271 0.42856)
(8.48014 -0.00728445 -0.83068)
(22.7491 -0.0714571 0.0526383)
(22.7928 -0.0647211 0.0489116)
(22.7024 0.052146 0.0922154)
(22.7059 0.0418839 0.0389177)
(22.7557 0.0435158 0.0409372)
(22.803 0.0344463 0.0426073)
(22.7146 0.0431424 0.000463288)
(22.7607 0.0432753 0.0028067)
(22.754 -0.0660259 0.0265931)
(20.4481 -0.951778 -0.771847)
(22.8499 -1.34055 -1.63442)
(5.77801 -0.393537 -0.431004)
(7.97577 -0.385666 -0.903909)
(9.35324 -0.446111 0.426483)
(12.9804 -0.29598 0.608239)
(8.35447 -3.27368e-08 -0.83165)
(22.7468 -0.0714585 0.052779)
(22.7909 -0.0652294 0.0490479)
(22.7003 0.0517712 0.0922297)
(22.7035 0.041422 0.0388911)
(22.7532 0.0437708 0.0408929)
(22.8008 0.034988 0.04257)
(22.7123 0.0427775 0.000614584)
(22.7583 0.0435895 0.00253664)
(22.5578 0.00795808 -0.0216006)
(22.7516 -0.0658758 0.0268649)
(22.7997 -0.0626176 0.022146)
(20.1056 -0.9052 -0.721717)
(22.798 -1.38939 -1.65067)
(5.68827 -0.386529 -0.435709)
(7.46385 -0.560327 -0.386163)
(7.91198 -0.379963 -0.901776)
(9.13719 -0.459496 0.42483)
(12.875 -0.298535 0.600424)
(8.22751 0.00728248 -0.8329)
(22.7446 -0.0714387 0.0529118)
(22.7889 -0.0657304 0.0491894)
(22.8205 -0.0532862 0.0466993)
(22.6982 0.0513785 0.0922352)
(22.7011 0.0409348 0.038861)
(22.7507 0.0440077 0.0408374)
(22.7987 0.0355297 0.0425193)
(22.7101 0.0423796 0.000762112)
(22.756 0.043881 0.00225306)
(22.7994 0.0341619 0.0100096)
(22.5555 0.00772612 -0.0209878)
(22.6009 0.0113356 -0.0298856)
(22.7491 -0.0656998 0.0271355)
(22.7975 -0.0629954 0.0222835)
(19.9018 -0.842155 -0.654211)
(22.7353 -1.43235 -1.661)
(5.59523 -0.379443 -0.440555)
(7.42586 -0.549601 -0.38852)
(7.84271 -0.374775 -0.900091)
(8.918 -0.470986 0.423)
(12.7668 -0.301035 0.592749)
(8.10187 0.0142415 -0.834413)
(22.7423 -0.0713971 0.0530382)
(22.7869 -0.0662238 0.0493374)
(22.8193 -0.053887 0.0467708)
(22.6961 0.0509672 0.0922354)
(22.737 0.0562935 0.0878304)
(22.6988 0.040421 0.0388211)
(22.7482 0.0442241 0.0407642)
(22.7965 0.0360696 0.0424551)
(22.7079 0.0419474 0.000900793)
(22.7537 0.0441464 0.00195291)
(22.7974 0.0347669 0.0095403)
(22.5533 0.00749481 -0.020359)
(22.5983 0.011236 -0.0298458)
(22.7466 -0.0655003 0.0274014)
(22.7953 -0.0633598 0.022421)
(19.5008 -0.801909 -0.635291)
(22.6643 -1.47348 -1.66738)
(5.49863 -0.372315 -0.445595)
(7.38658 -0.539337 -0.390877)
(7.76805 -0.370008 -0.898835)
(8.68755 -0.481239 0.421078)
(12.6564 -0.303708 0.585124)
(7.97533 0.0208716 -0.836217)
(22.74 -0.0713341 0.0531599)
(22.7849 -0.0667088 0.0494935)
(22.8181 -0.0544904 0.0468522)
(22.694 0.0505391 0.0922389)
(22.7349 0.0562597 0.0882218)
(22.6966 0.03988 0.0387695)
(22.7457 0.0444197 0.0406711)
(22.7943 0.0366085 0.0423741)
(22.7058 0.041479 0.00102515)
(22.7514 0.0443821 0.00163236)
(22.7954 0.0353582 0.00905118)
(22.551 0.00726453 -0.0197164)
(22.5958 0.0111293 -0.029763)
(22.7442 -0.0652796 0.0276587)
(22.7931 -0.0637122 0.0225568)
(19.0283 -0.759589 -0.631619)
(22.6102 -1.51631 -1.6736)
(7.3441 -0.529564 -0.39321)
(7.68753 -0.36563 -0.898013)
(8.43147 -0.491572 0.4197)
(12.5407 -0.307308 0.577418)
(7.84803 0.0273888 -0.838288)
(12.4283 -0.183464 -0.725934)
(22.7378 -0.07125 0.0532786)
(22.7828 -0.067183 0.04966)
(22.8168 -0.0550964 0.0469461)
(22.692 0.0500879 0.0922279)
(22.7327 0.0562073 0.0885891)
(22.6944 0.0393116 0.0386999)
(22.7433 0.0445939 0.0405507)
(22.7921 0.0371475 0.0422724)
(22.7037 0.0409719 0.00112894)
(22.7491 0.0445839 0.00128703)
(22.7935 0.0359309 0.0085385)
(22.5488 0.00703542 -0.0190622)
(22.5933 0.0110159 -0.0296367)
(22.7418 -0.0650402 0.0279031)
(22.7909 -0.0640551 0.0226892)
(18.5312 -0.709894 -0.630565)
(22.5738 -1.55835 -1.67952)
(7.29773 -0.520285 -0.39553)
(7.60142 -0.361595 -0.89759)
(8.13764 -0.503292 0.419732)
(12.4232 -0.309945 0.570175)
(7.71895 0.0342101 -0.840721)
(12.2845 -0.183629 -0.73602)
(22.7356 -0.0711451 0.0533967)
(22.7808 -0.067645 0.0498394)
(22.8155 -0.0557045 0.0470537)
(22.69 0.049611 0.0921851)
(22.7304 0.0561353 0.0889335)
(22.6923 0.0387139 0.038605)
(22.741 0.0447449 0.0403957)
(22.79 0.0376867 0.0421461)
(22.7017 0.0404234 0.00120521)
(22.7469 0.0447469 0.000912703)
(22.7915 0.0364804 0.00799893)
(22.5466 0.00680756 -0.0183981)
(22.5908 0.0108963 -0.0294663)
(22.7394 -0.0647847 0.0281297)
(22.7887 -0.0643906 0.0228159)
(22.5122 -1.59002 -1.67739)
(7.24734 -0.511471 -0.397863)
(7.5101 -0.357811 -0.897534)
(7.80394 -0.516334 0.421071)
(12.3041 -0.312644 0.562896)
(7.5908 0.0413224 -0.843425)
(12.1087 -0.180778 -0.746908)
(22.7334 -0.07102 0.0535166)
(22.7787 -0.068094 0.0500341)
(22.8142 -0.0563117 0.0471822)
(22.688 0.0491084 0.0921124)
(22.7282 0.0560434 0.0892558)
(22.6903 0.0380868 0.0384763)
(22.7387 0.0448713 0.0401961)
(22.7879 0.0382256 0.0419916)
(22.6999 0.0398278 0.00123297)
(22.7448 0.0448644 0.000498247)
(22.7896 0.0370002 0.00742529)
(22.5444 0.00658101 -0.0177262)
(22.5883 0.0107706 -0.029252)
(22.7371 -0.0645159 0.0283331)
(22.7865 -0.0647207 0.0229344)
(22.4259 -1.61057 -1.6672)
(7.19326 -0.503052 -0.400244)
(7.41334 -0.354224 -0.897835)
(7.4168 -0.532553 0.424697)
(12.1805 -0.315611 0.555634)
(7.46262 0.0485864 -0.846504)
(11.9016 -0.174656 -0.758894)
(22.7313 -0.0708748 0.0536416)
(22.7767 -0.0685291 0.0502483)
(22.8128 -0.0569235 0.0473097)
(22.7144 0.0258257 0.105694)
(22.686 0.0485808 0.0920109)
(22.7259 0.0559304 0.089557)
(22.6886 0.0374317 0.0382929)
(22.7366 0.0449724 0.0399275)
(22.7858 0.038765 0.041799)
(22.6981 0.0391961 0.00127398)
(22.7426 0.0449594 0.000143641)
(22.7876 0.0375291 0.00689345)
(22.5422 0.00635555 -0.0170487)
(22.5858 0.0106393 -0.0289945)
(22.7349 -0.0642366 0.0285072)
(22.7843 -0.0650478 0.0230416)
(22.3293 -1.62554 -1.65526)
(7.13597 -0.494954 -0.402689)
(7.31172 -0.350726 -0.898446)
(6.98017 -0.552148 0.430622)
(12.0546 -0.318757 0.548326)
(7.33255 0.0561496 -0.850051)
(11.6637 -0.164768 -0.771439)
(22.7292 -0.0707113 0.0537779)
(22.7746 -0.0689474 0.0504772)
(22.8114 -0.0575398 0.0474307)
(22.6736 0.0215986 0.105855)
(22.7121 0.025805 0.105899)
(22.684 0.0480282 0.0918815)
(22.7236 0.0557952 0.0898369)
(22.6867 0.0367464 0.0381254)
(22.7344 0.0450409 0.0396699)
(22.7838 0.0392995 0.0415904)
(22.6962 0.0385446 0.00138022)
(22.7403 0.0450305 -0.000144629)
(22.7855 0.0380644 0.00640744)
(22.54 0.00613078 -0.0163673)
(22.5834 0.0105026 -0.0286943)
(22.7328 -0.0639572 0.0286349)
(22.7822 -0.065375 0.0231334)
(22.8233 -0.0561826 0.0200885)
(22.2154 -1.63376 -1.63991)
(23.1314 -0.534544 -0.837594)
(7.07543 -0.487165 -0.405208)
(7.20568 -0.347263 -0.899315)
(8.92267 -0.504757 -0.994226)
(6.48622 -0.577375 0.439243)
(11.9281 -0.322054 0.540934)
(7.1994 0.0636648 -0.854193)
(11.3956 -0.149676 -0.784941)
(22.7271 -0.0705094 0.0538938)
(22.7725 -0.0693424 0.050695)
(22.8099 -0.0581577 0.0475462)
(22.6716 0.0212797 0.105585)
(22.7099 0.025775 0.106077)
(22.682 0.0474503 0.0917256)
(22.7213 0.0556362 0.0900953)
(22.7579 0.0560661 0.0805219)
(22.6848 0.0360362 0.0379931)
(22.7321 0.0450735 0.0394736)
(22.7816 0.0398139 0.041423)
(22.6943 0.037874 0.00154641)
(22.738 0.0450747 -0.000369885)
(22.7833 0.0385985 0.00596444)
(22.5378 0.00590619 -0.0156837)
(22.581 0.0103609 -0.0283556)
(22.7307 -0.0636419 0.0287759)
(22.78 -0.0656629 0.0232523)
(22.8217 -0.0567697 0.0201052)
(22.0919 -1.63499 -1.61934)
(23.2001 -0.564081 -0.914054)
(7.01177 -0.479636 -0.407815)
(7.09598 -0.343776 -0.900404)
(8.95598 -0.485301 -0.982704)
(5.95898 -0.607858 0.450977)
(11.7965 -0.326255 0.53339)
(7.06056 0.071161 -0.859107)
(11.0941 -0.129684 -0.798315)
(22.725 -0.0702667 0.0539872)
(22.7703 -0.0697114 0.0509037)
(22.8083 -0.0587757 0.0476595)
(22.6696 0.020958 0.105281)
(22.7076 0.0257338 0.106228)
(22.68 0.0468467 0.0915433)
(22.719 0.0554519 0.0903323)
(22.756 0.0561423 0.0810753)
(22.6829 0.0352997 0.0378904)
(22.7297 0.0450666 0.0393286)
(22.7794 0.0403076 0.0412918)
(22.6923 0.0371847 0.00176719)
(22.7356 0.045089 -0.000536429)
(22.7811 0.0391255 0.00556058)
(22.5356 0.00567925 -0.0150052)
(22.5787 0.0102143 -0.0279825)
(22.7285 -0.0632828 0.0289476)
(22.7777 -0.0659102 0.0233978)
(22.8201 -0.0573423 0.0201414)
(22.0264 -1.63471 -1.59519)
(23.2747 -0.593011 -0.998042)
(6.94533 -0.472332 -0.410506)
(6.98252 -0.340204 -0.901687)
(8.98163 -0.46709 -0.971949)
(5.42031 -0.643388 0.4645)
(11.6614 -0.330335 0.525887)
(6.91656 0.0783401 -0.86489)
(10.755 -0.103864 -0.811109)
(22.7229 -0.0699822 0.0540594)
(22.7681 -0.0700517 0.0511054)
(22.8067 -0.0593917 0.0477724)
(22.6676 0.0206315 0.104942)
(22.7054 0.0256791 0.106351)
(22.6781 0.0462172 0.0913353)
(22.7168 0.0552414 0.090548)
(22.7541 0.0562069 0.0816173)
(22.6808 0.0345387 0.0378133)
(22.7273 0.0450191 0.0392244)
(22.7771 0.0407799 0.0411916)
(22.6903 0.0364756 0.00203924)
(22.7333 0.0450705 -0.000648537)
(22.7789 0.0396408 0.00519138)
(22.5334 0.00544989 -0.0143336)
(22.5763 0.0100628 -0.0275791)
(22.7263 -0.0628811 0.0291476)
(22.7754 -0.0661171 0.0235676)
(22.8183 -0.0579017 0.0201957)
(21.9679 -1.6309 -1.5693)
(23.3532 -0.622417 -1.09128)
(6.87662 -0.465193 -0.413283)
(6.86665 -0.336454 -0.903083)
(8.99968 -0.450106 -0.961955)
(4.93606 -0.678261 0.477657)
(11.5211 -0.335037 0.518246)
(6.76693 0.0848929 -0.871722)
(10.3746 -0.0705608 -0.823437)
(22.7207 -0.0696569 0.0541113)
(22.7659 -0.0703611 0.0513015)
(22.8051 -0.0600015 0.0478871)
(22.465 -0.0503301 0.0629751)
(22.6657 0.0202975 0.104571)
(22.7031 0.0256121 0.106453)
(22.6761 0.0455613 0.091102)
(22.7145 0.0550047 0.090742)
(22.7521 0.0562645 0.082146)
(22.6788 0.0337527 0.037756)
(22.7248 0.0449279 0.0391511)
(22.7747 0.0412306 0.0411161)
(22.6883 0.0357457 0.00235831)
(22.7309 0.0450168 -0.000710671)
(22.7766 0.0401403 0.00485199)
(22.5312 0.00521787 -0.0136697)
(22.574 0.00990587 -0.0271504)
(22.724 -0.0624381 0.0293726)
(22.773 -0.0662841 0.0237592)
(22.8165 -0.0584473 0.0202666)
(21.8358 -1.61646 -1.53919)
(23.413 -0.654729 -1.18156)
(6.80579 -0.4582 -0.416176)
(6.74789 -0.332526 -0.904615)
(9.00054 -0.435484 -0.95353)
(4.56256 -0.707295 0.486651)
(11.374 -0.340477 0.510544)
(6.61095 0.0902409 -0.879809)
(10.046 -0.050183 -0.834531)
(22.7186 -0.0692917 0.054143)
(22.7637 -0.0706379 0.0514926)
(22.8034 -0.060604 0.0480041)
(22.4638 -0.049822 0.0627596)
(22.6638 0.0199533 0.104166)
(22.7009 0.025532 0.106536)
(22.6742 0.0448789 0.090844)
(22.7122 0.0547465 0.090914)
(22.7501 0.0563173 0.0826616)
(22.6766 0.0329406 0.0377133)
(22.7223 0.0447921 0.0390998)
(22.7723 0.0416593 0.0410599)
(22.6862 0.0349939 0.00271733)
(22.7285 0.0449264 -0.000727464)
(22.7743 0.0406207 0.00453668)
(22.5291 0.0049807 -0.0130217)
(22.5717 0.00974283 -0.0266977)
(22.7217 -0.0619557 0.0296193)
(22.7705 -0.0664119 0.0239701)
(22.8147 -0.0589785 0.0203515)
(21.6818 -1.59346 -1.50422)
(23.4117 -0.696941 -1.25597)
(6.73286 -0.451338 -0.419175)
(6.62523 -0.328435 -0.906365)
(8.98924 -0.422615 -0.946388)
(11.2253 -0.34641 0.502721)
(6.44632 0.0942566 -0.889405)
(9.78548 -0.0411096 -0.842967)
(22.7164 -0.0688873 0.0541555)
(22.7614 -0.0708801 0.0516791)
(22.8017 -0.0611984 0.0481241)
(22.4627 -0.0493193 0.0625725)
(22.662 0.0195989 0.103739)
(22.6986 0.0254355 0.1066)
(22.7356 0.0255904 0.100356)
(22.6724 0.0441713 0.0905615)
(22.7099 0.054469 0.0910631)
(22.7481 0.0563643 0.0831638)
(22.6745 0.0321015 0.0376804)
(22.7198 0.0446091 0.0390657)
(22.7698 0.0420658 0.0410176)
(22.6842 0.0342219 0.00310846)
(22.7261 0.0447978 -0.000702739)
(22.7719 0.0410788 0.00424161)
(22.5269 0.00473793 -0.0123892)
(22.5694 0.00957271 -0.0262226)
(22.7193 -0.0614362 0.0298836)
(22.7681 -0.0665009 0.0241973)
(22.8128 -0.0594957 0.0204485)
(21.5186 -1.56316 -1.46373)
(23.3904 -0.740033 -1.32196)
(6.65731 -0.444638 -0.422293)
(6.49967 -0.324091 -0.908266)
(8.97184 -0.410699 -0.939728)
(11.0703 -0.353274 0.494901)
(9.57735 -0.0350067 -0.848448)
(22.7143 -0.0684451 0.0541495)
(22.7591 -0.0710857 0.0518613)
(22.7999 -0.0617813 0.0482478)
(22.4615 -0.0488173 0.0624151)
(22.6601 0.019235 0.103299)
(22.6964 0.0253201 0.106647)
(22.7337 0.0257212 0.100792)
(22.6705 0.0434451 0.0902561)
(22.7077 0.0541779 0.0911889)
(22.7461 0.0564056 0.0836526)
(22.6723 0.0312362 0.037657)
(22.7173 0.0443777 0.0390391)
(22.7673 0.0424493 0.0409861)
(22.6821 0.0334285 0.00353071)
(22.7237 0.0446299 -0.000640522)
(22.7695 0.0415117 0.00396465)
(22.5246 0.00448906 -0.0117719)
(22.5671 0.00939481 -0.0257264)
(22.717 -0.0608824 0.0301613)
(22.7656 -0.0665522 0.0244383)
(22.8108 -0.0599983 0.0205562)
(21.4544 -1.52327 -1.4096)
(23.3181 -0.783641 -1.3561)
(6.58003 -0.438028 -0.42554)
(6.37094 -0.31946 -0.910361)
(8.94779 -0.399723 -0.933563)
(10.9065 -0.361095 0.487322)
(9.40596 -0.0302567 -0.852014)
(22.7122 -0.0679638 0.0541264)
(22.7568 -0.0712534 0.0520391)
(22.7981 -0.0623525 0.0483756)
(22.4603 -0.048312 0.0622881)
(22.6582 0.0188576 0.102847)
(22.6942 0.0251831 0.106679)
(22.7317 0.0258323 0.101223)
(22.6687 0.0427072 0.0899282)
(22.7054 0.0538737 0.0912914)
(22.7441 0.0564404 0.0841291)
(22.6702 0.0303409 0.037635)
(22.7148 0.0440925 0.039013)
(22.7648 0.0428092 0.0409596)
(22.6801 0.0326112 0.00398006)
(22.7214 0.0444233 -0.000546854)
(22.7672 0.0419176 0.0037031)
(22.5224 0.00423394 -0.011169)
(22.5648 0.00920835 -0.0252104)
(22.7147 -0.0602972 0.030448)
(22.7631 -0.0665667 0.0246906)
(22.8088 -0.0604858 0.0206727)
(21.3506 -1.47496 -1.34909)
(23.2616 -0.829327 -1.39414)
(7.21885 0.279845 0.139119)
(6.50131 -0.431457 -0.428916)
(6.2396 -0.314486 -0.912598)
(8.91705 -0.389664 -0.927904)
(10.7389 -0.369682 0.480077)
(9.23428 -0.0251773 -0.856079)
(22.7101 -0.0674423 0.0540872)
(22.7545 -0.0713817 0.0522125)
(22.7963 -0.0629115 0.0485077)
(22.4592 -0.0477968 0.0621952)
(22.6564 0.0184641 0.102384)
(22.692 0.0250223 0.106698)
(22.7297 0.0259203 0.101651)
(22.6669 0.0419657 0.0895792)
(22.7032 0.0535556 0.091373)
(22.742 0.0564681 0.0845941)
(22.668 0.0294156 0.0376052)
(22.7122 0.0437622 0.0389853)
(22.7622 0.0431447 0.0409332)
(22.678 0.0317701 0.0044478)
(22.719 0.044182 -0.000431463)
(22.7648 0.0423034 0.00344752)
(22.5202 0.00397276 -0.0105788)
(22.5625 0.00901239 -0.0246764)
(22.7123 -0.0596829 0.0307398)
(22.7606 -0.0665451 0.0249522)
(22.8068 -0.0609583 0.0207966)
(21.1522 -1.42017 -1.28878)
(23.2028 -0.88133 -1.42717)
(7.01011 0.298581 0.13593)
(6.41982 -0.424941 -0.432469)
(6.10524 -0.309116 -0.914937)
(8.88199 -0.380305 -0.922651)
(10.5622 -0.379708 0.473299)
(9.084 -0.0196972 -0.858602)
(22.708 -0.0668887 0.0540324)
(22.7522 -0.0714755 0.0523809)
(22.7944 -0.0634577 0.0486434)
(22.458 -0.0472768 0.0621278)
(22.6546 0.0180522 0.101912)
(22.6899 0.0248352 0.106705)
(22.7277 0.0259818 0.102078)
(22.6651 0.0412217 0.0892109)
(22.701 0.0532226 0.0914359)
(22.7399 0.0564887 0.0850487)
(22.6659 0.0284824 0.0375708)
(22.7098 0.043393 0.038957)
(22.7597 0.0434604 0.0409059)
(22.676 0.0309156 0.00492001)
(22.7167 0.0439083 -0.000300209)
(22.7624 0.0426739 0.00319012)
(22.5179 0.00370581 -0.00999992)
(22.5603 0.00880589 -0.0241258)
(22.7581 -0.0664895 0.0252205)
(22.8048 -0.0614154 0.0209259)
(20.9526 -1.35242 -1.21674)
(23.1442 -0.937851 -1.45616)
(6.79277 0.317875 0.132501)
(6.33598 -0.418391 -0.43621)
(5.9674 -0.303319 -0.917386)
(8.84246 -0.371705 -0.917856)
(10.3805 -0.390715 0.466878)
(14.1271 -0.254884 0.648947)
(8.95639 -0.0135389 -0.859504)
(22.7059 -0.0663142 0.0539621)
(22.7499 -0.0715365 0.0525426)
(22.7925 -0.0639949 0.0487816)
(22.4567 -0.0467773 0.062062)
(22.6877 0.0246191 0.106703)
(22.7257 0.0260133 0.102506)
(22.6634 0.0404745 0.0888259)
(22.6988 0.052874 0.0914822)
(22.7378 0.0565014 0.0854945)
(22.6638 0.0275397 0.0375322)
(22.7073 0.0429842 0.0389283)
(22.7571 0.0437557 0.0408765)
(22.674 0.0300512 0.0053856)
(22.7144 0.0436047 -0.000162574)
(22.76 0.0430266 0.00292734)
(22.5157 0.00343332 -0.00943144)
(22.558 0.00858772 -0.0235605)
(22.7556 -0.0664017 0.0254938)
(22.8027 -0.0618558 0.0210598)
(20.9012 -1.26967 -1.12094)
(23.1019 -0.997243 -1.49294)
(6.56625 0.33777 0.129595)
(6.2495 -0.4118 -0.440144)
(5.82687 -0.297033 -0.919911)
(8.79838 -0.363846 -0.913502)
(10.1918 -0.402763 0.460979)
(14.0198 -0.256612 0.643014)
(8.83482 -0.00711124 -0.860051)
(22.7039 -0.0657245 0.0538763)
(22.7476 -0.071566 0.0526966)
(22.7906 -0.0645266 0.0489221)
(22.4555 -0.0462963 0.0619965)
(22.6856 0.0243708 0.106695)
(22.7237 0.0260051 0.102944)
(22.6616 0.039723 0.0884275)
(22.6967 0.0525087 0.0915148)
(22.7358 0.0565054 0.085933)
(22.6616 0.0266072 0.0374948)
(22.7049 0.0425465 0.0389034)
(22.7545 0.0440318 0.040845)
(22.672 0.0291761 0.00583982)
(22.7121 0.04327 -2.16474e-05)
(22.7577 0.0433602 0.00265696)
(22.5134 0.00315583 -0.00887198)
(22.5558 0.00835512 -0.0229853)
(22.7531 -0.066282 0.0257713)
(22.8005 -0.0622794 0.0211961)
(20.6876 -1.19302 -1.03615)
(23.0621 -1.06386 -1.5266)
(6.33068 0.358134 0.127087)
(6.16063 -0.405152 -0.444264)
(5.68374 -0.290255 -0.922486)
(8.74956 -0.356701 -0.909593)
(9.9955 -0.415917 0.455684)
(13.9065 -0.260301 0.636469)
(8.71116 -0.000540586 -0.860875)
(22.7018 -0.0651279 0.0537763)
(22.7453 -0.0715729 0.0528412)
(22.7886 -0.0650516 0.0490661)
(22.4543 -0.0458314 0.0619302)
(22.6836 0.0240869 0.106684)
(22.7217 0.0259939 0.103362)
(22.6599 0.0389664 0.0880193)
(22.6946 0.0521259 0.0915364)
(22.7337 0.0565 0.086366)
(22.6595 0.0256822 0.0374528)
(22.7025 0.0420816 0.0388791)
(22.752 0.0442904 0.0408076)
(22.67 0.0282898 0.00628295)
(22.7099 0.0429031 0.000119749)
(22.7553 0.0436724 0.00237623)
(22.5112 0.00287314 -0.00832025)
(22.5535 0.00811978 -0.0223904)
(22.7506 -0.066134 0.0260494)
(22.7984 -0.0626869 0.0213343)
(20.4175 -1.1102 -0.948873)
(23.0235 -1.13426 -1.55624)
(6.08798 0.37833 0.125296)
(6.06926 -0.398438 -0.448573)
(7.96284 -0.554279 -0.408196)
(5.53843 -0.282957 -0.925123)
(8.69443 -0.350361 -0.906235)
(9.79093 -0.430011 0.450979)
(13.7886 -0.263182 0.630295)
(8.58477 0.00603136 -0.862041)
(12.7529 -0.126089 -0.764683)
(22.6998 -0.0645278 0.0536645)
(22.743 -0.0715571 0.052978)
(22.7866 -0.0655673 0.0492153)
(22.453 -0.04538 0.061863)
(22.6816 0.0237566 0.106681)
(22.7196 0.0259882 0.10375)
(22.6583 0.0382036 0.0876046)
(22.6925 0.0517248 0.0915498)
(22.7316 0.0564861 0.0867973)
(22.6573 0.0247605 0.0374102)
(22.7001 0.0415893 0.0388487)
(22.7494 0.04453 0.040758)
(22.6681 0.0273875 0.00671015)
(22.7077 0.0425028 0.000258032)
(22.753 0.0439603 0.00208243)
(22.5089 0.0025931 -0.00777604)
(22.5513 0.00788478 -0.0217777)
(22.7481 -0.0659597 0.0263258)
(22.7962 -0.0630794 0.0214738)
(20.3302 -1.01394 -0.83562)
(22.9856 -1.20498 -1.59193)
(5.8526 0.394528 0.126742)
(5.97526 -0.391637 -0.453068)
(7.91998 -0.542851 -0.410164)
(5.41437 -0.274541 -0.926801)
(8.63281 -0.344742 -0.903431)
(9.58356 -0.444535 0.446577)
(13.6632 -0.266668 0.624096)
(8.45727 0.0124938 -0.863468)
(12.7201 -0.130724 -0.761729)
(22.6978 -0.0639266 0.0535442)
(22.7407 -0.0715186 0.0531084)
(22.7846 -0.0660729 0.0493716)
(22.4517 -0.0449392 0.0617938)
(22.6796 0.0234188 0.10665)
(22.7175 0.0259857 0.104111)
(22.6567 0.0374349 0.0871862)
(22.6905 0.0513046 0.0915585)
(22.7294 0.0564576 0.0872085)
(22.6552 0.0238396 0.0373692)
(22.6978 0.0410697 0.038809)
(22.7469 0.0447491 0.0406924)
(22.6661 0.026472 0.00710962)
(22.7055 0.0420672 0.000389431)
(22.7506 0.0442208 0.00177228)
(22.5065 0.00231951 -0.00723964)
(22.5491 0.00765049 -0.0211489)
(22.7457 -0.0657613 0.0265971)
(22.794 -0.0634579 0.0216131)
(19.9615 -0.960031 -0.777305)
(22.9382 -1.26938 -1.61897)
(5.64287 0.402945 0.133586)
(5.87881 -0.384727 -0.457757)
(7.87731 -0.531826 -0.412181)
(5.29478 -0.265556 -0.92854)
(8.56452 -0.339793 -0.90119)
(9.36362 -0.4596 0.442796)
(13.5329 -0.270614 0.617793)
(8.32908 0.0188761 -0.865177)