/*--------------------------------*- C++ -*----------------------------------*\
| =========                 |                                                 |
| \\      /  F ield         | OpenFOAM: The Open Source CFD Toolbox           |
|  \\    /   O peration     | Version:  2.1.1                                 |
|   \\  /    A nd           | Web:      www.OpenFOAM.org                      |
|    \\/     M anipulation  |                                                 |
\*---------------------------------------------------------------------------*/
FoamFile
{
    version     2.0;
    format      ascii;
    class       volScalarField;
    location    "0.00105";
    object      alpha1;
}
// * * * * * * * * * * * * * * * * * * * * * * * * * * * * * * * * * * * * * //

dimensions      [0 0 0 0 0 0 0];

internalField   nonuniform List<scalar> 
36520
(
-1.49007e-12
-1.73965e-13
-2.52157e-13
-3.33246e-13
-4.4545e-13
-5.71785e-13
-7.19874e-13
-8.65366e-13
-1.0085e-12
-1.13011e-12
-1.24144e-12
-1.3426e-12
-1.457e-12
-1.5949e-12
-1.76861e-12
-1.98626e-12
-2.26619e-12
-2.64213e-12
-3.16406e-12
-3.89328e-12
-4.89118e-12
-6.21244e-12
-7.8937e-12
-9.93857e-12
-1.23058e-11
-1.48946e-11
-1.75235e-11
-1.99405e-11
-2.18735e-11
-2.31436e-11
-2.37819e-11
-2.41817e-11
-2.52221e-11
-2.82437e-11
-3.46995e-11
-4.54834e-11
-6.06467e-11
-7.94477e-11
-1.00493e-10
-1.21637e-10
-1.39738e-10
-1.5007e-10
-1.39585e-10
-1.09629e-10
-7.85326e-11
-6.66345e-11
-5.40833e-11
-5.94626e-12
-6.24553e-14
-1.4758e-15
-1.073e-17
-5.88045e-20
-2.94909e-22
-1.42185e-24
-5.801e-27
-1.69577e-29
-3.42178e-32
-4.64683e-35
-3.86227e-38
-1.56997e-41
-4.84059e-12
-3.56478e-12
-4.49975e-12
-5.44823e-12
-6.73577e-12
-7.88253e-12
-8.98568e-12
-9.81957e-12
-1.05322e-11
-1.10775e-11
-1.16366e-11
-1.22294e-11
-1.29818e-11
-1.38869e-11
-1.49632e-11
-1.63445e-11
-1.81929e-11
-2.0833e-11
-2.45162e-11
-2.95545e-11
-3.60797e-11
-4.41513e-11
-5.35571e-11
-6.3796e-11
-7.39694e-11
-8.30216e-11
-8.97153e-11
-9.28213e-11
-9.11133e-11
-8.38806e-11
-7.13877e-11
-5.56464e-11
-4.05781e-11
-3.09678e-11
-2.87819e-11
-3.18847e-11
-3.61181e-11
-3.84576e-11
-3.87134e-11
-3.84575e-11
-3.70722e-11
-3.6854e-11
-1.9905e-11
-1.39055e-12
-3.80912e-13
-4.37608e-12
-2.32666e-11
-7.99292e-11
-9.54463e-13
-4.21693e-14
-4.91209e-16
-3.80172e-18
-2.43424e-20
-1.41511e-22
-6.20457e-25
-1.92806e-27
-4.14861e-30
-5.91149e-33
-5.26519e-36
-2.17116e-39
-1.21978e-11
-1.21206e-11
-1.42008e-11
-1.60041e-11
-1.82049e-11
-1.94235e-11
-2.01156e-11
-1.97752e-11
-1.90489e-11
-1.78899e-11
-1.66901e-11
-1.54616e-11
-1.4314e-11
-1.32584e-11
-1.2352e-11
-1.18297e-11
-1.18373e-11
-1.25344e-11
-1.38768e-11
-1.57784e-11
-1.81798e-11
-2.09697e-11
-2.3873e-11
-2.65316e-11
-2.85608e-11
-2.96622e-11
-3.0099e-11
-2.7769e-11
-2.24697e-11
-1.50943e-11
-7.0451e-12
-9.97894e-13
1.74177e-19
4.65998e-19
1.15139e-18
3.15219e-18
8.6531e-18
2.28866e-17
2.86195e-16
1.86502e-14
2.51657e-14
1.23027e-08
8.43333e-08
1.77996e-07
2.15499e-07
1.31232e-07
9.75821e-09
-4.91697e-10
-5.72093e-12
-5.05037e-13
-1.00775e-14
-1.11562e-16
-9.36966e-19
-6.29067e-21
-2.9301e-23
-9.5198e-26
-2.11659e-28
-3.09397e-31
-2.80461e-34
-1.16959e-37
-2.19324e-11
-1.83198e-11
-1.87528e-11
-1.84727e-11
-1.83939e-11
-1.72071e-11
-1.57208e-11
-1.36008e-11
-1.12708e-11
-8.66942e-12
-5.8522e-12
-2.87958e-12
-5.62033e-13
-6.40713e-20
-1.29906e-19
-1.69771e-19
-1.1405e-19
1.45643e-20
3.84772e-19
7.97775e-19
1.09799e-18
9.59617e-19
1.8896e-19
-1.43635e-18
-5.61541e-17
1.24968e-16
4.75506e-10
4.63515e-09
8.81901e-09
1.363e-08
1.84016e-08
2.26314e-08
2.62794e-08
2.98692e-08
3.43837e-08
4.20764e-08
5.87213e-08
9.83721e-08
2.07104e-07
5.63822e-07
1.81593e-06
5.70136e-06
1.4268e-05
2.30931e-05
2.2112e-05
1.48134e-05
4.64829e-06
1.36787e-07
-1.3399e-11
-3.25397e-12
-1.29376e-13
-2.12105e-15
-2.44858e-17
-1.86616e-19
-9.55057e-22
-3.3485e-24
-7.91426e-27
-1.21967e-29
-1.15026e-32
-5.00365e-36
-2.21142e-11
-1.59953e-11
-1.23243e-11
-7.57824e-12
-2.59454e-12
-3.59322e-19
-5.4254e-19
-2.30922e-19
-4.75903e-19
-2.32257e-18
8.51044e-13
4.02817e-11
2.09067e-10
5.46974e-10
1.00285e-09
1.63976e-09
2.68192e-09
4.43174e-09
7.54921e-09
1.3302e-08
2.3994e-08
4.39228e-08
8.27436e-08
1.53985e-07
2.66073e-07
4.18078e-07
6.00979e-07
8.01309e-07
9.72122e-07
1.08085e-06
1.14613e-06
1.20694e-06
1.25702e-06
1.28045e-06
1.2964e-06
1.36113e-06
1.61308e-06
2.31577e-06
4.21331e-06
9.78004e-06
2.71234e-05
8.03134e-05
0.000205289
0.000333942
0.000334109
0.0002581
0.00012804
1.58134e-05
1.33916e-09
-1.07274e-11
-1.17287e-12
-3.06416e-14
-4.37659e-16
-3.91033e-18
-2.27222e-20
-8.84694e-23
-2.28457e-25
-3.8092e-28
-3.83508e-31
-1.7787e-34
-1.49166e-11
-3.65629e-12
6.05903e-13
3.4578e-11
9.32196e-11
2.27135e-10
4.81597e-10
9.43876e-10
1.66017e-09
2.83006e-09
4.70716e-09
7.5806e-09
1.21151e-08
1.91363e-08
2.93399e-08
4.50913e-08
7.30889e-08
1.20242e-07
2.03864e-07
3.62293e-07
6.78731e-07
1.27974e-06
2.4201e-06
4.40498e-06
7.29906e-06
1.06776e-05
1.35768e-05
1.51719e-05
1.5753e-05
1.60405e-05
1.55824e-05
1.4982e-05
1.54037e-05
1.65789e-05
1.7766e-05
1.87677e-05
2.11434e-05
2.86363e-05
4.63659e-05
9.0211e-05
0.000213176
0.000584424
0.00154134
0.00258366
0.0029386
0.00292313
0.00214054
0.00032721
4.21475e-07
-1.72023e-11
-7.9842e-12
-2.99943e-13
-5.41815e-15
-5.8021e-17
-3.91296e-19
-1.72606e-21
-4.96013e-24
-9.09654e-27
-9.93749e-30
-4.99077e-33
1.05273e-11
2.60214e-10
9.35132e-10
2.95713e-09
7.27731e-09
1.45884e-08
2.26667e-08
4.48714e-08
7.86062e-08
1.34195e-07
2.22282e-07
3.5114e-07
5.30416e-07
7.54829e-07
1.02589e-06
1.38343e-06
1.88977e-06
2.58161e-06
3.63008e-06
5.40505e-06
8.23124e-06
1.17299e-05
1.56343e-05
2.00055e-05
2.48981e-05
2.93397e-05
3.51041e-05
4.22988e-05
4.50465e-05
4.87418e-05
5.72683e-05
5.42624e-05
4.67302e-05
4.8161e-05
5.70705e-05
7.12581e-05
9.38073e-05
0.000142304
0.000265731
0.000568781
0.00149703
0.00428195
0.00900287
0.0157016
0.0221379
0.0239417
0.0159121
0.00171293
4.81185e-06
-2.47959e-10
-4.79392e-11
-2.18644e-12
-4.79877e-14
-6.12203e-16
-4.82613e-18
-2.44334e-20
-7.93555e-23
-1.62629e-25
-1.96215e-28
-1.08542e-31
4.62588e-11
1.01656e-09
1.38332e-08
1.20603e-07
4.21839e-07
6.20216e-07
4.04176e-07
7.03662e-07
1.37357e-06
2.43218e-06
3.97425e-06
5.70121e-06
7.31162e-06
8.8603e-06
1.05982e-05
1.29405e-05
1.58589e-05
1.90507e-05
2.29358e-05
2.76941e-05
3.33019e-05
3.84956e-05
4.29853e-05
4.75128e-05
5.46876e-05
6.75407e-05
8.44402e-05
0.00010142
0.000118943
0.000141919
0.00016766
0.000172731
0.0001623
0.000136731
0.000118131
0.000112141
0.000109928
0.00010993
0.00011175
0.000200613
0.000522253
0.00237795
0.021891
0.0909652
0.147431
0.131838
0.0484033
0.00276544
7.7182e-06
-2.26173e-09
-2.54966e-10
-1.24185e-11
-3.10478e-13
-4.57703e-15
-4.17431e-17
-2.42916e-19
-8.98174e-22
-2.07856e-24
-2.80035e-27
-1.72343e-30
-2.41565e-16
-1.19742e-15
2.08102e-16
3.22537e-15
6.08769e-17
-7.91412e-16
8.96065e-06
2.08994e-05
2.07317e-05
2.47689e-05
3.97301e-05
4.72051e-05
4.26952e-05
4.41129e-05
4.24188e-05
3.95684e-05
4.2211e-05
4.84474e-05
5.86617e-05
7.24946e-05
9.12802e-05
0.00011664
0.000154217
0.000213133
0.000294267
0.000381123
0.000445831
0.000490239
0.000538826
0.000619593
0.000705843
0.00073823
0.000743054
0.000760194
0.000781206
0.000767822
0.000636217
0.000371627
0.000219733
0.00025199
0.00032452
0.000672498
0.00870364
0.139401
0.448988
0.341841
0.0741284
0.00255186
3.72177e-06
-4.85821e-09
-9.75979e-10
-5.52106e-11
-1.55823e-12
-2.60204e-14
-2.67377e-16
-1.73074e-18
-7.00566e-21
-1.75302e-23
-2.52282e-26
-1.64942e-29
5.81621e-16
-1.61201e-15
1.93908e-15
7.22434e-17
2.34885e-14
-7.5416e-13
1.19686e-06
1.71476e-05
5.18449e-05
8.80346e-05
7.71643e-05
7.1323e-05
7.76083e-05
9.57026e-05
9.40857e-05
7.2466e-05
7.37246e-05
8.34996e-05
0.000105177
0.000141561
0.00018698
0.000245536
0.000327962
0.000445635
0.000615399
0.000763456
0.000795509
0.000771039
0.000782426
0.000829095
0.000866296
0.000886173
0.000918678
0.000934815
0.000942507
0.000953611
0.0009322
0.000917615
0.000943205
0.000964874
0.000862944
0.00103295
0.00881677
0.13252
0.449055
0.326936
0.0636989
0.00197386
2.06833e-06
-4.13089e-09
-1.1127e-09
-6.35769e-11
-1.83561e-12
-3.12035e-14
-3.21829e-16
-2.05912e-18
-8.14201e-21
-1.96858e-23
-2.72112e-26
-1.69762e-29
-8.01998e-14
3.60456e-07
1.89039e-09
-6.21069e-10
-1.70273e-10
-8.79336e-11
3.20794e-06
5.05702e-06
7.67089e-06
1.73236e-05
2.59865e-05
2.93876e-05
3.01857e-05
3.09327e-05
3.53695e-05
4.56578e-05
6.21508e-05
7.62206e-05
9.22319e-05
0.000142947
0.000170855
0.000161847
0.000166746
0.00018797
0.000217661
0.000249636
0.000262381
0.000253364
0.00025597
0.000270032
0.000292728
0.000320417
0.000324818
0.000324102
0.00031741
0.000297519
0.000259986
0.000230978
0.000232301
0.000270869
0.000258552
0.000445231
0.00571223
0.11225
0.524493
0.423461
0.0887963
0.00299835
4.69258e-06
-7.96367e-09
-1.47175e-09
-8.56011e-11
-2.46477e-12
-4.10181e-14
-4.11628e-16
-2.54934e-18
-9.72253e-21
-2.25181e-23
-2.96652e-26
-1.7516e-29
7.159e-07
1.52628e-06
6.50841e-07
1.48211e-06
3.0843e-06
5.35236e-06
9.13029e-06
1.15048e-05
1.45362e-05
1.76822e-05
2.01422e-05
2.12579e-05
2.31762e-05
2.72945e-05
3.4391e-05
4.24674e-05
3.83073e-05
3.26594e-05
5.83895e-05
0.000153267
0.000213947
0.000164672
0.000161973
0.00025679
0.000396653
0.000332912
0.00018742
0.000133519
0.000148077
0.000590555
0.000706678
0.000706252
0.000530718
0.000224137
0.000230501
0.000267318
0.000231039
0.000166065
0.000156646
0.000148131
0.000147715
0.000268775
0.00398198
0.0604411
0.439927
0.519852
0.191257
0.011759
6.43163e-05
-2.98972e-08
-2.0917e-09
-9.53214e-11
-2.47587e-12
-3.71382e-14
-3.32067e-16
-1.82114e-18
-6.15915e-21
-1.26164e-23
-1.46829e-26
-7.58516e-30
3.52585e-07
9.57687e-07
1.52665e-06
2.87469e-06
4.90966e-06
7.33687e-06
9.70522e-06
1.24815e-05
1.63679e-05
1.7762e-05
1.56984e-05
1.44043e-05
1.63875e-05
1.96529e-05
2.00408e-05
2.02815e-05
2.43397e-05
4.67661e-05
9.1855e-05
9.87343e-05
0.00010817
0.000133557
0.0001233
9.60723e-05
0.000143961
0.000680556
0.000722425
0.000297244
0.000170286
0.000171174
0.000169879
0.000458325
0.000647859
0.000647417
0.000510621
0.000226561
0.000201972
0.00022063
0.000229604
0.000170176
0.000147674
0.000323738
0.00439431
0.0605632
0.409603
0.481618
0.185499
0.0121571
7.23767e-05
-2.97225e-08
-2.05945e-09
-9.29501e-11
-2.40958e-12
-3.62196e-14
-3.24829e-16
-1.7872e-18
-6.0625e-21
-1.24549e-23
-1.45333e-26
-7.53113e-30
-5.04446e-10
2.64288e-05
7.56625e-06
2.87473e-06
3.15736e-06
5.69518e-06
4.29809e-06
1.46646e-06
1.46608e-06
3.69918e-06
1.58517e-05
3.53476e-05
4.98798e-05
4.82298e-05
4.26577e-05
3.81867e-05
3.7724e-05
4.66144e-05
5.89788e-05
8.03232e-05
0.000105238
0.000104559
0.000108525
0.000122056
0.000141915
0.000183317
0.00021673
0.000238447
0.000259387
0.000272474
0.000289993
0.000321762
0.000374948
0.00041719
0.000407271
0.000357085
0.000289497
0.000262211
0.000272376
0.000316728
0.000324919
0.000693733
0.00878113
0.137755
0.4808
0.343083
0.0601127
0.00168325
1.26563e-06
-4.22725e-09
-1.09034e-09
-6.05281e-11
-1.73045e-12
-2.89186e-14
-2.90257e-16
-1.78978e-18
-6.77448e-21
-1.55545e-23
-2.02874e-26
-1.18475e-29
1.54089e-10
0.00101582
0.000255296
6.212e-06
7.40907e-06
1.3077e-05
1.67197e-05
1.82784e-05
2.03713e-05
2.5951e-05
4.94627e-05
0.000100084
0.000148781
0.000153143
0.00012367
5.35705e-05
3.66276e-05
4.63377e-05
0.000105456
7.09433e-05
2.3104e-05
1.98406e-05
4.33528e-05
0.000301985
0.00084483
0.000817043
0.00050508
0.000196912
9.67033e-05
8.52544e-05
8.52558e-05
0.00016843
0.000853487
0.000952972
0.000887828
0.000511802
0.000363172
0.000356538
0.000365303
0.000379053
0.000331273
0.000598766
0.00808087
0.134872
0.418743
0.263525
0.0345166
0.00056466
-6.50574e-08
-7.68132e-09
-6.13662e-10
-2.94584e-11
-8.19887e-13
-1.349e-14
-1.33799e-16
-8.21391e-19
-3.11749e-21
-7.23273e-24
-9.57094e-27
-5.70093e-30
3.55536e-10
-2.13089e-10
-3.77675e-09
-3.3999e-10
5.22653e-14
-9.6979e-13
8.31722e-06
1.35799e-05
2.06298e-05
3.15593e-05
4.56803e-05
6.38555e-05
8.16297e-05
7.79816e-05
7.38142e-05
8.88739e-05
0.000109439
0.000113993
0.000110396
3.98912e-05
5.08763e-05
0.000120363
0.000511042
0.00065248
0.000582561
0.00036805
0.000198891
0.000166036
0.000319514
0.000876222
0.00124041
0.00124042
0.000924073
0.000466415
0.000275182
0.000240976
0.000222351
0.000197135
0.000161867
0.000113274
0.000116202
0.000534913
0.0112556
0.166303
0.416902
0.271015
0.0405465
0.000764841
-5.87347e-08
-8.38747e-09
-5.90943e-10
-2.57562e-11
-6.80201e-13
-1.09432e-14
-1.08201e-16
-6.71721e-19
-2.60723e-21
-6.25489e-24
-8.61574e-27
-5.37398e-30
1.32958e-09
3.07877e-08
1.37549e-07
3.34647e-07
6.70341e-07
1.09796e-06
1.65182e-06
2.65631e-06
3.93935e-06
5.59772e-06
7.78075e-06
1.01973e-05
1.20504e-05
1.37383e-05
1.83071e-05
2.37517e-05
2.69822e-05
2.66436e-05
2.46438e-05
3.04178e-05
5.80961e-05
9.35745e-05
0.00010683
8.63694e-05
4.20048e-05
3.3815e-05
8.86862e-05
0.000364071
0.000470763
0.000470767
0.000406136
0.000270392
0.000124106
4.45885e-05
3.63033e-05
4.18643e-05
4.51723e-05
4.54338e-05
5.55979e-05
8.77729e-05
0.000214805
0.00137468
0.0187154
0.0951248
0.139627
0.109909
0.0336917
0.00157485
3.17949e-06
-1.25315e-09
-1.69071e-10
-8.11421e-12
-1.97973e-13
-2.85483e-15
-2.55428e-17
-1.46047e-19
-5.30994e-22
-1.20844e-24
-1.60011e-27
-9.64553e-31
-4.39895e-11
-1.33941e-16
7.17903e-17
1.06405e-10
3.69336e-10
3.61755e-09
9.28773e-09
1.66738e-08
2.44686e-08
3.42874e-08
4.50361e-08
6.18332e-08
9.41046e-08
1.53687e-07
2.53329e-07
3.20487e-07
3.4744e-07
3.64734e-07
4.13425e-07
5.08135e-07
6.82316e-07
9.16346e-07
1.3028e-06
2.1903e-06
4.08056e-06
7.64716e-06
1.1638e-05
1.42346e-05
1.29587e-05
9.36199e-06
6.20722e-06
4.10542e-06
3.71337e-06
4.29488e-06
5.61363e-06
8.00892e-06
1.21724e-05
1.94113e-05
3.82518e-05
9.95326e-05
0.000388302
0.00211096
0.00732556
0.0148228
0.0196758
0.0201659
0.0128052
0.00115562
2.34182e-06
-1.47074e-10
-3.29954e-11
-1.43644e-12
-3.01464e-14
-3.69449e-16
-2.80562e-18
-1.36811e-20
-4.27838e-23
-8.4236e-26
-9.75592e-29
-5.1541e-32
-1.422e-10
-1.24056e-10
-1.08536e-10
-8.54378e-11
-5.70345e-11
-1.9395e-11
9.64412e-19
4.19928e-19
-2.03809e-19
4.11076e-19
-4.07987e-19
-2.86983e-18
-4.9124e-18
-7.13903e-18
-1.87171e-16
2.61203e-16
-1.15605e-17
-1.7751e-17
1.60684e-18
3.46983e-18
3.22334e-18
3.09171e-18
1.32859e-18
-3.31631e-18
-9.30021e-18
-1.57821e-17
-2.79704e-17
-5.75602e-17
-1.00217e-16
-1.43272e-16
-1.46449e-16
-7.64342e-18
7.17083e-16
2.92317e-15
9.26541e-15
2.77867e-14
8.41688e-14
2.57709e-13
1.05173e-12
4.69269e-12
2.86792e-07
5.78658e-05
0.000354819
0.000906855
0.00137468
0.00188946
0.0018951
0.000303992
3.06253e-07
-9.16973e-12
-6.33172e-12
-2.19749e-13
-3.72648e-15
-3.7686e-17
-2.40191e-19
-9.9843e-22
-2.697e-24
-4.62055e-27
-4.70629e-30
-2.18999e-33
-1.86124e-10
-2.21442e-10
-2.78579e-10
-3.28418e-10
-3.95225e-10
-4.62955e-10
-5.42413e-10
-6.21768e-10
-7.14537e-10
-8.14542e-10
-9.25643e-10
-1.04733e-09
-1.18071e-09
-1.33412e-09
-1.5075e-09
-1.69919e-09
-1.90502e-09
-2.13869e-09
-2.40261e-09
-2.71559e-09
-3.07614e-09
-3.48366e-09
-3.92198e-09
-4.368e-09
-4.76373e-09
-5.03029e-09
-5.08237e-09
-4.89677e-09
-4.5172e-09
-4.03716e-09
-3.56358e-09
-3.19185e-09
-2.94533e-09
-2.7596e-09
-2.53563e-09
-2.0904e-09
-1.40895e-09
-4.44409e-10
-2.01413e-14
-7.04576e-14
1.96416e-14
3.92373e-13
-4.13682e-13
2.71062e-06
1.26835e-05
3.10102e-05
5.70369e-05
1.63072e-05
8.1257e-10
-1.28089e-11
-1.19367e-12
-2.84903e-14
-3.79848e-16
-3.16933e-18
-1.70885e-20
-6.12685e-23
-1.44757e-25
-2.18185e-28
-1.98137e-31
-8.18656e-35
-1.24152e-10
-1.70818e-10
-2.34086e-10
-3.02272e-10
-3.82291e-10
-4.66957e-10
-5.62639e-10
-6.65719e-10
-7.83155e-10
-9.08317e-10
-1.04592e-09
-1.19094e-09
-1.34249e-09
-1.49857e-09
-1.65959e-09
-1.83182e-09
-2.01337e-09
-2.21881e-09
-2.45552e-09
-2.74484e-09
-3.08277e-09
-3.4663e-09
-3.87751e-09
-4.29724e-09
-4.68834e-09
-5.00184e-09
-5.18366e-09
-5.22836e-09
-5.17655e-09
-5.09283e-09
-5.03614e-09
-5.0492e-09
-5.15873e-09
-5.37976e-09
-5.72835e-09
-6.20488e-09
-6.75909e-09
-7.29022e-09
-7.55413e-09
-7.52251e-09
-6.4077e-09
-5.54442e-09
-3.88306e-09
-7.79795e-10
-6.11676e-12
-2.08306e-10
-4.10896e-09
1.69465e-09
-2.10547e-11
-7.08037e-12
-2.22189e-13
-3.55189e-15
-4.07772e-17
-3.12835e-19
-1.59991e-21
-5.58257e-24
-1.30092e-26
-1.96221e-29
-1.80996e-32
-7.65489e-36
-4.3725e-11
-5.50967e-11
-7.60095e-11
-1.00262e-10
-1.2859e-10
-1.59447e-10
-1.94529e-10
-2.31419e-10
-2.73854e-10
-3.18026e-10
-3.66237e-10
-4.16665e-10
-4.70027e-10
-5.26941e-10
-5.84973e-10
-6.45366e-10
-7.08666e-10
-7.82843e-10
-8.67346e-10
-9.67719e-10
-1.08271e-09
-1.21239e-09
-1.3529e-09
-1.50032e-09
-1.64802e-09
-1.78891e-09
-1.91563e-09
-2.03212e-09
-2.14991e-09
-2.28502e-09
-2.44704e-09
-2.63855e-09
-2.85081e-09
-3.06514e-09
-3.25598e-09
-3.38865e-09
-3.43363e-09
-3.37422e-09
-3.22831e-09
-3.12848e-09
-3.19164e-09
-3.65915e-09
-4.03432e-09
-4.50824e-09
-4.74667e-09
-4.59318e-09
-2.96071e-09
-3.24989e-10
-1.3099e-11
-8.51027e-13
-1.35594e-14
-1.40305e-16
-1.13278e-18
-7.51829e-21
-3.46309e-23
-1.12193e-25
-2.49205e-28
-3.66797e-31
-3.37445e-34
-1.45151e-37
-7.64432e-12
-7.50353e-12
-9.82861e-12
-1.26601e-11
-1.63442e-11
-2.04365e-11
-2.5287e-11
-3.05995e-11
-3.67297e-11
-4.34537e-11
-5.09019e-11
-5.90397e-11
-6.7933e-11
-7.77545e-11
-8.79446e-11
-9.88778e-11
-1.10901e-10
-1.25456e-10
-1.4239e-10
-1.6267e-10
-1.86431e-10
-2.14076e-10
-2.45405e-10
-2.80312e-10
-3.18469e-10
-3.59707e-10
-4.03844e-10
-4.52206e-10
-5.06814e-10
-5.70103e-10
-6.42343e-10
-7.21794e-10
-8.02497e-10
-8.74734e-10
-9.26354e-10
-9.45033e-10
-9.24002e-10
-8.72054e-10
-8.58203e-10
-8.83194e-10
-8.72836e-10
-8.4449e-10
-9.14666e-10
-1.08116e-09
-1.17088e-09
-1.19451e-09
-5.97507e-10
-3.18452e-11
-1.46243e-12
-4.16183e-14
-3.85109e-16
-2.75682e-18
-1.74995e-20
-1.03914e-22
-4.77928e-25
-1.59618e-27
-3.71174e-30
-5.81204e-33
-5.69509e-36
-2.61874e-39
-1.19085e-12
-2.35081e-13
-3.24277e-13
-4.03481e-13
-5.38808e-13
-6.97912e-13
-9.05393e-13
-1.14852e-12
-1.44305e-12
-1.7818e-12
-2.17907e-12
-2.63243e-12
-3.15874e-12
-3.77347e-12
-4.44619e-12
-5.20244e-12
-6.1021e-12
-7.20829e-12
-8.55717e-12
-1.0222e-11
-1.22726e-11
-1.47844e-11
-1.78192e-11
-2.14256e-11
-2.56569e-11
-3.0586e-11
-3.63086e-11
-4.30281e-11
-5.10361e-11
-6.07204e-11
-7.23963e-11
-8.62691e-11
-1.02143e-10
-1.19259e-10
-1.36638e-10
-1.53559e-10
-1.70505e-10
-1.8893e-10
-2.07379e-10
-2.21291e-10
-2.30039e-10
-2.30315e-10
-2.19552e-10
-1.97474e-10
-1.64471e-10
-1.19694e-10
-4.34436e-11
-1.47073e-12
-5.99187e-14
-8.46048e-16
-5.12672e-18
-2.9586e-20
-1.76315e-22
-1.00653e-24
-4.73163e-27
-1.61847e-29
-3.79201e-32
-6.06458e-35
-5.89211e-38
-2.82263e-41
-2.42523e-13
-1.27974e-13
-2.02235e-13
-2.7549e-13
-3.84938e-13
-5.13257e-13
-6.78567e-13
-8.71521e-13
-1.10697e-12
-1.37989e-12
-1.70317e-12
-2.07656e-12
-2.51691e-12
-3.02791e-12
-3.63151e-12
-4.34631e-12
-5.19982e-12
-6.23145e-12
-7.48763e-12
-9.02924e-12
-1.09041e-11
-1.31489e-11
-1.57788e-11
-1.87957e-11
-2.21828e-11
-2.59471e-11
-3.01122e-11
-3.46747e-11
-3.94515e-11
-4.39312e-11
-4.7035e-11
-4.70483e-11
-4.32245e-11
-3.88108e-11
-3.5685e-11
-3.40815e-11
-3.40328e-11
-3.56273e-11
-3.94659e-11
-4.59e-11
-5.56007e-11
-6.50076e-11
-6.84973e-11
-6.54651e-11
-5.62745e-11
-3.82987e-11
-1.699e-11
-2.73511e-12
-5.70001e-14
-1.30137e-15
-9.97064e-18
-6.42116e-20
-3.91716e-22
-2.18165e-24
-9.90035e-27
-3.2265e-29
-7.14883e-32
-1.07202e-34
-9.74024e-38
-4.33321e-41
-8.33232e-13
-2.10947e-12
-3.35748e-12
-4.82532e-12
-6.68567e-12
-8.80206e-12
-1.13315e-11
-1.41372e-11
-1.74186e-11
-2.10923e-11
-2.52255e-11
-2.99092e-11
-3.51353e-11
-4.09907e-11
-4.75645e-11
-5.50494e-11
-6.34469e-11
-7.31317e-11
-8.40944e-11
-9.66746e-11
-1.10501e-10
-1.25205e-10
-1.3984e-10
-1.53502e-10
-1.64985e-10
-1.72981e-10
-1.75735e-10
-1.70298e-10
-1.52024e-10
-1.16197e-10
-6.13235e-11
3.38839e-12
1.56506e-10
7.10178e-10
1.42184e-09
2.14244e-09
2.7286e-09
3.07096e-09
3.17614e-09
3.07059e-09
2.42575e-09
1.63279e-09
7.50328e-10
2.1324e-10
5.90099e-11
-3.48596e-13
-1.94285e-12
-2.93738e-11
-7.19917e-13
-4.00084e-14
-5.00266e-16
-4.33432e-18
-3.16677e-20
-2.05863e-22
-9.97402e-25
-3.43406e-27
-8.0858e-30
-1.26628e-32
-1.22556e-35
-5.53367e-39
9.26289e-12
-3.99526e-12
-7.66452e-12
-1.21281e-11
-1.73255e-11
-2.36218e-11
-3.10354e-11
-3.96625e-11
-4.96496e-11
-6.07111e-11
-7.26932e-11
-8.54405e-11
-9.85211e-11
-1.1173e-10
-1.24605e-10
-1.36597e-10
-1.46495e-10
-1.53136e-10
-1.54783e-10
-1.50357e-10
-1.38683e-10
-1.19794e-10
-9.20722e-11
-5.73198e-11
-1.62391e-11
3.82357e-11
2.76259e-10
5.8705e-10
1.11019e-09
2.19513e-09
4.6253e-09
1.09061e-08
2.72444e-08
6.23568e-08
1.2086e-07
2.02717e-07
3.08841e-07
4.31477e-07
5.53688e-07
6.45122e-07
7.05653e-07
6.59876e-07
4.3816e-07
1.73002e-07
1.48264e-08
4.63448e-09
8.13955e-09
5.30114e-10
-4.31142e-12
-5.08046e-13
-1.1738e-14
-1.42774e-16
-1.28726e-18
-9.36715e-21
-4.71585e-23
-1.66445e-25
-3.99036e-28
-6.31896e-31
-6.16915e-34
-2.80424e-37
-6.4399e-12
-1.89068e-11
-3.19855e-11
-5.15131e-11
-7.13871e-11
-9.39584e-11
-1.1672e-10
-1.40244e-10
-1.62571e-10
-1.82339e-10
-1.98623e-10
-2.11377e-10
-2.20448e-10
-2.27117e-10
-2.33324e-10
-2.41227e-10
-2.54015e-10
-2.71757e-10
-2.89623e-10
-2.95459e-10
-2.74078e-10
-2.15077e-10
-1.88282e-10
-1.44317e-10
-8.47794e-11
-1.82686e-11
5.02994e-11
2.5846e-10
5.52772e-10
1.1624e-09
2.66224e-09
6.37384e-09
1.53875e-08
3.41377e-08
6.48571e-08
1.04076e-07
1.47248e-07
1.98541e-07
2.71677e-07
4.00598e-07
5.86494e-07
3.31499e-07
1.53685e-07
1.54888e-07
4.25709e-07
1.12558e-06
2.32848e-06
1.32831e-06
2.60743e-09
-3.09932e-12
-1.7063e-13
-3.08144e-15
-3.77054e-17
-3.04247e-19
-1.63444e-21
-6.01753e-24
-1.48388e-26
-2.39264e-29
-2.35978e-32
-1.08672e-35
-6.48724e-11
-1.07198e-10
-1.59691e-10
-2.23263e-10
-2.89244e-10
-3.65273e-10
-4.45496e-10
-5.29431e-10
-6.15413e-10
-6.95604e-10
-7.69075e-10
-8.30479e-10
-8.74384e-10
-8.98531e-10
-9.06559e-10
-9.17124e-10
-9.46995e-10
-1.00777e-09
-1.09032e-09
-1.16473e-09
-1.1663e-09
-1.03069e-09
-7.26845e-10
-4.43153e-10
-2.65606e-10
-1.21244e-10
-2.41906e-11
4.1497e-11
2.7863e-10
6.95141e-10
1.46629e-09
2.94029e-09
5.40128e-09
9.28138e-09
1.47545e-08
2.09223e-08
2.55753e-08
2.49505e-08
2.49476e-08
7.85066e-08
3.8081e-07
8.97433e-07
2.51423e-06
7.86757e-06
2.20661e-05
4.73771e-05
8.23731e-05
6.42073e-05
7.04854e-07
-6.81155e-12
-1.51415e-12
-4.55094e-14
-6.99178e-16
-6.62196e-18
-4.02473e-20
-1.62985e-22
-4.33328e-25
-7.40515e-28
-7.62292e-31
-3.63423e-34
-9.40773e-11
-1.15714e-10
-1.29777e-10
-1.39165e-10
-1.54389e-10
-1.73057e-10
-1.94682e-10
-2.12037e-10
-2.27842e-10
-2.39974e-10
-2.53282e-10
-2.69496e-10
-2.81784e-10
-2.92778e-10
-2.9765e-10
-2.94341e-10
-2.86507e-10
-2.68953e-10
-2.21523e-10
-1.52674e-10
-6.36488e-11
-2.47265e-17
-4.2161e-17
-4.86604e-17
-1.82395e-16
1.88216e-16
4.32448e-10
3.14055e-09
8.4992e-09
1.61696e-08
2.62058e-08
3.8084e-08
4.903e-08
5.59327e-08
6.24785e-08
9.71379e-08
1.61403e-07
2.94911e-07
6.05165e-07
1.47363e-06
3.85365e-06
1.07511e-05
4.06994e-05
0.000150994
0.000446776
0.000854203
0.00133937
0.000813245
1.77534e-05
2.52663e-10
-5.8075e-12
-2.96989e-13
-5.28144e-15
-5.35829e-17
-3.35839e-19
-1.35939e-21
-3.55084e-24
-5.84961e-27
-5.71946e-30
-2.53899e-33
-6.30104e-11
-2.63918e-11
-2.02106e-17
-1.29118e-17
-1.27839e-18
2.53642e-17
4.21196e-17
5.1195e-17
1.39308e-17
-6.59562e-18
-1.48052e-17
-7.96207e-17
1.40273e-16
3.16445e-10
5.62595e-10
1.67879e-10
3.2233e-12
-1.66965e-16
2.63813e-16
7.47105e-16
7.41447e-16
1.39962e-15
1.82103e-14
2.23172e-08
6.3991e-08
1.25137e-07
2.13234e-07
3.43686e-07
5.19117e-07
7.2865e-07
9.39619e-07
1.12713e-06
1.30511e-06
1.43632e-06
1.56879e-06
1.76282e-06
2.23959e-06
3.30481e-06
5.43939e-06
1.05188e-05
2.18015e-05
7.37165e-05
0.000364042
0.00164284
0.00484763
0.00951571
0.0115895
0.00414882
7.75243e-05
9.8012e-09
-9.45467e-12
-1.54785e-12
-3.14613e-14
-3.49504e-16
-2.37808e-18
-1.03046e-20
-2.84952e-23
-4.91144e-26
-4.95707e-29
-2.25093e-32
5.96753e-10
3.53727e-09
7.96358e-09
2.63061e-08
7.75432e-08
1.91854e-07
2.93637e-07
3.90967e-07
4.81504e-07
5.71677e-07
6.25834e-07
6.66505e-07
6.92035e-07
7.03764e-07
7.07945e-07
7.67926e-07
8.63351e-07
9.79077e-07
1.07865e-06
1.24608e-06
1.59181e-06
2.1468e-06
3.0517e-06
4.15352e-06
5.12794e-06
5.73763e-06
6.22297e-06
6.71003e-06
7.0908e-06
7.2882e-06
7.74295e-06
8.67188e-06
1.01955e-05
1.28604e-05
1.7625e-05
2.40569e-05
3.087e-05
3.37265e-05
3.05141e-05
2.85324e-05
6.98539e-05
0.000498889
0.00338246
0.0142087
0.0392159
0.0606975
0.0459198
0.00764238
8.38965e-05
-4.37851e-09
-2.5787e-10
-8.99248e-12
-1.8552e-13
-2.34466e-15
-1.84645e-17
-9.24204e-20
-2.93509e-22
-5.79051e-25
-6.64629e-28
-3.43847e-31
9.59177e-10
2.98334e-08
2.16876e-07
8.40156e-07
1.82462e-06
2.28865e-06
2.7973e-06
3.9015e-06
5.28945e-06
6.70664e-06
8.10021e-06
8.90688e-06
9.62002e-06
1.06399e-05
1.13045e-05
1.20788e-05
1.43047e-05
1.83059e-05
2.22611e-05
2.77385e-05
3.7798e-05
5.02655e-05
6.03053e-05
6.61198e-05
6.93669e-05
7.09705e-05
7.28935e-05
7.27054e-05
7.17368e-05
7.13806e-05
7.38642e-05
7.93666e-05
8.24942e-05
8.23578e-05
8.45262e-05
9.92258e-05
0.000131242
0.000173376
0.000182092
0.000134588
0.000102201
0.000508453
0.0080928
0.0652123
0.226445
0.237286
0.0934596
0.00519309
1.83981e-05
-8.70493e-09
-6.6053e-10
-2.9245e-11
-7.38044e-13
-1.11215e-14
-1.03102e-16
-6.03433e-19
-2.22636e-21
-5.08829e-24
-6.713e-27
-3.99063e-30
4.14582e-10
1.891e-12
2.08326e-12
2.13118e-12
6.72504e-08
1.60461e-05
2.96266e-05
5.67431e-05
8.98081e-05
7.40301e-05
5.62269e-05
7.07791e-05
8.37238e-05
9.50235e-05
9.2604e-05
6.83895e-05
6.17983e-05
6.5116e-05
7.95544e-05
0.000115824
0.000176305
0.000267564
0.000409994
0.000612417
0.000852906
0.00102025
0.0010668
0.00108436
0.00113353
0.00120776
0.00129303
0.00136496
0.0013861
0.00130334
0.00117637
0.00106406
0.000898446
0.000774591
0.000802548
0.000885096
0.000807918
0.000940537
0.0094704
0.178138
0.661489
0.501973
0.0808212
0.00174859
4.02824e-08
-2.06515e-08
-1.61265e-09
-7.02683e-11
-1.89358e-12
-3.16947e-14
-3.28145e-16
-2.12742e-18
-8.57315e-21
-2.11999e-23
-2.99343e-26
-1.90186e-29
1.26737e-14
9.54507e-13
5.38555e-13
2.25535e-06
7.46887e-06
1.48321e-05
2.61394e-05
4.56204e-05
4.81406e-05
3.64669e-05
4.30866e-05
5.28648e-05
6.39962e-05
7.92259e-05
9.43975e-05
0.000107127
0.000119878
0.000134877
0.000160931
0.000201317
0.000252592
0.000321799
0.000417336
0.000529991
0.000660535
0.000777974
0.000828559
0.000845229
0.000884412
0.000983396
0.00115967
0.00135537
0.00153311
0.00160952
0.00159862
0.00147657
0.00122415
0.000982059
0.000931829
0.000952882
0.000844592
0.000934493
0.0102199
0.264879
0.702102
0.359806
0.0368853
0.000517694
-9.90739e-08
-1.14934e-08
-9.304e-10
-4.67989e-11
-1.38484e-12
-2.42022e-14
-2.53244e-16
-1.62889e-18
-6.43594e-21
-1.54876e-23
-2.11488e-26
-1.29464e-29
2.72471e-13
-7.76527e-12
1.26838e-05
6.45375e-06
1.45443e-05
2.55518e-05
3.3609e-05
3.60928e-05
3.47269e-05
3.37498e-05
3.59109e-05
4.16062e-05
4.79756e-05
7.03239e-05
8.64751e-05
7.80875e-05
0.000116199
0.000239907
0.00024873
0.000240602
0.000250835
0.000265931
0.000305243
0.000356031
0.000405843
0.0004549
0.000506159
0.000563732
0.000631458
0.000723017
0.000868625
0.00112541
0.00145253
0.00152238
0.0014196
0.00110975
0.000767526
0.000595932
0.00053232
0.000443108
0.000300423
0.000699788
0.013051
0.274484
0.548333
0.22495
0.0163595
0.00012161
-3.81e-08
-5.47075e-09
-5.42442e-10
-2.96148e-11
-8.93142e-13
-1.5606e-14
-1.6256e-16
-1.03937e-18
-4.07261e-21
-9.68442e-24
-1.30145e-26
-7.80331e-30
5.23593e-13
0.000220111
0.000146121
3.35796e-05
2.32481e-05
3.09803e-05
4.06921e-05
4.60361e-05
4.98441e-05
5.36829e-05
6.5234e-05
9.11174e-05
0.000100591
8.76361e-05
4.95823e-05
3.21873e-05
6.34448e-05
0.000207935
0.000248798
0.000196991
0.000161499
0.000205081
0.000234869
0.000245919
0.000249739
0.00025267
0.000253002
0.000247062
0.000243414
0.000246609
0.000257317
0.000279317
0.000326222
0.00042909
0.000550313
0.000574792
0.000540722
0.00044229
0.000363736
0.000322971
0.000290974
0.00057587
0.0102173
0.21425
0.534011
0.266535
0.0259827
0.000306866
-5.91245e-08
-7.14116e-09
-6.26827e-10
-3.31692e-11
-9.99681e-13
-1.7505e-14
-1.82091e-16
-1.1586e-18
-4.51157e-21
-1.06601e-23
-1.42475e-26
-8.50209e-30
2.45535e-12
-1.24093e-09
1.99014e-07
-3.21252e-10
-1.33315e-11
6.67592e-12
2.26938e-07
6.81654e-06
1.87032e-05
3.03153e-05
3.50322e-05
3.74159e-05
4.22431e-05
5.23884e-05
6.22566e-05
7.1562e-05
8.87074e-05
0.000105616
0.000120535
0.000145702
0.000182456
0.000207488
0.000211094
0.000220797
0.000241759
0.000248104
0.000229843
0.000190568
0.000181731
0.000197048
0.000250497
0.000318685
0.000382023
0.000482702
0.000681371
0.000777564
0.000730493
0.000572041
0.000431954
0.000437565
0.000467249
0.000736541
0.00875442
0.199871
0.638092
0.407089
0.0600566
0.00140542
2.62089e-07
-1.2791e-08
-1.43515e-09
-6.85523e-11
-1.92648e-12
-3.27891e-14
-3.38517e-16
-2.15661e-18
-8.43736e-21
-2.00599e-23
-2.70629e-26
-1.6364e-29
7.18726e-08
2.1084e-07
1.08192e-07
1.80416e-06
3.64715e-06
5.40014e-06
6.75022e-06
9.56241e-06
8.89723e-06
1.2354e-05
1.43983e-05
1.41821e-05
1.34786e-05
1.28828e-05
1.28224e-05
1.28824e-05
1.28337e-05
4.3455e-05
5.45969e-05
6.01291e-05
7.27414e-05
7.89926e-05
8.347e-05
8.73217e-05
8.70774e-05
8.70758e-05
0.000101576
0.000129068
0.000169819
0.000237106
0.000321394
0.000365418
0.000362349
0.000354215
0.000328124
0.000291442
0.000274073
0.000253468
0.00024387
0.000234631
0.000333331
0.000928255
0.00725266
0.113628
0.511173
0.460194
0.117639
0.00489353
1.33175e-05
-1.22532e-08
-1.51398e-09
-8.593e-11
-2.42613e-12
-3.93951e-14
-3.88781e-16
-2.40187e-18
-9.24495e-21
-2.18701e-23
-2.9642e-26
-1.81395e-29
5.87912e-07
3.45883e-06
4.46162e-06
4.23866e-06
5.51918e-06
7.68354e-06
1.30959e-05
1.78362e-05
2.7088e-05
3.64988e-05
4.35491e-05
4.85081e-05
5.01919e-05
4.43838e-05
3.23776e-05
2.51395e-05
2.91447e-05
3.5879e-05
4.4321e-05
5.54214e-05
7.60106e-05
0.000106666
0.000160308
0.000278121
0.000307026
0.000242548
0.000195377
0.000247265
0.00047843
0.000463227
0.000277871
0.000205433
0.000189865
0.000164893
0.000142368
0.0001491
0.00014991
0.000135843
0.00013149
0.00017279
0.000237094
0.000474434
0.00473829
0.0389314
0.152725
0.190245
0.0911455