/*--------------------------------*- C++ -*----------------------------------*\
| =========                 |                                                 |
| \\      /  F ield         | OpenFOAM: The Open Source CFD Toolbox           |
|  \\    /   O peration     | Version:  2.1.1                                 |
|   \\  /    A nd           | Web:      www.OpenFOAM.org                      |
|    \\/     M anipulation  |                                                 |
\*---------------------------------------------------------------------------*/
FoamFile
{
    version     2.0;
    format      ascii;
    class       volScalarField;
    location    "0.00105";
    object      criterion2;
}
// * * * * * * * * * * * * * * * * * * * * * * * * * * * * * * * * * * * * * //

dimensions      [1 2 -2 0 0 0 0];

internalField   nonuniform List<scalar> 
36520
(
-2.03866e-09
1.40976e-09
5.03737e-09
5.73518e-09
6.68245e-09
7.02679e-09
7.39263e-09
7.61795e-09
7.74205e-09
7.82407e-09
7.77991e-09
7.70407e-09
7.53526e-09
7.36245e-09
7.12485e-09
6.92689e-09
6.71947e-09
6.58705e-09
6.51069e-09
6.55919e-09
6.71459e-09
7.02771e-09
7.46844e-09
8.04675e-09
8.73078e-09
9.56258e-09
1.0555e-08
1.17563e-08
1.31925e-08
1.49434e-08
1.7029e-08
1.95426e-08
2.26178e-08
2.6578e-08
3.19015e-08
3.94842e-08
5.07658e-08
6.80617e-08
9.53757e-08
1.39096e-07
2.09538e-07
3.20338e-07
4.88943e-07
7.18153e-07
9.76828e-07
1.2508e-06
1.46945e-06
1.40473e-06
7.41177e-07
3.40695e-07
8.93232e-08
-3.3364e-08
-1.08712e-07
-1.49499e-07
-1.70772e-07
-1.86048e-07
-1.89922e-07
-1.9652e-07
-1.94648e-07
-1.87477e-07
-3.81099e-10
-4.71787e-09
-2.30338e-09
-2.13564e-09
-1.53744e-09
-1.38738e-09
-9.78971e-10
-6.49955e-10
-2.83081e-10
1.17713e-10
4.45155e-10
7.31159e-10
8.9763e-10
1.01742e-09
1.00606e-09
1.10058e-09
1.16759e-09
1.45544e-09
1.87874e-09
2.64728e-09
3.68876e-09
5.14811e-09
6.90488e-09
8.94299e-09
1.09452e-08
1.27245e-08
1.39636e-08
1.4517e-08
1.4271e-08
1.34389e-08
1.22112e-08
1.08597e-08
9.5591e-09
8.38779e-09
7.35468e-09
6.52546e-09
5.92248e-09
5.55861e-09
5.45314e-09
5.6133e-09
6.05121e-09
6.70197e-09
7.26281e-09
7.46673e-09
7.19529e-09
6.44262e-09
5.01205e-09
3.47335e-09
1.62753e-08
3.18749e-08
-8.24639e-09
-2.77004e-08
-3.90747e-08
-4.48678e-08
-4.84054e-08
-5.00681e-08
-5.13682e-08
-5.13853e-08
-5.47583e-08
-4.72117e-07
-7.58391e-09
-7.45237e-09
-4.39513e-09
-3.76795e-09
-2.7836e-09
-2.23633e-09
-1.40623e-09
-5.98198e-10
3.04784e-10
1.27264e-09
2.00353e-09
2.43055e-09
2.51893e-09
2.43848e-09
2.08464e-09
1.94626e-09
1.7534e-09
1.87872e-09
2.07916e-09
2.55345e-09
2.98768e-09
3.39878e-09
3.51848e-09
3.41641e-09
3.1312e-09
2.85359e-09
2.59355e-09
2.37169e-09
2.16828e-09
1.98875e-09
1.8122e-09
1.63832e-09
1.47649e-09
1.34971e-09
1.2859e-09
1.33097e-09
1.51822e-09
1.8815e-09
2.45718e-09
3.27468e-09
4.36373e-09
5.67181e-09
6.79722e-09
7.49334e-09
7.77937e-09
7.57097e-09
6.88666e-09
4.67672e-09
8.1182e-10
5.08899e-10
-8.77753e-09
-1.9384e-08
-2.49136e-08
-2.75649e-08
-2.91912e-08
-2.97555e-08
-3.04617e-08
-3.02658e-08
-4.14188e-08
-5.14653e-07
-7.1983e-09
-8.7643e-09
-4.81849e-09
-3.80893e-09
-2.44389e-09
-1.71127e-09
-8.10792e-10
-2.18156e-10
2.44162e-10
5.07737e-10
4.97442e-10
3.45209e-10
1.14364e-10
-1.0822e-10
-4.12826e-10
-5.67232e-10
-7.29963e-10
-7.24654e-10
-6.71006e-10
-4.60591e-10
-2.2751e-10
8.11769e-11
3.56312e-10
5.97291e-10
7.34915e-10
8.0659e-10
8.20972e-10
8.01331e-10
7.63365e-10
7.31799e-10
7.07278e-10
6.62964e-10
5.94971e-10
5.21249e-10
4.77959e-10
5.11679e-10
6.5215e-10
9.23736e-10
1.33553e-09
1.8684e-09
2.46795e-09
3.01327e-09
3.13835e-09
3.22763e-09
4.0698e-09
5.94471e-09
8.37508e-09
8.04017e-09
2.13299e-09
-1.60578e-09
-6.27057e-09
-1.52469e-08
-1.89054e-08
-2.03375e-08
-2.1041e-08
-2.12839e-08
-2.15905e-08
-2.3589e-08
-5.05083e-08
-5.22772e-07
1.69674e-09
-8.35072e-09
-4.51948e-09
-3.59424e-09
-2.88676e-09
-2.58558e-09
-2.23464e-09
-1.97155e-09
-1.69919e-09
-1.46991e-09
-1.33606e-09
-1.28058e-09
-1.31212e-09
-1.35166e-09
-1.47883e-09
-1.52055e-09
-1.56432e-09
-1.52018e-09
-1.4498e-09
-1.29151e-09
-1.12625e-09
-9.35057e-10
-7.73787e-10
-6.45678e-10
-5.84529e-10
-5.56323e-10
-5.4286e-10
-5.2747e-10
-5.05711e-10
-4.78404e-10
-4.75028e-10
-4.98406e-10
-5.38796e-10
-5.81067e-10
-6.0657e-10
-5.90775e-10
-5.20464e-10
-3.88643e-10
-2.16729e-10
-8.52811e-11
-6.40236e-11
-1.55577e-10
-4.57508e-10
-6.49599e-10
-6.88072e-10
2.87189e-11
4.39982e-09
1.17364e-08
4.64416e-09
-8.21704e-10
-3.54484e-09
-7.5342e-09
-1.51791e-08
-1.56304e-08
-1.50342e-08
-1.46972e-08
-1.49507e-08
-2.58682e-08
-5.43477e-08
-5.23891e-07
5.58936e-08
-2.94327e-09
-1.87129e-09
-1.56931e-09
-1.43812e-09
-1.41105e-09
-1.38541e-09
-1.37504e-09
-1.35574e-09
-1.33672e-09
-1.32717e-09
-1.33152e-09
-1.3879e-09
-1.44074e-09
-1.5046e-09
-1.52473e-09
-1.51681e-09
-1.47053e-09
-1.392e-09
-1.25757e-09
-1.09345e-09
-8.98292e-10
-6.73062e-10
-3.9162e-10
-6.9736e-11
2.85633e-10
6.90285e-10
1.19158e-09
1.60169e-09
1.74043e-09
1.63803e-09
1.34147e-09
8.97292e-10
4.0251e-10
-3.10895e-11
-3.18729e-10
-4.19484e-10
-4.18961e-10
-3.01611e-10
-5.33445e-11
2.56351e-10
4.28617e-10
3.02873e-10
1.38985e-10
-3.40049e-11
-2.23135e-10
6.55404e-11
7.692e-09
8.01726e-09
2.68251e-10
-3.06205e-09
-4.73415e-09
-6.64416e-09
-8.95796e-09
-9.03942e-09
-9.06425e-09
-1.12761e-08
-2.70297e-08
-5.47221e-08
-5.24138e-07
1.04801e-07
-1.4289e-09
-1.19273e-09
-1.09227e-09
-1.02692e-09
-1.00525e-09
-9.8347e-10
-9.68106e-10
-9.55393e-10
-9.447e-10
-9.43481e-10
-9.46222e-10
-9.64377e-10
-9.35357e-10
-9.12727e-10
-9.31558e-10
-8.58192e-10
-6.81381e-10
-4.24318e-10
-4.97753e-11
4.69616e-10
1.12573e-09
1.97382e-09
3.15176e-09
4.53203e-09
5.63836e-09
6.43374e-09
7.11904e-09
7.71667e-09
8.04206e-09
7.96497e-09
7.58e-09
6.76347e-09
5.53699e-09
4.21302e-09
3.06811e-09
2.26367e-09
1.91003e-09
1.78896e-09
1.58999e-09
1.00681e-09
3.90378e-10
1.81411e-10
8.49727e-11
4.1882e-11
2.88355e-11
6.31685e-11
1.69285e-09
1.02033e-08
1.65963e-09
-2.61145e-09
-4.67178e-09
-5.75923e-09
-7.73989e-09
-8.36886e-09
-8.53528e-09
-1.10568e-08
-2.71036e-08
-5.47024e-08
-5.24524e-07
2.36735e-08
-1.21413e-09
-9.95966e-10
-8.3165e-10
-6.11341e-10
-4.29955e-10
-2.5875e-10
-4.42607e-11
1.77669e-10
4.40737e-10
7.55622e-10
1.17561e-09
1.56521e-09
1.95921e-09
2.25601e-09
2.51307e-09
3.17899e-09
4.08916e-09
5.02811e-09
6.20162e-09
7.7356e-09
9.3703e-09
1.09163e-08
1.23738e-08
1.36283e-08
1.4378e-08
1.46191e-08
1.45976e-08
1.43854e-08
1.3892e-08
1.31598e-08
1.25328e-08
1.18502e-08
1.10739e-08
9.99414e-09
8.69193e-09
7.44134e-09
6.46096e-09
6.06544e-09
5.70061e-09
4.52095e-09
1.6683e-09
1.18922e-10
1.88336e-11
1.1094e-11
1.1832e-11
4.50378e-11
1.99766e-09
1.1626e-08
3.57739e-09
-2.08752e-09
-4.77282e-09
-6.05279e-09
-7.3652e-09
-8.31843e-09
-8.51703e-09
-1.10348e-08
-2.71055e-08
-5.46757e-08
-5.25436e-07
2.95232e-07
-5.76584e-10
-2.53877e-10
4.68585e-10
1.15336e-09
2.07052e-09
2.91545e-09
4.17604e-09
5.40558e-09
6.64225e-09
8.02568e-09
9.40782e-09
1.04023e-08
1.098e-08
1.12595e-08
1.12275e-08
1.11985e-08
1.14443e-08
1.1817e-08
1.22185e-08
1.27389e-08
1.33112e-08
1.37569e-08
1.38633e-08
1.3565e-08
1.30388e-08
1.2583e-08
1.2173e-08
1.15947e-08
1.06473e-08
9.64676e-09
9.00123e-09
8.44449e-09
7.83255e-09
7.27636e-09
6.95308e-09
7.28727e-09
8.64795e-09
9.45282e-09
9.02705e-09
9.37767e-09
8.39636e-09
7.6057e-10
3.26018e-11
1.57693e-11
1.82442e-11
6.80635e-11
4.24421e-09
1.9498e-08
7.7223e-09
-1.05693e-09
-5.04325e-09
-6.83352e-09
-7.90972e-09
-8.29667e-09
-8.49489e-09
-1.10198e-08
-2.70365e-08
-5.46612e-08
-5.25448e-07
3.48854e-07
-6.13354e-10
-1.70772e-10
5.76413e-10
1.58186e-09
2.56519e-09
3.58121e-09
4.71531e-09
5.97587e-09
7.22307e-09
8.76783e-09
1.03873e-08
1.18548e-08
1.30581e-08
1.41173e-08
1.49588e-08
1.5383e-08
1.5607e-08
1.54432e-08
1.50448e-08
1.47587e-08
1.45747e-08
1.43498e-08
1.38571e-08
1.28162e-08
1.19336e-08
1.19065e-08
1.21351e-08
1.18413e-08
1.11426e-08
1.04285e-08
9.75983e-09
8.95289e-09
8.15128e-09
7.25046e-09
6.39595e-09
5.89683e-09
5.78731e-09
6.26945e-09
7.71097e-09
1.02679e-08
1.03909e-08
1.25804e-09
5.96499e-11
3.36676e-11
4.18154e-11
1.32177e-10
7.0173e-09
2.2859e-08
9.03428e-09
-6.49057e-10
-5.07163e-09
-7.02232e-09
-8.13303e-09
-8.30065e-09
-8.47117e-09
-1.10186e-08
-2.69961e-08
-5.46475e-08
-5.24439e-07
1.98805e-07
-1.18337e-09
1.29833e-09
4.11307e-09
6.35782e-09
8.28717e-09
1.0085e-08
1.2362e-08
1.51825e-08
1.81061e-08
2.13075e-08
2.48137e-08
2.82226e-08
3.1445e-08
3.41194e-08
3.59094e-08
3.60746e-08
3.49774e-08
3.35792e-08
3.1542e-08
3.11576e-08
3.29625e-08
3.50123e-08
3.66806e-08
3.77871e-08
3.81263e-08
3.82333e-08
3.82675e-08
3.71523e-08
3.50663e-08
3.23299e-08
2.91888e-08
2.63171e-08
2.29755e-08
1.89625e-08
1.43732e-08
1.07891e-08
8.69533e-09
8.23609e-09
1.06982e-08
1.42704e-08
1.35683e-08
1.75995e-09
5.28162e-11
2.08646e-11
2.28695e-11
6.46538e-11
3.78771e-09
1.70059e-08
6.65619e-09
-8.00215e-10
-4.50251e-09
-6.22024e-09
-7.34869e-09
-8.22615e-09
-8.46657e-09
-1.10198e-08
-2.70282e-08
-5.4707e-08
-5.24104e-07
5.78877e-08
-8.03522e-10
1.50876e-09
2.64145e-09
3.51896e-09
6.20532e-09
9.89827e-09
1.51484e-08
2.16085e-08
2.86337e-08
3.60345e-08
4.30258e-08
4.8072e-08
5.11286e-08
5.24255e-08
5.23742e-08
5.20341e-08
5.02343e-08
4.49255e-08
3.768e-08
3.51426e-08
3.89097e-08
4.25778e-08
4.24422e-08
4.02624e-08
4.47716e-08
5.23858e-08
5.47953e-08
5.25775e-08
3.38592e-08
2.971e-08
2.8075e-08
2.9288e-08
3.35171e-08
2.70298e-08
1.97911e-08
1.4334e-08
1.03093e-08
7.94599e-09
8.63045e-09
1.24438e-08
1.30785e-08
2.08111e-09
7.38786e-11
1.42264e-11
8.38329e-12
1.03755e-11
3.69746e-10
7.83326e-09
2.49605e-09
-1.41298e-09
-3.43301e-09
-4.46908e-09
-5.45755e-09
-8.06992e-09
-8.48623e-09
-1.10293e-08
-2.71199e-08
-5.48323e-08
-5.2413e-07
3.12812e-08
-6.48965e-11
1.79968e-09
2.58582e-09
3.98403e-09
7.82509e-09
1.23286e-08
1.80371e-08
2.47099e-08
3.21857e-08
4.01617e-08
4.74018e-08
5.23819e-08
5.5155e-08
5.66853e-08
5.68044e-08
5.50238e-08
5.03953e-08
4.38127e-08
4.01774e-08
3.90216e-08
3.96558e-08
4.34805e-08
4.81988e-08
4.81468e-08
3.07931e-08
3.03e-08
4.32475e-08
4.84111e-08
4.70631e-08
4.49466e-08
3.17096e-08
2.41547e-08
2.05648e-08
1.86741e-08
1.83989e-08
1.31278e-08
8.82246e-09
6.93987e-09
8.35498e-09
1.24756e-08
1.29913e-08
1.9703e-09
8.0466e-11
1.71385e-11
9.55993e-12
1.02911e-11
3.38136e-10
7.50138e-09
2.2896e-09
-1.44058e-09
-3.38778e-09
-4.39556e-09
-5.37731e-09
-8.06431e-09
-8.48682e-09
-1.10302e-08
-2.71129e-08
-5.48133e-08
-5.24372e-07
1.64692e-07
-4.97653e-10
2.93344e-09
6.03201e-09
8.6012e-09
1.15185e-08
1.4686e-08
1.80489e-08
2.15474e-08
2.50802e-08
2.83279e-08
3.1136e-08
3.36466e-08
3.61103e-08
3.81358e-08
3.91267e-08
3.83706e-08
3.56758e-08
3.2616e-08
3.01759e-08
2.87225e-08
2.92459e-08
3.07868e-08
3.26654e-08
3.40601e-08
3.40199e-08
3.34928e-08
3.26301e-08
3.12818e-08
2.99275e-08
2.79563e-08
2.49724e-08
2.09189e-08
1.66606e-08
1.31706e-08
1.03365e-08
8.17141e-09
6.54117e-09
5.89468e-09
7.01788e-09
1.03594e-08
9.37157e-09
8.43389e-10
3.65167e-11
1.9825e-11
2.34059e-11
8.63901e-11
5.62916e-09
1.49694e-08
5.37946e-09
-1.05503e-09
-4.45031e-09
-6.07467e-09
-7.19607e-09
-8.21885e-09
-8.49751e-09
-1.10199e-08
-2.71205e-08
-5.47004e-08
-5.24491e-07
6.69161e-07
9.2169e-10
1.1385e-09
3.28685e-09
6.01001e-09
9.92727e-09
1.18827e-08
1.38507e-08
1.5709e-08
1.74284e-08
1.87255e-08
1.91258e-08
1.92063e-08
1.98904e-08
2.11461e-08
2.29725e-08
2.26984e-08
2.11085e-08
1.84659e-08
1.83729e-08
1.91738e-08
1.93736e-08
1.89814e-08
1.46035e-08
9.6594e-09
1.01117e-08
1.28993e-08
1.68656e-08
1.81533e-08
1.75073e-08
1.62633e-08
1.33662e-08
6.40343e-09
5.04331e-09
4.35878e-09
4.83989e-09
4.69757e-09
4.43537e-09
5.13025e-09
7.18406e-09
1.14976e-08
1.22961e-08
1.20975e-09
5.32892e-11
2.77293e-11
3.29331e-11
1.94691e-10
1.30478e-08
1.80699e-08
5.94564e-09
-1.17204e-09
-4.87144e-09
-6.57672e-09
-7.67071e-09
-8.26812e-09
-8.51088e-09
-1.10167e-08
-2.71385e-08
-5.46538e-08
-5.24467e-07
3.31541e-07
2.12579e-10
3.2718e-10
1.18018e-09
2.2566e-09
4.21118e-09
5.80655e-09
8.05928e-09
1.00344e-08
1.19651e-08
1.38095e-08
1.52142e-08
1.60579e-08
1.68728e-08
1.73289e-08
1.70323e-08
1.63658e-08
1.58826e-08
1.5512e-08
1.63732e-08
1.59097e-08
1.45103e-08
9.7311e-09
8.46001e-09
8.77923e-09
1.04272e-08
1.20048e-08
1.18837e-08
9.6215e-09
5.72638e-09
4.22544e-09
3.92752e-09
4.44087e-09
5.85081e-09
6.44346e-09
6.19973e-09
6.06415e-09
6.2661e-09
7.09162e-09
9.07742e-09
1.21927e-08
9.73234e-09
5.31477e-10
2.30249e-11
1.56512e-11
2.39616e-11
1.44734e-10
1.03845e-08
1.59167e-08
4.82341e-09
-1.51732e-09
-4.81246e-09
-6.36567e-09
-7.48041e-09
-8.28069e-09
-8.50488e-09
-1.10196e-08
-2.70897e-08
-5.46394e-08
-5.25371e-07
5.10764e-08
-1.1879e-09
-1.16486e-09
-1.06423e-09
-9.47442e-10
-7.91071e-10
-6.06741e-10
-3.46099e-10
-6.86666e-11
2.87655e-10
7.67763e-10
1.42365e-09
2.30315e-09
3.16559e-09
3.96498e-09
4.63614e-09
4.88231e-09
5.03036e-09
5.21802e-09
5.72487e-09
6.54655e-09
7.15381e-09
7.60986e-09
8.35613e-09
9.59338e-09
1.05232e-08
1.03263e-08
7.78501e-09
6.93912e-09
6.72213e-09
6.72611e-09
6.97849e-09
7.11628e-09
6.57941e-09
5.63975e-09
5.0514e-09
4.89801e-09
5.13852e-09
5.71929e-09
6.4374e-09
6.57491e-09
3.13675e-09
1.54749e-10
1.39413e-11
7.31263e-12
1.09464e-11
7.4943e-11
3.29133e-09
1.03418e-08
2.36803e-09
-2.27185e-09
-4.58511e-09
-5.74673e-09
-7.2749e-09
-8.30533e-09
-8.46631e-09
-1.1031e-08
-2.70283e-08
-5.47117e-08
-5.26019e-07
1.71404e-07
-1.38171e-09
-1.22365e-09
-1.17242e-09
-1.14467e-09
-1.12763e-09
-1.10861e-09
-1.08005e-09
-1.06279e-09
-1.04746e-09
-1.03984e-09
-1.02581e-09
-9.97895e-10
-9.07269e-10
-7.86197e-10
-7.23424e-10
-7.54194e-10
-7.95136e-10
-7.18231e-10
-5.46084e-10
-3.28827e-10
-1.05862e-10
1.13256e-10
3.56091e-10
6.24858e-10
9.01275e-10
1.13184e-09
1.25573e-09
1.29495e-09
1.23513e-09
1.0116e-09
6.76581e-10
3.43598e-10
1.70564e-10
1.74137e-10
2.78633e-10
5.01447e-10
8.53607e-10
1.36743e-09
2.23893e-09
2.7553e-09
1.19768e-09
3.02623e-10
9.91616e-11
4.47541e-11
2.53603e-11
6.00624e-11
2.07354e-09
8.36631e-09
9.19425e-10
-2.73104e-09
-4.62435e-09
-5.92059e-09
-8.9915e-09
-9.16494e-09
-9.05249e-09
-1.12305e-08
-2.70594e-08
-5.47498e-08
-5.24704e-07
1.0453e-07
-2.81792e-09
-1.89574e-09
-1.73261e-09
-1.65754e-09
-1.63954e-09
-1.59811e-09
-1.55019e-09
-1.49581e-09
-1.44496e-09
-1.40437e-09
-1.37461e-09
-1.37654e-09
-1.37786e-09
-1.41582e-09
-1.45003e-09
-1.49669e-09
-1.4859e-09
-1.43497e-09
-1.31448e-09
-1.17469e-09
-1.01654e-09
-8.62899e-10
-7.0078e-10
-5.61396e-10
-4.56351e-10
-3.9616e-10
-3.552e-10
-3.19547e-10
-2.91752e-10
-2.94894e-10
-3.36155e-10
-3.93745e-10
-4.14025e-10
-3.86305e-10
-2.94898e-10
-1.39804e-10
7.24283e-11
3.18457e-10
5.62499e-10
8.96527e-10
1.32249e-09
1.20697e-09
7.23346e-10
2.98618e-10
-8.11292e-11
8.27807e-11
6.49568e-09
6.54756e-09
-1.00915e-10
-3.14595e-09
-4.91862e-09
-9.70357e-09
-1.28259e-08
-1.19874e-08
-1.12869e-08
-1.2162e-08
-2.69462e-08
-5.4803e-08
-5.24195e-07
1.5475e-08
-5.72171e-09
-3.32909e-09
-2.99553e-09
-2.61769e-09
-2.42248e-09
-2.11044e-09
-1.83864e-09
-1.54281e-09
-1.2953e-09
-1.11565e-09
-9.97887e-10
-9.75439e-10
-9.86347e-10
-1.09299e-09
-1.16886e-09
-1.29547e-09
-1.29493e-09
-1.23216e-09
-1.01232e-09
-7.63626e-10
-4.64057e-10
-1.89576e-10
8.70924e-11
2.97057e-10
4.2974e-10
4.69465e-10
4.6826e-10
4.47086e-10
4.02799e-10
3.10821e-10
1.8749e-10
6.89467e-11
3.37647e-12
-3.5932e-12
6.81269e-11
2.17645e-10
4.27266e-10
6.74713e-10
9.04709e-10
1.00867e-09
8.43883e-10
4.83274e-10
1.5554e-10
5.15802e-11
6.65351e-10
3.77528e-09
9.06926e-09
3.8712e-09
-9.92619e-10
-3.62908e-09
-8.00176e-09
-1.55478e-08
-1.67727e-08
-1.6556e-08
-1.62278e-08
-1.60282e-08
-2.56254e-08
-5.43904e-08
-5.24149e-07
6.79466e-09
-6.57494e-09
-3.41286e-09
-2.67196e-09
-1.80164e-09
-1.57443e-09
-1.15214e-09
-9.04976e-10
-6.22153e-10
-4.09627e-10
-2.79352e-10
-2.11968e-10
-2.40153e-10
-2.91101e-10
-4.64155e-10
-5.93823e-10
-7.68861e-10
-7.63007e-10
-6.89813e-10
-4.26853e-10
-1.29418e-10
2.4794e-10
5.90359e-10
9.3113e-10
1.18026e-09
1.34057e-09
1.38439e-09
1.37356e-09
1.33852e-09
1.26375e-09
1.15858e-09
1.02793e-09
9.23171e-10
8.88093e-10
9.38244e-10
1.09708e-09
1.36903e-09
1.72894e-09
2.12609e-09
2.50273e-09
2.77645e-09
2.91349e-09
2.99102e-09
3.23408e-09
3.85948e-09
4.95798e-09
6.24896e-09
6.2907e-09
1.90858e-09
-1.73524e-09
-5.57006e-09
-1.47968e-08
-1.91041e-08
-2.09677e-08
-2.1838e-08
-2.21992e-08
-2.24333e-08
-2.42333e-08
-5.06263e-08
-5.23435e-07
-3.26064e-09
-6.01035e-09
-3.58068e-09
-3.07257e-09
-2.15082e-09
-1.51805e-09
-6.6228e-10
2.09206e-10
1.16075e-09
2.07552e-09
2.69555e-09
3.07492e-09
3.06109e-09
2.86245e-09
2.43607e-09
2.09829e-09
1.66456e-09
1.54959e-09
1.54432e-09
1.83789e-09
2.13618e-09
2.52166e-09
2.78147e-09
2.98121e-09
3.01249e-09
2.94405e-09
2.77271e-09
2.58082e-09
2.37728e-09
2.17302e-09
1.94368e-09
1.72679e-09
1.5517e-09
1.46169e-09
1.47222e-09
1.59597e-09
1.83436e-09
2.16507e-09
2.54417e-09
3.00472e-09
3.54784e-09
4.18664e-09
4.92038e-09
5.59138e-09
5.8103e-09
5.57556e-09
4.87864e-09
3.50915e-09
3.50814e-10
-1.77514e-09
-1.01248e-08
-2.04063e-08
-2.60543e-08
-2.88781e-08
-3.04171e-08
-3.11398e-08
-3.16188e-08
-3.15903e-08
-4.27621e-08
-5.17068e-07
1.28594e-09
-4.05683e-09
-2.03118e-09
-2.12958e-09
-1.61943e-09
-1.46579e-09
-1.0566e-09
-6.59785e-10
-2.19079e-10
2.95063e-10
7.63733e-10
1.23752e-09
1.57338e-09
1.819e-09
1.86591e-09
1.97986e-09
1.95115e-09
2.2298e-09
2.68624e-09
3.64675e-09
4.93304e-09
6.70592e-09
8.69564e-09
1.08696e-08
1.28121e-08
1.42547e-08
1.48507e-08
1.46937e-08
1.39143e-08
1.27536e-08
1.13776e-08
1.00222e-08
8.763e-09
7.65929e-09
6.71484e-09
5.9775e-09
5.44925e-09
5.1648e-09
5.14024e-09
5.3303e-09
5.64448e-09
5.9511e-09
6.07803e-09
5.81304e-09
5.35442e-09
4.78356e-09
3.76757e-09
2.77441e-09
1.8819e-08
2.70045e-08
-1.17207e-08
-3.05967e-08
-4.16336e-08
-4.72318e-08
-5.04501e-08
-5.20772e-08
-5.3098e-08
-5.31818e-08
-5.63164e-08
-4.80936e-07
3.93169e-10
2.32339e-09
5.7079e-09
6.34101e-09
7.104e-09
7.40294e-09
7.67679e-09
7.85719e-09
7.93653e-09
7.99801e-09
7.94772e-09
7.88468e-09
7.71841e-09
7.53906e-09
7.27797e-09
7.03805e-09
6.76959e-09
6.59596e-09
6.50368e-09
6.58647e-09
6.81992e-09
7.27808e-09
7.92644e-09
8.80393e-09
9.86542e-09
1.11073e-08
1.24935e-08
1.40892e-08
1.59466e-08
1.81385e-08
2.06571e-08
2.37072e-08
2.76553e-08
3.32264e-08
4.13731e-08
5.35736e-08
7.22075e-08
1.00689e-07
1.44823e-07
2.13584e-07
3.18114e-07
4.72278e-07
6.91472e-07
9.86647e-07
1.32126e-06
1.63304e-06
1.72286e-06
1.37543e-06
7.02423e-07
3.15364e-07
7.42341e-08
-4.41389e-08
-1.17848e-07
-1.58633e-07
-1.8014e-07
-1.96265e-07
-2.00277e-07
-2.07582e-07
-2.05733e-07
-2.01085e-07
-1.17127e-09
1.30171e-09
5.01507e-09
5.85908e-09
6.84023e-09
7.24746e-09
7.59729e-09
7.82804e-09
7.91384e-09
7.9909e-09
7.92629e-09
7.87206e-09
7.69898e-09
7.54647e-09
7.31001e-09
7.09641e-09
6.84672e-09
6.67127e-09
6.57085e-09
6.65647e-09
6.92334e-09
7.44192e-09
8.18313e-09
9.16967e-09
1.03234e-08
1.16487e-08
1.31379e-08
1.48761e-08
1.68778e-08
1.91943e-08
2.18523e-08
2.4997e-08
2.88914e-08
3.41808e-08
4.18377e-08
5.35389e-08
7.19157e-08
1.00279e-07
1.43442e-07
2.09277e-07
3.06443e-07
4.45904e-07
6.42169e-07
9.08458e-07
1.222e-06
1.55744e-06
1.73495e-06
1.4985e-06
7.78703e-07
3.43057e-07
8.06822e-08
-4.40753e-08
-1.19911e-07
-1.60896e-07
-1.82278e-07
-1.98169e-07
-2.0199e-07
-2.09145e-07
-2.06699e-07
-1.96166e-07
-1.38425e-09
-5.06366e-09
-2.39371e-09
-2.22325e-09
-1.52016e-09
-1.29103e-09
-8.80982e-10
-5.11825e-10
-1.58924e-10
2.84498e-10
6.26581e-10
1.05844e-09
1.36342e-09
1.68549e-09
1.88887e-09
2.12004e-09
2.18978e-09
2.49208e-09
2.93188e-09
3.87355e-09
5.17916e-09
6.99388e-09
9.02112e-09
1.11115e-08
1.27061e-08
1.35471e-08
1.34528e-08
1.26681e-08
1.13847e-08
9.91114e-09
8.44403e-09
7.11747e-09
5.96082e-09
5.02413e-09
4.3028e-09
3.83428e-09
3.62021e-09
3.6116e-09
3.76413e-09
4.00918e-09
4.26962e-09
4.47303e-09
4.55528e-09
4.39821e-09
4.03688e-09
3.61349e-09
2.98535e-09
2.41398e-09
1.35429e-08
2.69606e-08
-1.14175e-08
-3.01628e-08
-4.11535e-08
-4.66227e-08
-4.99966e-08
-5.14886e-08
-5.27423e-08
-5.26671e-08
-5.6156e-08
-4.76523e-07
-8.16686e-09
-7.41929e-09
-4.05016e-09
-3.31141e-09
-2.17257e-09
-1.47222e-09
-5.93931e-10
2.08885e-10
1.03e-09
1.85269e-09
2.34399e-09
2.76144e-09
2.79977e-09
2.7016e-09
2.41937e-09
2.13849e-09
1.7392e-09
1.54657e-09
1.43335e-09
1.58579e-09
1.76695e-09
2.01577e-09
2.15028e-09
2.23165e-09
2.17123e-09
2.05236e-09
1.87203e-09
1.68882e-09
1.49141e-09
1.29497e-09
1.09518e-09
9.13029e-10
7.60752e-10
6.69087e-10
6.60797e-10
7.63432e-10
9.86196e-10
1.30171e-09
1.65993e-09
2.06147e-09
2.48938e-09
2.93426e-09
3.43322e-09
3.9368e-09
4.15636e-09
4.08085e-09
3.75247e-09
3.05943e-09
4.69589e-10
-1.91343e-09
-1.01091e-08
-2.00186e-08
-2.55747e-08
-2.83392e-08
-2.99965e-08
-3.06995e-08
-3.13084e-08
-3.12375e-08
-4.30831e-08
-5.17694e-07
-6.83409e-09
-8.00762e-09
-3.91891e-09
-2.76357e-09
-1.59088e-09
-1.28709e-09
-9.56837e-10
-8.38397e-10
-7.1795e-10
-6.05882e-10
-5.6889e-10
-5.45419e-10
-5.73053e-10
-6.09817e-10
-6.8257e-10
-7.44468e-10
-8.55492e-10
-8.84643e-10
-8.66325e-10
-6.83837e-10
-4.47534e-10
-1.41312e-10
1.28815e-10
3.71636e-10
5.17087e-10
5.8777e-10
5.87055e-10
5.61385e-10
5.11355e-10
4.44709e-10
3.54728e-10
2.58046e-10
1.67815e-10
1.09558e-10
1.1083e-10
1.97815e-10
3.78569e-10
6.19741e-10
8.77828e-10
1.11076e-09
1.28147e-09
1.47154e-09
1.73417e-09
2.17166e-09
2.89153e-09
3.85124e-09
4.59999e-09
5.17301e-09
2.04188e-09
-1.75706e-09
-5.04166e-09
-1.40442e-08
-1.83673e-08
-2.02766e-08
-2.13714e-08
-2.18021e-08
-2.22159e-08
-2.44122e-08
-5.13149e-08
-5.25379e-07
1.92679e-09
-7.41108e-09
-3.6155e-09
-2.98234e-09
-2.42958e-09
-2.21346e-09
-1.9617e-09
-1.78402e-09
-1.60255e-09
-1.47268e-09
-1.38152e-09
-1.31413e-09
-1.28372e-09
-1.25853e-09
-1.26758e-09
-1.27345e-09
-1.31313e-09
-1.31023e-09
-1.27219e-09
-1.12199e-09
-9.30054e-10
-6.92958e-10
-4.79093e-10
-2.84152e-10
-1.53025e-10
-7.94719e-11
-5.29866e-11
-4.47285e-11
-5.18304e-11
-7.04453e-11
-1.07635e-10
-1.55955e-10
-2.03307e-10
-2.28788e-10
-2.06099e-10
-1.11955e-10
6.91108e-11
3.27306e-10
6.26141e-10
9.2343e-10
1.17955e-09
1.23937e-09
1.04866e-09
7.72194e-10
5.21187e-10
5.82386e-10
1.90254e-09
6.27317e-09
4.78576e-09
-8.02799e-10
-3.46439e-09
-5.40392e-09
-1.14251e-08
-1.33587e-08
-1.40528e-08
-1.436e-08
-1.50738e-08
-2.6142e-08
-5.45325e-08
-5.26135e-07
3.50254e-08
-4.28847e-09
-2.51505e-09
-2.10477e-09
-1.90988e-09
-1.79694e-09
-1.6717e-09
-1.56551e-09
-1.46368e-09
-1.38878e-09
-1.32803e-09
-1.27591e-09
-1.24126e-09
-1.20282e-09
-1.19474e-09
-1.20229e-09
-1.22812e-09
-1.23111e-09
-1.1998e-09
-1.10094e-09
-9.6565e-10
-8.00111e-10
-6.42747e-10
-4.92928e-10
-3.78444e-10
-3.02359e-10
-2.59348e-10
-2.34132e-10
-2.23196e-10
-2.2664e-10
-2.55289e-10
-2.96549e-10
-3.27467e-10
-3.20665e-10
-2.48996e-10
-8.16328e-11
1.98312e-10
5.79102e-10
1.07996e-09
1.72164e-09
2.49112e-09
2.93172e-09
2.46024e-09
1.73137e-09
9.84453e-10
3.59633e-10
8.68714e-11
1.674e-09
6.80023e-09
1.85083e-10
-2.84148e-09
-4.41787e-09
-5.98292e-09
-8.5814e-09
-8.99413e-09
-9.17254e-09
-1.13787e-08
-2.72025e-08
-5.49291e-08
-5.26215e-07
9.73447e-08
-1.71508e-09
-1.37182e-09
-1.25479e-09
-1.20284e-09
-1.16145e-09
-1.12045e-09
-1.07227e-09
-1.02115e-09
-9.75396e-10
-9.32781e-10
-8.88329e-10
-8.46666e-10
-8.00298e-10
-7.66413e-10
-7.48763e-10
-7.30577e-10
-6.9127e-10
-6.03524e-10
-4.41241e-10
-2.07045e-10
8.65249e-11
4.20544e-10
7.52686e-10
1.01741e-09
1.15757e-09
1.19359e-09
1.19785e-09
1.19182e-09
1.13769e-09
1.00141e-09
8.08048e-10
5.67205e-10
4.25853e-10
4.09872e-10
5.51105e-10
8.90135e-10
1.50848e-09
2.51533e-09
3.97709e-09
5.89555e-09
6.71216e-09
4.93119e-09
1.88986e-09
5.31322e-10
1.61702e-10
8.255e-11
3.7667e-10
5.6785e-09
9.73682e-10
-2.38041e-09
-4.02977e-09
-5.05109e-09
-7.71022e-09
-8.40301e-09
-8.57865e-09
-1.10849e-08
-2.72363e-08
-5.48862e-08
-5.26352e-07
1.08155e-07
-1.27503e-09
-1.06619e-09
-9.51118e-10
-9.2374e-10
-8.90502e-10
-8.46692e-10
-7.60797e-10
-6.34362e-10
-4.58235e-10
-2.21741e-10
9.94999e-11
4.86695e-10
1.00715e-09
1.45771e-09
1.63047e-09
1.96715e-09
2.55709e-09
3.29101e-09
4.32912e-09
5.83225e-09
7.75935e-09
1.00338e-08
1.23738e-08
1.44487e-08
1.57482e-08
1.61846e-08
1.62952e-08
1.64617e-08
1.64212e-08
1.53347e-08
1.32883e-08
1.08084e-08
8.25228e-09
6.02446e-09
4.63485e-09
4.27597e-09
4.81392e-09
6.12797e-09
8.14934e-09
9.8303e-09
7.04736e-09
1.61336e-09
2.566e-10
5.52568e-11
1.93905e-11
1.85176e-11
3.55091e-10
6.36251e-09
2.00142e-09
-2.07074e-09
-4.02721e-09
-5.07909e-09
-6.97721e-09
-8.33461e-09
-8.52508e-09
-1.10575e-08
-2.71399e-08
-5.48077e-08
-5.26566e-07
4.72631e-08
-1.09058e-09
-8.4552e-10
-4.78774e-10
-2.28112e-10
1.33661e-10
5.81254e-10
1.27825e-09
2.21849e-09
3.33846e-09
4.72737e-09
6.85807e-09
9.02384e-09
1.11264e-08
1.24271e-08
1.28781e-08
1.36948e-08
1.51236e-08
1.64265e-08
1.80035e-08
2.02919e-08
2.31831e-08
2.64794e-08
2.96935e-08
3.2195e-08
3.37064e-08
3.43651e-08
3.45234e-08
3.40493e-08
3.2803e-08
3.07954e-08
2.81063e-08
2.51401e-08
2.20588e-08
1.8681e-08
1.50917e-08
1.21253e-08
1.03103e-08
9.94906e-09
1.10666e-08
1.25386e-08
8.77442e-09
6.87592e-10
4.42557e-11
9.92374e-12
6.39811e-12
1.87322e-11
1.18486e-09
1.06371e-08
3.37424e-09
-1.76388e-09
-4.36518e-09
-5.63977e-09
-6.86249e-09
-8.28526e-09
-8.49783e-09
-1.10377e-08
-2.70847e-08
-5.47726e-08
-5.27592e-07
1.94587e-07
1.31515e-10
6.31325e-10
2.42296e-09
3.93126e-09
5.28744e-09
6.49046e-09
7.802e-09
9.35272e-09
1.11917e-08
1.28519e-08
1.4075e-08
1.51918e-08
1.60933e-08
1.70543e-08
1.81361e-08
1.84664e-08
1.84736e-08
1.84717e-08
1.84005e-08
1.81935e-08
1.76034e-08
1.62762e-08
1.43135e-08
1.23106e-08
1.1155e-08
1.08176e-08
1.05526e-08
9.95983e-09
9.15988e-09
8.29326e-09
7.48789e-09
6.86641e-09
6.59479e-09
6.47498e-09
6.34326e-09
6.56392e-09
6.95497e-09
7.05832e-09
7.28668e-09
8.71117e-09
8.57941e-09
8.11545e-10
2.9523e-11
1.34889e-11
1.66566e-11
7.35303e-11
7.0898e-09
1.8419e-08
6.7515e-09
-9.44089e-10
-4.81978e-09
-6.58649e-09
-7.70163e-09
-8.27611e-09
-8.49361e-09
-1.10182e-08
-2.70894e-08
-5.47362e-08
-5.27118e-07
3.09529e-07
-9.539e-10
9.07056e-10
4.15208e-09
5.35142e-09
6.63113e-09
7.86691e-09
8.93779e-09
9.98871e-09
1.11003e-08
1.19273e-08
1.25115e-08
1.28165e-08
1.29581e-08
1.29186e-08
1.2725e-08
1.23754e-08
1.18176e-08
1.11746e-08
1.07017e-08
1.04401e-08
1.03369e-08
1.02933e-08
1.02063e-08
9.98027e-09
9.72437e-09
9.77435e-09
9.92787e-09
9.74835e-09
9.02074e-09
7.77057e-09
6.45141e-09
5.28948e-09
4.4875e-09
3.95344e-09
3.75264e-09
3.99233e-09
4.61966e-09
5.33664e-09
6.36782e-09
8.7546e-09
1.00019e-08
9.36645e-10
3.91682e-11
3.3214e-11
4.72386e-11
2.74569e-10
1.82153e-08
2.18148e-08
7.59452e-09
-7.8629e-10
-5.07931e-09
-6.99525e-09
-8.10018e-09
-8.29844e-09
-8.50388e-09
-1.1022e-08
-2.71408e-08
-5.47561e-08
-5.26766e-07
4.30042e-07
-1.01148e-09
1.36512e-09
6.43349e-09
9.35268e-09
1.1858e-08
1.3612e-08
1.50462e-08
1.63703e-08
1.74147e-08
1.80435e-08
1.8342e-08
1.84491e-08
1.81172e-08
1.77603e-08
1.75332e-08
1.62409e-08
1.37626e-08
1.32765e-08
1.32662e-08
1.33255e-08
1.373e-08
1.41347e-08
1.44163e-08
1.46105e-08
1.46698e-08
1.44995e-08
1.40544e-08
1.32795e-08
1.20477e-08
1.01967e-08
7.68692e-09
5.40434e-09
4.26335e-09
3.57836e-09
3.42766e-09
3.61314e-09
3.86551e-09
4.76799e-09
7.6614e-09
1.38086e-08
1.25547e-08
7.48681e-10
4.02082e-11
3.51767e-11
5.2918e-11
6.62294e-10
2.35701e-08
2.14782e-08
7.66195e-09
-6.52661e-10
-5.05128e-09
-7.00919e-09
-8.10951e-09
-8.29071e-09
-8.49802e-09
-1.10223e-08
-2.71322e-08
-5.47683e-08
-5.26568e-07
4.25642e-07
-2.51449e-10
2.36433e-09
7.56796e-09
1.05683e-08
1.25114e-08
1.34101e-08
1.42343e-08
1.52412e-08
1.61589e-08
1.68297e-08
1.72747e-08
1.79839e-08
1.89458e-08
2.03002e-08
2.08981e-08
1.99278e-08
1.66087e-08
1.55134e-08
1.61539e-08
1.69752e-08
1.68149e-08
1.72517e-08
1.82258e-08
1.94062e-08
2.05331e-08
2.14234e-08
2.20476e-08
2.23275e-08
2.21729e-08
2.11381e-08
1.90664e-08
1.59346e-08
1.18754e-08
8.25332e-09
6.08544e-09
4.86101e-09
4.59393e-09
5.45905e-09
8.44197e-09
1.34631e-08
1.29974e-08
9.54965e-10
4.0825e-11
3.12609e-11
4.50691e-11
3.58491e-10
1.90133e-08
2.05316e-08
7.36771e-09
-7.11341e-10
-4.93608e-09
-6.82492e-09
-7.9288e-09
-8.28002e-09
-8.4956e-09
-1.10251e-08
-2.71219e-08
-5.47936e-08
-5.268e-07
3.39141e-07
-4.7808e-10
6.57637e-10
3.05394e-09
3.97295e-09
4.86365e-09
5.7182e-09
6.79624e-09
7.93398e-09
9.05206e-09
1.02352e-08
1.16397e-08
1.32837e-08
1.4881e-08
1.62865e-08
1.70844e-08
1.69889e-08
1.6531e-08
1.61657e-08
1.59593e-08
1.6027e-08
1.68138e-08
1.84575e-08
2.01997e-08
2.1583e-08
2.29828e-08
2.46705e-08
2.66551e-08
2.74319e-08
2.71716e-08
2.58646e-08
2.41651e-08
2.19329e-08
1.82657e-08
1.30657e-08
9.50411e-09
7.43787e-09
6.58826e-09
6.38792e-09
6.32572e-09
7.34857e-09
8.77124e-09
9.38078e-10
3.53202e-11
2.51902e-11
3.11946e-11
1.20903e-10
8.30664e-09
1.81244e-08
6.63451e-09
-9.40531e-10
-4.74653e-09
-6.48121e-09
-7.57855e-09
-8.25975e-09
-8.49472e-09
-1.10262e-08
-2.71032e-08
-5.47894e-08
-5.26672e-07
5.93612e-08
-8.5493e-11
1.87111e-09
2.79491e-09
3.43052e-09
4.69718e-09
5.98985e-09
7.40437e-09
9.18211e-09
1.13034e-08
1.36754e-08
1.6288e-08
1.92462e-08
2.23805e-08
2.50211e-08
2.65201e-08
2.65252e-08
2.47982e-08
2.40328e-08
2.40549e-08
2.46341e-08
2.63209e-08
2.89075e-08
3.19204e-08
3.48897e-08
3.72704e-08
3.82838e-08
3.79352e-08
3.60211e-08
3.13297e-08
2.45296e-08
1.8554e-08
1.43515e-08
1.12383e-08
8.83315e-09
6.7928e-09
5.0917e-09
4.14292e-09
3.98876e-09
4.68015e-09
5.38626e-09
4.96433e-09
1.03116e-09
4.40041e-11
1.90406e-11
1.91095e-11
3.95756e-11
1.82987e-09
1.26753e-08
4.4912e-09
-1.34433e-09
-4.24293e-09
-5.63769e-09
-6.69097e-09
-8.19454e-09
-8.51204e-09
-1.10299e-08
-2.71316e-08
-5.47198e-08
-5.26326e-07
3.64289e-08
-1.46949e-10
1.00806e-10
4.40354e-10
1.54335e-09
3.11804e-09
5.66021e-09
8.47961e-09
1.2796e-08
1.72633e-08
2.10715e-08
2.42274e-08
2.67513e-08
2.84041e-08
2.88718e-08
2.77802e-08
2.55164e-08
2.35777e-08
2.31324e-08
2.39411e-08
2.54917e-08
2.7655e-08
2.92891e-08
2.83623e-08
2.92063e-08
3.16646e-08
3.21306e-08
2.78621e-08
1.91738e-08
1.5174e-08
1.29627e-08
9.59271e-09
6.72389e-09
4.92923e-09
3.75437e-09
2.99031e-09
2.79383e-09
3.29308e-09
4.75043e-09
7.09417e-09