/*--------------------------------*- C++ -*----------------------------------*\
| =========                 |                                                 |
| \\      /  F ield         | OpenFOAM: The Open Source CFD Toolbox           |
|  \\    /   O peration     | Version:  2.1.1                                 |
|   \\  /    A nd           | Web:      www.OpenFOAM.org                      |
|    \\/     M anipulation  |                                                 |
\*---------------------------------------------------------------------------*/
FoamFile
{
    version     2.0;
    format      ascii;
    class       volScalarField;
    location    "0.00105";
    object      epsilon;
}
// * * * * * * * * * * * * * * * * * * * * * * * * * * * * * * * * * * * * * //

dimensions      [0 2 -3 0 0 0 0];

internalField   nonuniform List<scalar> 
36520
(
42.5578
99.4414
203.586
232.59
273.212
286.592
300.194
303.179
299.667
291.302
277.202
261.909
244.024
226.834
208.601
191.863
174.749
158.418
141.883
125.72
109.551
94.0063
79.1357
65.4797
53.2358
42.6861
33.7762
26.4543
20.5535
15.9005
12.2752
9.49683
7.38863
5.80079
4.60365
3.69277
2.9844
2.41246
1.92977
1.50701
1.13055
0.803827
0.51666
0.305605
0.176103
0.0949021
0.0393857
0.0147122
0.0104701
0.00899634
0.00827432
0.0076883
0.00762687
0.00734945
0.00751545
0.00732397
0.00756126
0.00738088
0.00771636
0.00882848
7.47639
21.6814
30.0393
27.5721
26.445
23.5223
22.3021
20.4669
18.7736
16.9572
15.4245
14.298
13.4956
13.0382
12.7407
12.4812
12.0242
11.3629
10.4193
9.24543
7.89493
6.53185
5.23109
4.10587
3.22404
2.58168
2.11953
1.79832
1.59843
1.49257
1.45889
1.48621
1.56908
1.70538
1.90226
2.17504
2.54731
3.0513
3.7285
4.62438
5.76768
7.16179
8.54389
9.78185
10.6256
9.18143
4.6096
0.574948
0.0147719
0.00505529
0.00535766
0.00558556
0.00574718
0.00579132
0.00585013
0.00584765
0.00587728
0.00589889
0.00639559
0.00229597
1.95614
4.11451
4.50448
3.3838
2.72357
2.10575
1.82521
1.57045
1.36829
1.20999
1.10597
1.06433
1.07367
1.11193
1.18339
1.25317
1.3028
1.3225
1.30937
1.26809
1.21458
1.17607
1.16657
1.20249
1.29021
1.42597
1.60089
1.8122
2.05689
2.33477
2.65184
3.02306
3.4716
4.03675
4.77643
5.76505
7.1058
8.92717
11.3797
14.6175
18.7534
23.7515
29.1828
33.3134
35.0964
30.6919
17.5103
3.27925
0.0910684
0.00267715
0.00108549
0.00109212
0.00109631
0.00109034
0.00108033
0.00107363
0.0010645
0.00110013
0.00190284
0.00176643
0.567679
0.929157
0.788236
0.499253
0.367774
0.284036
0.262676
0.255853
0.265854
0.290473
0.330253
0.386462
0.459555
0.548464
0.656166
0.784461
0.935345
1.11772
1.33914
1.61647
1.96588
2.4046
2.94552
3.59757
4.34908
5.19342
6.12739
7.15328
8.19669
9.16565
10.0315
10.9019
11.9041
13.1925
14.93
17.3001
20.6366
25.3855
32.0924
41.3959
53.8938
69.9684
88.2209
100.859
96.9796
76.2534
45.2025
11.6826
0.52033
0.0137637
0.000401323
0.000137908
0.000123638
0.000116588
0.000110714
0.000107327
0.000105359
0.000143192
0.000964561
0.00168699
0.171278
0.294341
0.240781
0.19986
0.217179
0.255112
0.318782
0.403027
0.515262
0.659427
0.84657
1.07903
1.3627
1.72176
2.1768
2.76729
3.54658
4.60492
6.0418
8.0331
10.8002
14.6134
19.7874
26.6166
35.154
45.5454
58.3924
74.6077
92.556
111.006
116.827
108.851
92.2084
76.7617
70.4678
73.6334
80.1519
91.4025
109.277
136.183
174.402
227.329
289.067
307.656
255.867
179.322
98.4721
29.9902
2.21526
0.0830797
0.00229838
6.48764e-05
1.4238e-05
1.17854e-05
1.05143e-05
9.91525e-06
1.04601e-05
5.01341e-05
0.000857978
0.00167747
0.0853914
0.597267
0.961095
1.49873
2.16952
2.78529
3.42895
4.18023
5.057
6.15405
7.62309
9.4891
11.0567
13.2061
16.149
20.3667
26.6978
35.9734
49.609
70.0871
100.781
145.786
213.108
313.585
451.245
622.544
839.792
1142.81
1430.7
1571.77
1551.2
1390.02
1122.01
832.623
612.308
494.408
460.551
458.312
486.148
547.365
636.021
751.194
849.471
790.704
579.634
369.282
202.736
64.5175
7.30282
0.401057
0.0164778
0.000419137
1.02793e-05
3.37915e-06
3.2093e-06
3.1602e-06
4.24275e-06
4.40668e-05
0.000849919
0.00167755
0.147271
6.29675
14.2676
25.0006
37.7375
47.388
56.1262
66.3407
77.6205
91.0205
108.198
129.413
148.655
191.276
227.59
236.036
279.888
366.087
490.204
673.919
952.56
1328.93
1839.93
2617.55
3692.68
4686.21
5429.39
6057.56
6589.38
6891.23
6888.04
6517.97
5708.84
4584.42
3400.24
2383.76
1665.6
1309.56
1182.88
1157.87
1200.13
1287.09
1319
1145.99
836.059
544.28
332.683
129.474
20.2379
1.56979
0.0783082
0.00238737
4.89347e-05
3.41992e-06
2.8533e-06
2.84334e-06
3.96474e-06
4.3699e-05
0.000849024
0.00167711
3.82867
64.7274
170.392
308.217
546.316
756.873
960.596
1219.24
1488.11
1789.59
2155.95
2812.78
3294.85
3431.01
3568.26
3578.93
3966.14
4778.73
5808.67
7241.6
9313.49
11726.6
13980.1
15914.4
17448.6
18301.8
18353.6
17926
17304.8
16488.8
15420.4
14167.3
12739.9
11098.1
9307.63
7463.48
5695.9
4133.01
3014.3
2382.11
1973.39
1632.47
1332.42
1046.19
756.48
514.069
342.408
165.115
37.9087
3.92158
0.241254
0.00898262
0.000211749
5.94734e-06
2.86885e-06
2.83585e-06
3.95301e-06
4.3567e-05
0.000848174
0.00167624
19.2503
311.532
961.627
2071.98
3266.57
4957.75
6527.31
9114.11
11723.4
14141.9
16991.8
20001.4
21586.1
22108.8
22151.3
21043.3
19630.7
18953.9
18922.1
18943
18973.4
19148.7
19272.1
19239.6
19052.8
18725.1
18134.9
17233
16152.5
15010.5
13824
12552.8
11136.3
9705.87
8501.56
7546.54
6744.93
5921.69
4868.33
3720.42
2776.73
2054.78
1444.73
956.987
612.163
390.674
261.931
139.806
42.4026
6.46665
0.541365
0.0257138
0.000731957
1.56611e-05
2.98264e-06
2.83871e-06
3.9471e-06
4.35557e-05
0.000846559
0.00167343
20.1667
326.339
1085.63
2126.78
3321.93
4322.15
5196.09
6132.86
7190.84
8411.74
9766.64
11224
12689.9
14081.6
15394.5
16162.1
16780.1
17011.6
16538
15698.5
14981
14532.2
14404.7
14474.6
14626.2
14634.3
14294
13615.9
12635.5
11476.4
10286.4
9079.76
7950.34
6925.19
5829.48
4549.13
3304.94
2325.27
1734.93
1340.73
996.058
730.235
546.415
405.531
296.208
226.839
186.95
117.051
39.4921
6.58305
0.595059
0.0299831
0.000886509
1.86889e-05
3.01067e-06
2.83931e-06
3.94281e-06
4.36092e-05
0.000846308
0.00167285
13.3608
229.8
1760.03
5133.51
8136.98
10990.6
13131.9
15476.3
18357.2
21768.9
25809.8
30580.2
35312.9
39989.4
45043.7
50441.3
53641.5
52581.8
49485.9
46718.9
45333.9
45625.3
47235.3
49327.5
51028.5
51775.2
51037.6
48821.6
45577.2
41576.5
37049.3
32174.6
27207
22439.1
17760
12480.4
7749.24
4589.86
2733.3
1780.53
1301.92
999.657
762.399
579.011
431.696
325.156
255.728
164.696
59.7799
10.2979
0.924357
0.0457429
0.00131987
2.58134e-05
3.07647e-06
2.83321e-06
3.93586e-06
4.35266e-05
0.000844521
0.00167
14.7677
330.363
1722.04
3688.56
4900.06
9089.05
15511.7
26138
40161
55478.2
71617.8
87627
99588.2
106735
108907
106556
100261
88362.6
72135
61283.6
59768.6
64670.3
73852.4
84206.8
93106.8
98057.8
98259.7
94602.8
88361.7
80589.5
72203.2
63360.9
53405.2
42648.3
31385.9
21243.1
13034.9
7294.97
4016.24
2576.76
2098.58
1968.49
1802.29
1497.3
1160.78
830.913
560.363
334.287
122.168
19.7499
1.49622
0.0623985
0.00154609
2.63233e-05
3.04728e-06
2.82061e-06
3.92826e-06
4.33733e-05
0.000841936
0.00166601
26.7672
702.949
2217.27
3410.2
5227.8
10918
19105.5
31307.4
46549.1
63926.3
82744.2
100140
112271
118833
120780
117634
108365
92413.1
74742.1
64276.6
62049.7
66120.4
74842.9
83575.3
88897.5
90012.5
87457.8
82792.7
77721.6
72437.4
66021.7
57503.9
46821.2
36044.1
26584.4
18297.5
11285.7
6418.17
3658.47
2535.93
2402.06
2744.39
2627.23
2090.31
1514.95
1005.72
629.947
355.788
128.255
20.3415
1.52425
0.0631578
0.00155928
2.64767e-05
3.04698e-06
2.81935e-06
3.9263e-06
4.33665e-05
0.000841905
0.0016648
20.8863
576.831
3278.93
7521.36
10921.3
14668.1
18605.1
22779.6
26945.4
30960.7
34611.6
38359
42182.3
45864.1
49590.2
52413.1
51547.7
46058.2
39278.3
34175
30889.9
29233
29493.9
31611.6
34095.7
35602.5
35624.7
34558.3
32698.7
30351
27662.4
24497.3
21040.4
16970
12610.2
8674.74
5592.91
3462
2141.41
1482.3
1238.03
1127.57
919.653
689.854
504.705
379.566
299.037
181.055
58.986
9.49409
0.818858
0.0396376
0.00112807
2.22466e-05
3.03816e-06
2.82456e-06
3.93683e-06
4.33942e-05
0.000844738
0.00166916
25.7583
729.792
3199.69
5973.57
9658.56
16035.5
18753.3
21210.7
23564.9
25567.5
27729.6
29452.6
30360.5
30354.7
30248
29765.1
28195.1
25755.7
23391.5
21762.9
20984.4
20671.7
20112.3
19269.1
18834.7
18483.2
17759.3
16721.3
15520.8
14172.8
12567.6
10732.2
8813.85
6933.16
5229.37
3767.52
2584.15
1709.23
1133.66
793.885
610.208
508.635
422.616
345.118
281.235
236.009
202.857
115.821
33.3096
5.01774
0.421451
0.0202177
0.000575607
1.2739e-05
2.94456e-06
2.82857e-06
3.94635e-06
4.34142e-05
0.000846742
0.00167301
22.5361
480.461
1342.46
2517.38
3910.88
6550.16
9011.84
12793.8
16235.3
19647.7
22950
25350.6
26535.7
27021.3
26926
26170
25142.6
24130.1
23216.8
22064.9
20911.4
19883.1
18567.7
17024.5
15570
14343.7
13181.5
11811.7
10338.4
9032.5
7936.98
6962.94
6008.74
5069.35
4188.99
3402.46
2739.04
2205.06
1792.16
1505.46
1314.85
1105.62
828.421
578.441
399.746
291.375
230.698
129.005
35.7934
4.96685
0.381224
0.0170324
0.000462484
1.05692e-05
2.91982e-06
2.8338e-06
3.94675e-06
4.34711e-05
0.000847044
0.00167333
3.56754
42.7808
98.0605
172.701
274.117
397.92
547.579
758.176
991.587
1280.71
1659.35
2189.68
2974.96
3839.75
4540.77
5064.54
5263.23
5336.63
5422.64
5835.27
6789.87
7712.55
8279.8
8788.68
9477.63
10192.8
10474.9
10235.8
9868.23
9518.27
9009.23
8160.49
6968.44
5600.45
4382.6
3521.21
2918.37
2492.27
2218.94
2064.12
1904.58
1589.86
1234.42
925.617
656.06
446.681
309.099
150.622
33.886
3.44235
0.201544
0.00717342
0.000163557
5.14048e-06
2.84186e-06
2.82899e-06
3.93716e-06
4.36333e-05
0.000846596
0.00167261
0.147838
4.61211
9.84692
15.9009
22.6427
28.9705
36.1662
45.2087
55.3926
67.56
83.3249
104.743
135.335
194.275
273.423
323.242
318.179
300.929
333.263
402.751
498.116
603.272
713.262
845.255
1013.99
1217.42
1418.2
1550.29
1606.4
1567.7
1382.69
1110.18
852.557
728.349
722.76
766.491
870.387
1033.29
1253.24
1581.48
2018.56
2237.61
2143.49
1735.99
1176.91
694.641
378.22
130.204
17.7986
1.29925
0.0605858
0.00174768
3.56232e-05
3.65245e-06
3.09846e-06
3.01197e-06
4.05143e-06
4.38185e-05
0.000848121
0.00167598
0.115831
0.416074
0.633408
0.931725
1.31018
1.70337
2.18289
2.74906
3.41683
4.19859
5.16003
6.3569
7.81294
9.71305
11.8759
14.2027
16.5069
19.4606
23.2478
28.1342
34.1725
41.1932
49.1136
58.3562
68.9785
80.2771
90.1389
96.9172
100.796
102.441
102.563
104.279
110.893
124.773
147.927
183.565
238.501
321.33
443.716
617.947
881.689
1135.78
1202.68
1055.86
762.609
473.624
239.6
66.9108
6.39674
0.328982
0.0126211
0.000307411
1.07631e-05
5.26382e-06
4.43692e-06
4.03819e-06
4.78048e-06
4.45015e-05
0.000848421
0.00167515
0.286656
0.272721
0.166493
0.139911
0.173083
0.223583
0.297717
0.391507
0.513759
0.665159
0.856034
1.09024
1.37305
1.71034
2.1049
2.56388
3.09515
3.73719
4.51521
5.49976
6.73892
8.28269
10.1589
12.4349
15.126
18.2044
21.499
24.9135
28.5117
32.4463
36.8699
42.122
48.8586
57.9775
70.8671
89.2474
116.283
156.797
217.079
290.082
362.995
417.659
424.382
386.797
315.999
223.481
117.921
32.974
2.16486
0.0783129
0.00201823
5.98973e-05
1.88942e-05
1.64834e-05
1.45622e-05
1.33995e-05
1.33502e-05
5.26308e-05
0.000857771
0.00167338
1.01008
1.02449
0.572825
0.244427
0.18686
0.157125
0.172919
0.199342
0.242024
0.299367
0.373636
0.465059
0.575902
0.706154
0.857816
1.03565
1.24096
1.4871
1.78288
2.15337
2.61311
3.18533
3.88108
4.71906
5.70246
6.82528
8.0478
9.36124
10.7739
12.3285
14.0908
16.1799
18.8313
22.4091
27.4429
34.6011
44.8653
59.5597
80.2212
108.288
141.205
170.539
181.707
169.722
144.431
107.9
59.6087
13.9694
0.603856
0.0162351
0.00039037
0.000101746
0.00010389
0.000106668
0.000108707
0.00010907
0.000110493
0.000149215
0.000965977
0.00167934
2.73472
4.52914
3.54355
1.79737
1.35964
0.926964
0.800571
0.681791
0.599208
0.548218
0.526605
0.523645
0.550596
0.600351
0.665549
0.741059
0.829072
0.929787
1.03136
1.13293
1.24207
1.37554
1.53942
1.74227
1.98873
2.28704
2.63806
3.04789
3.52462
4.08914
4.77036
5.61775
6.70652
8.1594
10.1614
12.963
16.9345
22.562
30.474
39.4357
47.6403
51.8986
50.2349
45.0795
40.406
33.1134
17.7344
3.03209
0.0841106
0.00211655
0.000723324
0.000789684
0.00085596
0.000891029
0.000921396
0.000933514
0.000948657
0.00098939
0.00179548
0.00174853
8.32625
22.1489
25.2418
18.8245
17.2859
14.3338
13.3666
12.0163
10.8498
9.66968
8.78902
7.94309
7.38197
7.00225
6.75137
6.54625
6.40801
6.23312
5.9376
5.48428
4.92055
4.33754
3.76924
3.24896
2.7926
2.43469
2.19067
2.04982
1.99301
2.00899
2.09385
2.24702
2.46766
2.76812
3.1772
3.73429
4.49584
5.45201
6.46441
7.40882
8.10487
8.39144
8.26134
7.97175
7.45559
6.09018
2.86868
0.329706
0.00936619
0.00393976
0.00430512
0.00458722
0.00482491
0.00493856
0.00506275
0.00510693
0.00517342
0.00522108
0.00573444
0.00218008
65.1079
104.889
190.342
209.222
233.391
240.962
246.119
244.889
238.624
229.763
217.004
203.776
188.551
174.03
158.936
145.177
131.276
118.294
105.334
92.9034
80.634
69.0212
58.0332
48.0579
39.1525
31.5033
25.1067
19.933
15.8033
12.5464
9.99534
8.02134
6.4841
5.26729
4.27784
3.45608
2.76097
2.16045
1.62705
1.15394
0.767989
0.477284
0.277534
0.153089
0.0828105
0.044752
0.0219225
0.0118417
0.00948123
0.00846085
0.00790806
0.0074003
0.00730432
0.0070067
0.00711322
0.00689384
0.00708703
0.00688519
0.00717017
0.00785202
47.3324
85.2212
162.56
187.37
217.068
228.602
237.141
238.362
233.302
225.529
213.089
200.191
184.795
170.079
154.623
140.386
126.136
112.868
99.8016
87.3258
75.105
63.592
52.83
43.1979
34.7935
27.776
22.0344
17.4394
13.7943
10.938
8.71344
6.99671
5.66464
4.62143
3.78674
3.10097
2.52028
2.0132
1.56125
1.14267
0.785195
0.505912
0.305495
0.174432
0.096247
0.0514138
0.0244573
0.0120253
0.00924045
0.00823518
0.00772273
0.00726536
0.00719437
0.00692549
0.00703811
0.00683431
0.00702393
0.00683483
0.00716555
0.00856275
6.79872
17.8994
22.8808
19.0616
18.2906
15.7765
14.5948
13.1454
11.8707
10.5263
9.59621
8.49215
7.75566
7.14344
6.67253
6.33861
6.08887
5.82668
5.48843
5.00377
4.4074
3.78263
3.1919
2.69343
2.29865
2.03194
1.87758
1.81243
1.81857
1.89133
2.02855
2.23199
2.50643
2.86823
3.3558
4.00923
4.87991
5.97555
7.20282
8.49234
9.67595
10.5084
10.733
10.3436
9.23068
7.19494
3.48682
0.465161
0.0126563
0.00416974
0.00445436
0.00469734
0.00488897
0.00497554
0.00506869
0.00510069
0.00514736
0.00519021
0.00572256
0.00226338
1.70053
3.65503
3.39071
2.02108
1.61918
1.14308
0.958519
0.791276
0.684558
0.603355
0.571782
0.54119
0.548439
0.571071
0.615763
0.676312
0.751712
0.835993
0.924413
1.01336
1.10979
1.2295
1.38301
1.58098
1.82831
2.1338
2.50354
2.95162
3.49461
4.15509
4.96535
5.98568
7.29598
9.03542
11.4291
14.8157
19.7233
26.8703
37.2039
48.6404
58.6695
63.4769
60.0568
51.098
42.2366
33.7327
18.6388
3.5836
0.106865
0.00233147
0.000713436
0.000757336
0.000808306
0.000834449
0.000858683
0.000867941
0.00088071
0.000921641
0.00173541
0.00176123
0.652938
0.854887
0.587385
0.279265
0.222104
0.183544
0.199143
0.229725
0.283175
0.355311
0.450054
0.567082
0.709209
0.878938
1.07801
1.31127
1.58424
1.91484
2.30759
2.79467
3.39631
4.14013
5.0389
6.10324
7.32045
8.68003
10.1788
11.8642
13.7771
15.9811
18.5923
21.8721
26.2282
32.364
41.4137
55.2646
77.3368
113.487
172.189
264.49
387.374
442.733
389.337
279.361
180.579
118.514
67.8615
17.1997
0.846402
0.0188389
0.000407667
7.71353e-05
7.89034e-05
8.25081e-05
8.57172e-05
8.70969e-05
8.95016e-05
0.00012894
0.000947137
0.001684
0.282966
0.270236
0.19239
0.165689
0.222784
0.316997
0.462714
0.661601
0.934086
1.28425
1.72939
2.2788
2.94497
3.73795
4.66956
5.69794
6.89313
8.37959
10.2096
12.5848
15.6507
19.5338
24.2563
29.7374
35.7525
42.126
48.8127
55.9639
63.8112
72.1957
81.1049
91.6249
105.641
126.653
159.93
214.573
306.956
463.667
721.842
1110.93
1689.36
1919.26
1464.21
915.476
571.094
369.369
196.846
55.5726
4.67603
0.146178
0.00382633
8.43186e-05
9.45065e-06
8.71877e-06
9.00044e-06
9.09281e-06
1.02384e-05
4.98329e-05
0.000856227
0.00167444
0.148488
0.283032
0.38742
0.578589
0.879045
1.32019
1.96327
2.8679
4.14148
5.79025
7.924
10.6004
13.8004
17.551
21.4872
24.8219
27.87
31.9068
38.0032
46.2407
56.8548
69.9692
85.1828
101.173
115.515
126.164
134.373
142.992
153.316
164.517
175.967
189.731
211.352
249.089
313.387
423.577
618.393
973.236
1608.65
2647.87
4151.27
4972.87
3608.35
2184.98
1314.53
811.372
436.874
136.807
17.0457
0.761521
0.0281109
0.000620931
1.20155e-05
3.2767e-06
3.21583e-06
3.20124e-06
4.3178e-06
4.3867e-05
0.00084623
0.00167019
0.112388
1.70724
3.38812
5.81246
8.60192
12.5021
18.1589
26.4419
38.5675
54.5282
75.0298
100.507
129.96
164.72
197.886
221.322
244.44
278.82
336.943
427.919
562.164
745.306
977.966
1234.67
1462.23
1591.56
1622.34
1617.68
1608.38
1563.38
1452.73
1303.75
1065.8
957.896
974.326
1120.9
1454.6
2115.8
3285.62
4986.55
6975.93
7468.02
5929.96
4001.91
2506.61
1392.61
683.161
250.836
43.7993
2.84636
0.11714
0.00291442
4.91407e-05
3.33017e-06
2.85619e-06
2.83868e-06
3.96011e-06
4.35085e-05
0.000845559
0.00166991
0.313078
16.5202
39.6021
74.4447
101.908
138.803
191.865
273.209
401.875
582.887
830.522
1173.83
1589.53
2189.5
2727.43
2810.43
3021.6
3567.2
4365.04
5626.77
7645.24
10543.6
14379.1
18798.5
23207.2
26505.5
28234.3
29131.2
29983
30316.2
28217.2
23949.2
18814.2
13689.8
9330.11
6533.32
5419.32
5478.67
6170.66
7084.6
7642.42
6899.51
5261.38
3601.43
2235.7
1242.36
632.148
264.299
62.7408
6.16397
0.319363
0.00972389
0.000188833
5.13429e-06
2.85099e-06
2.82763e-06
3.94278e-06
4.35366e-05
0.000845663
0.00167067
6.53169
121.464
312.5
721.999
1096.34
1601.09
2258
3304.66
4816.26
6623.43
8898.7
12640.9
16469.3
20241.6
22844.7
23474.6
24596.7
27050.7
29716.9
34097.8
40734.9
49415.5
59259.2
68719.5
75285.6
77758
77120
74789.2
71062.3
66059.6
60243.3
53561.9
46487.3
39366.2
31757.9
23758.9
17039.4
12354.8
9324.85
7506.33
6412.92
5152.99
3568.16
2210.06
1292.06
730.971
416.509
202.57
58.034
7.51873
0.510326
0.0201105
0.000488569
1.02658e-05
2.90429e-06
2.83525e-06
3.94079e-06
4.35048e-05
0.000845314
0.00167085
25.4807
904.621
2554.58
6327.43
10320.5
13794.2
16612.1
19604
23583.2
27419.7
29454.6
31281.6
33776.8
35854.8
37802.4
39215
38943.4
37464.3
36135.3
35523.8
35357.2
35174.9
34434.7
32882.8
30738.6
28464.8
25932.6
23161.6
20320.4
17551.4
15032.9
12784.3
10797.7
9018.17
7406.34
5967.16
4675.09
3585.38
2795.08
2310.65
2046.4
1771.28
1372.78
956.24
607.5
378.074
251.096
139.289
45.7542
7.47261
0.652997
0.0322689
0.000949197
1.99255e-05
3.0294e-06
2.8361e-06
3.94104e-06
4.34102e-05
0.000845025
0.00167118
20.7852
385.317
2822.6
8586.44
10122.7
11565.6
12508.8
13104.6
13755.2
14432.3
15139.7
15476.3
15312.7
15055.4
14734.3
14651.9
14475.7
13605
12331
11086
9957.44
9108.8
8651.85
8530.74
8578.53
8650.72
8630.76
8525.15
8339.4
8019.49
7558.76
6918.06
6061.52
5037.31
3962.88
2986.69
2170.19
1523.76
1065.7
773.393
599.809
491.22
396.448
299.28
229.354
190.405
169.565
105.05
34.0767
5.66807
0.517417
0.0267584
0.000814531
1.77697e-05
3.00351e-06
2.82993e-06
3.94103e-06
4.33803e-05
0.000845269
0.00167112
18.5761
141.832
3019.9
14330.4
19324.4
23868.1
27112.9
29243.1
30941.6
31984.2
32019.5
31278.8
30032.5
28628.1
26986.4
24829.1
22723.7
20773.9
18895.5
17240.9
15963.3
15234.6
15069.3
15159.4
15212.3
15178.6
15011.1
14675.8
14124.8
13329.9
12297.3
10870
9084.2
7167.19
5312.45
3714.5
2458.64
1558.17
988.763
666.308
497.885
401.588
326.561
267.322
222.972
203.502
182.993
98.8579
27.8281
4.58899
0.428908
0.0227134
0.000702673
1.57994e-05
2.97607e-06
2.8261e-06
3.93533e-06
4.33508e-05
0.00084424
0.00166881
18.4061
178.426
4797.12
18247
23133.2
26004.2
26864.9
27220.1
28078.5
28730
28991.6
29382.7
29662.9
29439.2
28922.9
28108.4
26782.9
24949.8
22934.5
21106.9
19791.9
18945.6
18467
18374.5
18570.5
18889.3
19008.3
18696.6
18108.3
17517.5
16678
15358
13382.7
10751.1
7846.99
5269.44
3330.94
2020.84
1259.95
841.062
615.714
485.417
387.34
308.666
246.579
211.946
189.139
109.333
32.3242
5.30984
0.491218
0.0257372
0.000788251
1.72596e-05
2.98973e-06
2.82448e-06
3.93153e-06
4.33423e-05
0.000843279
0.0016667
20.3035
543.531
2267.11
6290.74
7219.31
8044.59
8709.09
9567.8
10460.7
11058.5
11372.8
11884.8
12788
13919.5
15042.2
15721.3
15608.8
14892.6
13932.6
12982
12327.7
12130.3
12302.3
12851.8
13640.5
14486.5
15266.9
16003.7
16837.8
17668.8
17627.8
16995.4
16303.6
15178.7
12982
9828.47
6693.67
4279.53
2662.09
1684.09
1147.04
851.248
629.666
459.509
341.755
265.17
218.976
139.308
48.1565
7.9827
0.715901
0.0360884
0.00106883
2.19558e-05
3.04091e-06
2.82691e-06
3.93296e-06
4.33823e-05
0.000843348
0.00166699
32.7114
650.696
2264.01
4139.67
4070.16
5127.09
6081.75
7115.81
8359.8
10076.5
12253.1
14719.5
17681.1
21269.8
24896.7
27685.1
28506
27635.9
26701.8
26180.1
26373.2
27731
30498.1
34613.7
39674.6
45052.8
50365.5
55717.4
60555.1
60617.7
51731.3
37175.9
24050.4
15182.1
9623.39
6008.4
3616.41
2111.18
1251.17
845.22
730.658
734.096
695.571
589.716
477.78
376.309
295.821
196.809
75.3616
12.4192
1.02869
0.0473349
0.00129433
2.46036e-05
3.06726e-06
2.83035e-06
3.94525e-06
4.34733e-05
0.000846667
0.00167236
49.6613
453.603
616.673
875.942
1580.71
2759.12
4966.95
7981.78
13141.1
19494.7
25644.6
31188.3
35841.6
38652.3
38409
34669.8
28670.4
23971.7
23328.1
25147.7
28951.6
34537.9
40861.1
46026.8
49523.4
51176.1
49981.3
45555.8
38129.1
28598
19142.2
11876.7
7284.91
4602.87
2998.52
1994.31
1363.09
991.773
839.209
923.36
1304.86
1799.71
1727.07
1314.93
953.197
671.61
468.665
282.468
93.0528
11.7613
0.740831
0.0269179
0.000602988
1.13161e-05
2.91019e-06
2.8272e-06
3.94849e-06
4.34707e-05
0.000847658
0.00167465
7.88372
225.651
518.417
1189.96
2386.7
4753.95
8358
13601.8
21072.8
30498.4
40043.2
48795.1
55375.3
57839.5
56886.7
52992.5
46567.5
40336.8
39013.6
41715.1
47166
55348.1
63269.5
68773.9
71201.9
70382.4
66490.7
60264.9
51441.9
40786.1
29827
18670.7
9006.99
3820.64
2467.93
2084.16
2047.57
2218.25
2543.7
2865.01
2874.37
2555.88
2077.85
1626.66
1236.72
893.532
614.768
342.492
99.2298
11.2189
0.657977
0.0223606
0.000476806
9.31719e-06
2.89566e-06
2.83006e-06
3.94741e-06
4.35151e-05
0.000847082
0.00167268
1.12451
34.133
85.6414
183.048
334.992
582.467
973.614
1509.94
2140.23
2790.64
3295.42
3601.32
4183.5
5102.3
5646.94
5720.98
5378.68
5006.35
5127.97
6114.68
8176.01
11168.5
14274.4
16304.9
17230
17212.2
16242.9
14613.8
11844
8739.86
6014.58
3768.16
2332.85
1740.73
1549.62
1490.77
1507.14
1571.17
1660.18
1750.98
1806.48
1740.6
1565.17
1333.8
1068.1
764.159
452.61
163.705
27.3262
2.26323
0.117515
0.0037454
7.94732e-05
3.87794e-06
2.85783e-06
2.84669e-06
3.9621e-06
4.36347e-05
0.000847932
0.00167422
0.417069
1.90999
4.03481
7.78604
13.3595
21.5399
32.9676
45.8617
58.0418
65.9188
69.0245
73.7738
88.676
113.633
152.783
166.305
156.384
151.405
193.55
265.787
374.741
516.771
672.647
845.138
1093.76
1458.56
1676.74
1695.03
1420.43
1083.43
851.122
696.18
615.265
603.612
643.889
739.15
930.544
1248.73
1729.07
2440.16
3032.57
3130.2
2745.53
2021.24
1204.84
590.151
238.994
71.0389
8.1823
0.45603
0.0196024
0.000534858
1.27848e-05
3.45427e-06
3.2713e-06
3.21635e-06
4.29519e-06
4.4013e-05
0.000850529
0.00167904
0.842916
0.616183
0.536576
0.656366
0.979032
1.43293
2.03329
2.62633
3.0988
3.24966
3.12184
3.0594
3.44654
4.06102
4.76579
5.53996
6.56171
8.05022
10.1335
12.9974
16.7484
21.2894
26.3528
32.0415
38.7318
45.8866
53.1338
63.8053
67.558
65.0326
66.2325
71.199
80.2137
93.5156
113.266
142.98
187.149
251.621
345.453
475.016
642.894
794.064
784.574
636.825
434.008
244.691
110.763
31.8335
2.35345
0.0920867
0.00269022
7.08426e-05
1.15163e-05
1.01997e-05
9.80578e-06
9.55882e-06
1.03701e-05
5.00287e-05
0.000857529
0.0016778
1.60313
1.55494
0.930808
0.433202
0.337744
0.287217
0.302142
0.329186
0.370623
0.414928
0.470298
0.549295
0.656967
0.786978
0.940146
1.12313
1.33959
1.60252
1.91815
2.31008
2.79339
3.38597
4.09275
4.9291
5.90951
7.03902
8.30321
9.71555
11.2134
12.8515
14.7518
17.0222
19.8351
23.5124
28.4928
35.3826
45.0665
58.7267
77.9211
104.385
139.586
167.418
180.577
177.182
148.157
99.0775
50.7102
12.0308
0.560929
0.0155744
0.000391237
9.62462e-05
9.64874e-05
9.80027e-05
9.86994e-05
9.83481e-05
9.90853e-05
0.000137624
0.000957551
0.00168599
3.73889
6.07864
4.91279
2.7557
2.09978
1.48885
1.19302
0.94257
0.77489
0.678229
0.646172
0.651802
0.689909
0.736632
0.797807
0.873797
0.954584
1.03562
1.10961
1.17616
1.24226
1.33262
1.46309
1.64307
1.87495
2.16275
2.50463
2.90166
3.35413
3.8711
4.46964
5.18943
6.08656
7.23393
8.74085
10.7485
13.4591
17.1205
22.0023
28.3413
34.9154
40.7805
44.9109
46.9927
44.6064
34.1841
17.2584
3.01511
0.0900832
0.00238551
0.000800034
0.000852503
0.000904201
0.000929547
0.000948372
0.000956708
0.000963102
0.0010041
0.00181246
0.00176479
9.81118
25.4881
29.8309
23.4801
21.7069
18.5894
16.6965
14.5593
12.6768
11.1123
10.1198
9.38575
8.92198
8.53256
8.18735
7.97236
7.72961
7.40147
6.90991
6.22773
5.37404
4.49775
3.70154
3.04075
2.51717
2.14043
1.9036
1.78034
1.74287
1.76832
1.84398
1.96583
2.13407
2.35371
2.6401
3.01614
3.51584
4.17751
5.0426
6.07192
7.16567
8.26755
9.27852
10.1091
10.1429
7.77517
3.49967
0.425949
0.0120256
0.00431053
0.00464129
0.00491196
0.00512887
0.00522334
0.00532896
0.00535621
0.00541475
0.00544827
0.0059829
0.00230313
58.9691
105.917
189.994
212.8
242.044
252.625
259.639
257.454
249.803
238.949
225.038
211.122
195.527
180.895
165.418
151.345
137.194
123.821
110.419
97.3954
84.3006
71.734
59.8606
49.1738
39.7189
31.6581
24.9722
19.6205
15.4095
12.1504
9.6379
7.70385
6.19847
5.00635
4.03963
3.24081
2.57297
2.00509
1.51608
1.10014
0.75349
0.483737
0.292978
0.17047
0.0994769
0.0541265
0.0250446
0.0122181
0.00941796
0.00838029
0.00785271
0.00738996
0.00734134
0.00708018
0.00722131
0.00702451
0.00723612
0.00705133
0.00740022
0.00892002
52.5528
77.4539
154.249
177.189
200.5
207.576
211.46
209.533
203.219
194.714
183.229
171.525
158.578
146.512
134.017
122.815
111.56
101.106
90.5905
80.3921
70.2228
60.5132
51.2547
42.8458
35.3685
28.9909
23.7095
19.4725
16.0966
13.4131
11.2793
9.60131
8.25969
7.14833
6.17525
5.26912
4.39139
3.52568
2.69262
1.93979
1.30725
0.819638
0.477836
0.262056
0.138077
0.0701096
0.0287149
0.0105098
0.00809714
0.00750189
0.0072778
0.00686654
0.00688225
0.00658471
0.00673843
0.00649666
0.00671598
0.00649532
0.00682476
0.00794743
29.8665
57.4191
111.483
125.432
139.978
144.484
145.813
143.356
137.904
131.263
123.001
114.888
106.416
98.7922
91.1778
84.5529
77.9766
71.911
65.745
59.6902
53.5703
47.6487
41.8954
36.6125
31.848
27.6981
24.161
21.233
18.7895
16.7228
14.9522
13.4365
12.1016
10.8655
9.64915
8.40715
7.13428
5.85734
4.6088
3.43955
2.42399
1.6088
0.999716
0.588748
0.331251
0.16961
0.0593352
0.0110498
0.00658434
0.00632876
0.0063823
0.00609973
0.00619622
0.00593025
0.0060988
0.00585904
0.00608127
0.00586607
0.00617862
0.00718304
24.0026
35.8626
64.8727
71.9693
78.6419
80.3798
80.2807
78.2816
74.9353
71.2703
67.0593
63.2069
59.4582
56.4634
53.6294
51.3975
49.2316
47.2932
45.1729
42.9195
40.3735
37.6379
34.6809
31.7376
28.8582
26.128
23.6219
21.4778
19.6484
18.0531
16.6382
15.3836
14.2785
13.2304
12.1315
10.9388
9.65461
8.30784
6.92532
5.57532
4.34423
3.26558
2.29021
1.52839
1.00026
0.558598
0.193896
0.0205798
0.00534117
0.00511442
0.00535876
0.00522406
0.00538707
0.00518754
0.00536469
0.00515826
0.00536055
0.00516322
0.00543764
0.00625087
19.9622
23.28
35.3239
36.3564
38.4817
38.8149
38.5865
37.6594
36.394
35.244
34.1211
33.2378
32.5119
32.1256
31.8573
31.7779
31.6774
31.5123
31.0453
30.1909
28.885
27.2229
25.3073
23.4391
21.7718
20.4537
19.5364
19.1498
18.8785
18.4711
17.6514
16.329
14.9652
14.1875
13.2905
12.3227
11.3018
10.3508
9.40673
8.55339
7.91427
7.66981
6.36174
4.57089
3.15636
1.92848
0.70883
0.0699251
0.00543763
0.00424085
0.0045617
0.00453993
0.00475145
0.00461445
0.00480086
0.00463337
0.00482673
0.00465289
0.00489917
0.00559112
17.1148
12.8162
16.4193
17.2062
18.1873
18.4543
18.5669
18.4815
18.3349
18.2601
18.179
18.0698
18.0332
18.1952
18.4008
18.5843
18.6549
18.6231
18.4933
18.234
17.9599
17.8369
18.0874
19.0495
21.1295
24.8046
30.4054
35.1022
38.0648
40.2749
41.6687
40.592
37.8345
32.7513
26.3057
20.3202
15.6416
13.8334
13.0549
12.7797
13.2834
12.4813
10.0125
7.74858
6.61214
4.89106
2.09345
0.250412
0.00937756
0.00397689
0.00421379
0.00425456
0.00450735
0.00440119
0.00460664
0.0044529
0.00465329
0.00448816
0.00473213
0.00541469
14.4088
7.72991
10.5561
11.6288
13.2396
13.9517
14.8754
15.6021
16.3216
16.9841
17.5801
18.0246
18.4595
19.0198
19.6554
20.239
20.7468
21.109
21.3933
21.487
21.5057
21.5003
21.556
21.7778
22.3625
23.4672
25.1731
26.5734
27.2326
27.2008
28.1683
29.0962
28.2647
26.6807
24.9111
23.7348
23.1462
25.852
28.1849
28.5121
27.1681
23.6603
17.9677
12.6049
9.01925
5.90188
2.37422
0.292614
0.0102991
0.00407446
0.00434823
0.0044138
0.00470657
0.00459309
0.00482308
0.00465576
0.00487731
0.00469847
0.00496384
0.00570685
20.8996
15.234
19.8849
19.567
21.7621
22.6608
24.4806
25.8065
27.1745
28.4193
29.7029
30.7814
31.8029
32.8858
33.9815
34.8958
35.657
36.0887
36.1712
35.6993
34.8097
33.41
31.5624
29.464
27.3763
25.4585
23.8092
22.4634
21.4011
20.2781
19.105
17.8447
16.4922
15.2517
14.1208
13.0175
11.977
11.0428
10.2465
9.59423
9.211
9.26741
9.87796
10.5354
9.42491
7.71614
3.9549
0.587981
0.0152238
0.00459491
0.00483934
0.00489226
0.00522671
0.00507967
0.00534398
0.00514238
0.00539869
0.00519071
0.00549592
0.00636514
19.3591
27.1122
52.0477
57.3284
64.4206
65.3326
67.2762
67.6487
67.8846
67.3376
67.1107
66.5899
65.8593
64.8377
63.7696
62.3655
60.6688
58.5715
56.5062
54.5647
53.3567
53.1985
54.7047
58.9956
67.0293
79.8926
95.677
113.394
134.131
148.262
160.202
165.741
161.328
155.84
149.721
132.019
106.017
83.3809
67.0077
53.4131
43.9139
34.8989
22.6042
13.1102
8.21424
5.0439
1.99424
0.203089
0.0077878
0.00522637
0.00580963
0.0057924
0.00614352
0.00590535
0.00620263
0.00593119
0.00623073
0.00597118
0.00633416
0.00741169
18.3311
34.1825
81.7303
104.131
128.855
137.989
146.879
151.271
153.182
152.525
150.795
148.7
146.967
145.35
144.288
142.627
140.706
137.348
132.975
126.812
119.066
109.416
98.2947
86.5869
75.6348
66.3678
58.9113
52.9533
48.1656
45.0498
41.8957
38.1671
33.9408
30.5355
28.0031
25.3995
22.4058
19.3701
16.2907
13.2965
10.7023
8.8361
6.50067
4.12276
2.58707
1.5332
0.60249
0.0581011
0.00638769
0.00621413
0.00691349