/*--------------------------------*- C++ -*----------------------------------*\
| =========                 |                                                 |
| \\      /  F ield         | OpenFOAM: The Open Source CFD Toolbox           |
|  \\    /   O peration     | Version:  2.1.1                                 |
|   \\  /    A nd           | Web:      www.OpenFOAM.org                      |
|    \\/     M anipulation  |                                                 |
\*---------------------------------------------------------------------------*/
FoamFile
{
    version     2.0;
    format      ascii;
    class       volVectorField;
    location    "0.00105";
    object      fluctuation1;
}
// * * * * * * * * * * * * * * * * * * * * * * * * * * * * * * * * * * * * * //

dimensions      [0 1 -1 0 0 0 0];

internalField   nonuniform List<vector> 
36520
(
(-1.21909e-05 5.47204e-06 4.12054e-05)
(-1.5502e-05 9.65444e-06 5.00571e-05)
(2.51455e-06 1.8386e-05 8.1023e-05)
(3.15424e-06 2.54623e-05 0.00010354)
(4.10252e-06 3.52901e-05 0.000135077)
(4.78337e-06 4.51494e-05 0.000160386)
(5.19812e-06 5.59492e-05 0.000184397)
(5.12505e-06 6.58564e-05 0.000200721)
(4.68357e-06 7.48377e-05 0.000212793)
(4.08315e-06 8.17241e-05 0.0002203)
(3.66472e-06 8.72776e-05 0.00022636)
(3.64957e-06 9.1564e-05 0.000232404)
(4.17409e-06 9.58777e-05 0.00023987)
(5.03538e-06 0.000100666 0.000249059)
(6.15565e-06 0.000106207 0.000259164)
(7.62091e-06 0.000112756 0.000273312)
(9.74982e-06 0.000120853 0.000292854)
(1.29354e-05 0.000132231 0.000322667)
(1.73956e-05 0.00014867 0.000364042)
(2.30877e-05 0.000172043 0.00041929)
(2.96303e-05 0.000202773 0.000485981)
(3.64649e-05 0.000240358 0.000561142)
(4.27258e-05 0.000282606 0.000637296)
(4.74812e-05 0.000326579 0.000705377)
(4.97595e-05 0.000368591 0.000753385)
(4.8654e-05 0.000405245 0.000772758)
(4.35112e-05 0.000432472 0.000756934)
(3.45755e-05 0.000446794 0.000704075)
(2.34132e-05 0.000445399 0.000614617)
(1.28163e-05 0.000427612 0.000494642)
(6.40326e-06 0.000395931 0.000355407)
(8.16058e-06 0.000359244 0.000215465)
(2.11868e-05 0.000333664 9.67665e-05)
(4.56214e-05 0.000338406 1.63863e-05)
(7.67976e-05 0.000385387 -3.0403e-05)
(0.000107238 0.000470748 -6.52567e-05)
(0.000130401 0.000578297 -0.000109447)
(0.000141927 0.000688452 -0.000170153)
(0.000138687 0.000785216 -0.000238328)
(0.000117858 0.000855125 -0.000297192)
(7.67631e-05 0.000875467 -0.000337642)
(-3.74126e-07 0.000798018 -0.000340169)
(-8.15603e-05 0.000614443 -0.000321655)
(-0.000100894 0.000406289 -0.000255245)
(-5.73986e-05 0.000270436 -0.000160501)
(-2.56001e-05 0.000223213 -0.000108339)
(-4.40401e-05 0.000161084 -4.16877e-05)
(-2.34591e-05 2.75523e-05 7.60218e-05)
(-2.26044e-06 2.18787e-07 8.25445e-07)
(-2.37399e-08 7.87209e-09 3.56834e-08)
(-5.70484e-10 8.18098e-11 4.08645e-10)
(-4.1216e-12 6.42617e-13 3.1105e-12)
(-2.30315e-14 4.90263e-15 1.98807e-14)
(-1.14026e-16 3.21368e-17 1.14687e-16)
(-5.60873e-19 1.56235e-19 5.05307e-19)
(-2.25453e-21 5.41065e-22 1.5619e-21)
(-6.72828e-24 1.30319e-24 3.38641e-24)
(-1.33664e-26 2.09538e-27 4.80218e-27)
(-1.85999e-29 2.06111e-30 4.32642e-30)
(-1.60814e-32 1.01275e-33 1.87034e-33)
(-8.94946e-06 3.55039e-05 8.28284e-05)
(-2.19524e-06 5.93858e-05 8.93937e-05)
(1.31173e-05 8.67761e-05 0.000116732)
(1.45718e-05 0.000105898 0.00012547)
(1.53018e-05 0.000124636 0.000137837)
(1.33521e-05 0.000137404 0.000138758)
(1.11899e-05 0.00014998 0.0001387)
(8.61692e-06 0.000156748 0.000130236)
(6.78654e-06 0.000161076 0.000119862)
(5.74852e-06 0.00016257 0.000106883)
(5.81378e-06 0.000165248 9.4832e-05)
(6.63155e-06 0.000168914 8.38287e-05)
(8.03383e-06 0.00017521 7.40909e-05)
(9.509e-06 0.00018345 6.55301e-05)
(1.17152e-05 0.000193966 5.79587e-05)
(1.52916e-05 0.000207502 5.24699e-05)
(2.09597e-05 0.000226158 4.93255e-05)
(2.88957e-05 0.000253162 4.901e-05)
(3.85342e-05 0.00028968 5.04871e-05)
(4.87523e-05 0.000335594 5.25716e-05)
(5.78303e-05 0.000387594 5.42856e-05)
(6.42289e-05 0.000441941 5.48492e-05)
(6.6057e-05 0.000492405 5.30572e-05)
(6.22187e-05 0.000534584 4.82777e-05)
(5.2998e-05 0.000567198 4.05298e-05)
(3.93881e-05 0.000590675 3.03935e-05)
(2.23282e-05 0.000602953 1.99934e-05)
(2.90801e-06 0.000601802 4.81358e-06)
(-1.73889e-05 0.000585792 -1.37813e-05)
(-3.62452e-05 0.000551809 -3.29653e-05)
(-4.9899e-05 0.000504383 -5.03997e-05)
(-5.3303e-05 0.000459026 -6.2458e-05)
(-4.24479e-05 0.000439331 -6.58965e-05)
(-2.03776e-05 0.000462115 -7.30184e-05)
(1.5818e-06 0.000523189 -8.89772e-05)
(1.29379e-05 0.000592915 -0.000115293)
(1.17796e-05 0.000630011 -0.000151887)
(4.73031e-06 0.000618783 -0.000198213)
(-2.18788e-08 0.000596012 -0.000254058)
(-3.18863e-06 0.000608605 -0.000318029)
(-3.23912e-06 0.000605128 -0.000383573)
(-1.90732e-05 -0.00310995 -0.0181652)
(-1.11933e-05 -0.0060404 -0.0338057)
(-3.92613e-06 -0.00665489 -0.0380848)
(-5.33052e-07 -0.00678483 -0.039418)
(3.62435e-06 -0.00598625 -0.0350627)
(6.88522e-05 -0.00188477 -0.0124411)
(-1.37557e-05 0.000180611 0.000425525)
(-1.35004e-05 9.1045e-07 2.07553e-06)
(-1.475e-07 7.01637e-08 1.79612e-07)
(-6.97706e-09 1.37369e-09 3.66348e-09)
(-8.34526e-11 1.65516e-11 4.08714e-11)
(-6.6458e-13 1.66603e-13 3.45148e-13)
(-4.25081e-15 1.26297e-15 2.31186e-15)
(-2.51085e-17 6.73548e-18 1.07837e-17)
(-1.08922e-19 2.52368e-20 3.48158e-20)
(-3.43524e-22 6.53583e-23 7.74196e-23)
(-7.29485e-25 1.12067e-25 1.12351e-25)
(-1.12534e-27 1.25891e-28 1.08435e-28)
(-1.78296e-30 1.09887e-31 8.07911e-32)
(-3.51596e-07 7.50381e-05 7.85207e-05)
(6.23089e-06 8.16429e-05 4.94932e-05)
(1.17529e-05 0.000103975 4.6722e-05)
(1.0348e-05 0.000110407 3.5556e-05)
(7.90643e-06 0.000112224 2.7102e-05)
(3.93296e-06 0.000107705 1.76268e-05)
(6.76592e-07 0.000105483 9.88436e-06)
(-1.94539e-06 9.97208e-05 2.44411e-06)
(-3.26191e-06 9.4437e-05 -4.35492e-06)
(-3.90242e-06 8.96857e-05 -1.07488e-05)
(-3.89129e-06 8.74788e-05 -1.73539e-05)
(-3.75225e-06 8.76364e-05 -2.43812e-05)
(-3.4847e-06 9.07537e-05 -3.07802e-05)
(-3.13263e-06 9.6663e-05 -3.43078e-05)
(-2.32563e-06 0.000105047 -3.75009e-05)
(-8.55066e-07 0.000115424 -4.14594e-05)
(1.16172e-06 0.000128605 -4.6375e-05)
(3.35442e-06 0.0001454 -5.27896e-05)
(5.23321e-06 0.000164991 -6.0924e-05)
(6.70517e-06 0.000185608 -7.09678e-05)
(7.71589e-06 0.000204185 -8.27e-05)
(8.03455e-06 0.000219137 -9.62342e-05)
(7.46058e-06 0.000229328 -0.000111384)
(6.04644e-06 0.000236702 -0.000128363)
(3.96153e-06 0.000244614 -0.000147013)
(1.94589e-06 0.000254498 -0.00016622)
(-2.42032e-06 2.56865e-05 -0.00103864)
(-7.66364e-06 -0.00155231 -0.00673452)
(-1.06596e-05 -0.00260893 -0.0105992)
(-1.11151e-05 -0.00349833 -0.0138552)
(-9.10807e-06 -0.00420483 -0.0164395)
(-4.4277e-06 -0.00477191 -0.0185237)
(-9.53954e-07 -0.00526406 -0.0203581)
(-4.44914e-07 -0.00575714 -0.0222395)
(-4.95723e-07 -0.00633226 -0.0244741)
(-5.62913e-07 -0.00710384 -0.0274566)
(-6.54525e-07 -0.00822272 -0.0316504)
(-7.72286e-07 -0.00968137 -0.0371114)
(-9.11053e-07 -0.0113368 -0.0434192)
(-1.05204e-06 -0.0129962 -0.0499588)
(-0.000295195 -0.0145738 -0.0564705)
(-0.000721473 -0.0160453 -0.063039)
(-0.000622128 -0.0187084 -0.0688027)
(-0.000322229 -0.0211653 -0.0722219)
(0.000119557 -0.0233057 -0.0722259)
(0.000717117 -0.0246604 -0.0649274)
(0.0010716 -0.0234476 -0.047826)
(0.00119317 -0.00907227 -0.0216997)
(-0.000138974 4.85399e-06 4.4932e-06)
(-4.01137e-07 2.62383e-07 4.40469e-07)
(-2.98365e-08 8.93991e-09 1.63198e-08)
(-5.9422e-10 1.55468e-10 2.63221e-10)
(-6.61164e-12 1.91543e-12 2.99214e-12)
(-5.47743e-14 1.5858e-14 2.24325e-14)
(-3.69006e-16 8.9789e-17 1.13277e-16)
(-1.6897e-18 3.52548e-19 3.90513e-19)
(-5.53566e-21 9.45098e-22 9.12402e-22)
(-1.23009e-23 1.69212e-24 1.40397e-24)
(-2.78691e-26 2.78944e-27 2.00515e-27)
(-8.70159e-29 4.78396e-30 2.98853e-30)
(-1.09399e-05 6.73667e-05 2.65152e-05)
(-5.12137e-06 6.48772e-05 2.06973e-06)
(2.08916e-07 6.89521e-05 -9.18766e-06)
(-3.9649e-07 6.14926e-05 -1.71331e-05)
(-1.18557e-06 5.41643e-05 -2.34984e-05)
(-2.18542e-06 4.67819e-05 -2.47361e-05)
(-2.78262e-06 4.3281e-05 -2.41224e-05)
(-3.30113e-06 3.95518e-05 -2.29684e-05)
(-3.60865e-06 3.71764e-05 -2.20639e-05)
(-3.9939e-06 3.58104e-05 -2.12342e-05)
(-4.38079e-06 3.61915e-05 -2.16475e-05)
(-4.17771e-06 2.72575e-05 -6.49502e-05)
(-2.38168e-06 -2.88865e-05 -0.000263531)
(-4.90084e-07 -0.000151514 -0.00068322)
(-1.52241e-08 -0.000322162 -0.00127932)
(-2.36141e-08 -0.000561299 -0.00212539)
(-3.6664e-08 -0.000937976 -0.00344791)
(-5.61946e-08 -0.00151441 -0.00544871)
(-8.43197e-08 -0.00237003 -0.00837461)
(-1.21255e-07 -0.00353593 -0.0123016)
(-1.63527e-07 -0.0049203 -0.0169118)
(-2.06705e-07 -0.00635661 -0.0216746)
(-2.47898e-07 -0.00773385 -0.0262549)
(-2.84741e-07 -0.00894484 -0.0303607)
(-3.17049e-07 -0.00996652 -0.0339258)
(-2.8855e-05 -0.010855 -0.0370967)
(-0.00020915 -0.0116527 -0.0400094)
(-0.000302383 -0.012352 -0.0427929)
(-0.000285305 -0.0129686 -0.0452952)
(-0.000287513 -0.0134531 -0.0474026)
(-0.000265986 -0.0138205 -0.0491756)
(-0.000230189 -0.0141384 -0.050811)
(-0.000211543 -0.0144516 -0.0524623)
(-0.000243232 -0.0148021 -0.0543271)
(-0.000381485 -0.0152806 -0.0566194)
(-0.000771953 -0.0160888 -0.0595307)
(-0.00162944 -0.0173584 -0.0634267)
(-0.00328205 -0.0195008 -0.0685075)
(-0.00627244 -0.023114 -0.0747207)
(-0.0104045 -0.028722 -0.0818)
(-0.0133543 -0.0366112 -0.0893564)
(-0.0121461 -0.0465223 -0.0969607)
(-0.00724641 -0.0572468 -0.103255)
(-0.00207412 -0.0667513 -0.103894)
(0.00208731 -0.071408 -0.096164)
(0.00465963 -0.0745908 -0.0760158)
(0.00529962 -0.0663811 -0.0498072)
(0.00798716 -0.0342236 -0.0311198)
(0.0155539 -5.00046e-05 -0.00019392)
(-1.59415e-06 1.35596e-06 1.48553e-06)
(-8.44864e-08 3.7027e-08 5.30462e-08)
(-2.40102e-09 8.2738e-10 1.14696e-09)
(-3.65884e-11 1.1528e-11 1.50402e-11)
(-4.00139e-13 1.05999e-13 1.26986e-13)
(-2.96493e-15 6.51848e-16 7.04805e-16)
(-1.46938e-17 2.76319e-18 2.64965e-18)
(-5.14737e-20 7.92636e-21 6.67595e-21)
(-1.46475e-22 1.82442e-23 1.3295e-23)
(-8.63971e-25 7.86064e-26 4.98543e-26)
(-3.51414e-27 1.77868e-28 9.84156e-29)
(-1.23832e-05 4.88172e-05 -2.03389e-05)
(-8.72385e-06 3.78262e-05 -1.95351e-05)
(-5.96284e-06 3.65475e-05 -2.11857e-05)
(-5.41421e-06 2.47608e-05 -4.27117e-05)
(-3.91181e-06 1.98197e-05 -8.28647e-05)
(-1.33821e-06 1.24091e-05 -0.000182408)
(-2.59644e-09 6.32786e-07 -0.000396848)
(-2.60067e-09 -2.36569e-05 -0.000822019)
(-2.73151e-09 -6.30781e-05 -0.0015365)
(-5.49791e-07 -0.000174418 -0.00272506)
(-2.59953e-05 -0.000453416 -0.00456152)
(-0.000129398 -0.000975163 -0.00708174)
(-0.00028756 -0.00178923 -0.0103361)
(-0.000391039 -0.00282742 -0.0141677)
(-0.000452765 -0.00395722 -0.0182274)
(-0.000561844 -0.00524211 -0.0225306)
(-0.000698911 -0.00679807 -0.0272265)
(-0.000876702 -0.00849174 -0.0321161)
(-0.00109776 -0.0103066 -0.0372925)
(-0.00132299 -0.0122703 -0.0429724)
(-0.0015109 -0.0144123 -0.0493126)
(-0.00175864 -0.0167231 -0.0563534)
(-0.00198501 -0.0192327 -0.0641552)
(-0.00205767 -0.0218715 -0.0727196)
(-0.00200649 -0.0245189 -0.0816669)
(-0.00193254 -0.027135 -0.0907451)
(-0.00192161 -0.0298238 -0.10004)
(-0.00183533 -0.0326651 -0.109965)
(-0.00144906 -0.0353628 -0.119383)
(-0.000949835 -0.0378053 -0.127422)
(-0.000725168 -0.0385913 -0.129682)
(-0.000651399 -0.0377062 -0.126582)
(-0.00040079 -0.0356835 -0.119924)
(-0.000190011 -0.0336088 -0.113202)
(-0.000356402 -0.0326777 -0.110117)
(-0.00135466 -0.0333518 -0.111398)
(-0.00377517 -0.0351823 -0.114296)
(-0.00805755 -0.0389932 -0.1191)
(-0.0154198 -0.0457259 -0.125841)
(-0.0265798 -0.0561805 -0.13418)
(-0.0383502 -0.0683626 -0.144852)
(-0.0393421 -0.0864915 -0.156364)
(-0.0229553 -0.111916 -0.162424)
(-0.00691938 -0.12705 -0.155235)
(0.00319511 -0.12739 -0.132203)
(0.00719693 -0.117014 -0.104861)
(0.0091162 -0.0913926 -0.0826532)
(0.0198214 -0.0488665 -0.0552804)
(0.0387332 -0.000681877 -0.00120645)
(0.000376639 7.88739e-06 3.94536e-06)
(-5.37347e-07 3.91855e-07 4.52678e-07)
(-1.1276e-08 3.72088e-09 4.35133e-09)
(-1.62222e-10 4.85572e-11 5.38231e-11)
(-1.99237e-12 4.88358e-13 4.99238e-13)
(-1.6154e-14 3.24614e-15 3.0017e-15)
(-8.81781e-17 1.50751e-17 1.23609e-17)
(-3.56053e-19 4.99246e-20 3.58289e-20)
(-2.62563e-21 2.9851e-22 1.84348e-22)
(-2.64188e-23 2.2048e-24 1.17563e-24)
(-1.16978e-25 5.50217e-27 2.53887e-27)
(-1.78032e-05 2.44332e-05 -6.12785e-05)
(-9.43937e-06 -2.58207e-05 -0.00022239)
(-2.21543e-05 -6.19633e-05 -0.000780719)
(-5.26579e-05 -0.00018371 -0.00249354)
(-0.00010147 -0.000339072 -0.00572604)
(-0.000172478 -0.000524693 -0.00970254)
(-0.000279457 -0.000501273 -0.0132339)
(-0.000320634 -0.00182513 -0.018297)
(-0.000365501 -0.00317234 -0.0228721)
(-0.000414118 -0.00469675 -0.0274675)
(-0.000456165 -0.00638349 -0.0322293)
(-0.000518299 -0.00812707 -0.0371593)
(-0.000603071 -0.00980422 -0.0419347)
(-0.000712741 -0.0114452 -0.0473452)
(-0.000891534 -0.0131064 -0.0533086)
(-0.00126259 -0.0150563 -0.0600843)
(-0.00181315 -0.0174702 -0.0682163)
(-0.0026586 -0.0204613 -0.0779771)
(-0.00405795 -0.0242911 -0.0897291)
(-0.00625326 -0.0292458 -0.104146)
(-0.00933649 -0.0354657 -0.121737)
(-0.0146606 -0.0430045 -0.142469)
(-0.0233544 -0.0521613 -0.167042)
(-0.0337513 -0.0630764 -0.196263)
(-0.0408923 -0.075107 -0.228925)
(-0.0400438 -0.0875754 -0.263038)
(-0.0273765 -0.102078 -0.29871)
(-0.0125773 -0.121176 -0.337581)
(-0.00517807 -0.140416 -0.366171)
(0.000974489 -0.149837 -0.376802)
(0.00511125 -0.14719 -0.373038)
(0.000868334 -0.14093 -0.354323)
(-0.00824302 -0.131492 -0.322091)
(-0.0105225 -0.114123 -0.286184)
(-0.00734179 -0.0957426 -0.255421)
(-0.00839245 -0.0835533 -0.235706)
(-0.0181777 -0.0782822 -0.229424)
(-0.0307524 -0.0767419 -0.22939)
(-0.0415735 -0.080574 -0.235157)
(-0.0558405 -0.091765 -0.245203)
(-0.0677025 -0.107335 -0.258702)
(-0.069283 -0.127013 -0.273864)
(-0.0518375 -0.16402 -0.272394)
(-0.0194987 -0.187717 -0.243656)
(-0.00285458 -0.18073 -0.198296)
(0.00535598 -0.148025 -0.163823)
(0.0212455 -0.111447 -0.129661)
(0.0895163 -0.0630849 -0.0722451)
(0.0714887 -0.000937959 -0.00110821)
(0.0166442 7.66383e-06 1.00536e-05)
(-2.26753e-06 6.53887e-06 6.56851e-06)
(-1.73537e-07 5.08986e-08 4.93685e-08)
(-1.0202e-09 2.33388e-10 2.13552e-10)
(-9.96205e-12 2.33184e-12 1.94939e-12)
(-1.02231e-13 1.93458e-14 1.45512e-14)
(-6.7189e-16 1.07149e-16 7.08704e-17)
(-3.83718e-18 5.02285e-19 2.87711e-19)
(-5.4669e-20 5.82373e-21 2.83451e-21)
(-6.30335e-22 4.95188e-23 2.05239e-23)
(-3.03171e-24 1.35905e-25 4.81627e-26)
(-0.000439594 8.53446e-05 -0.000138991)
(-0.00109428 0.000678831 -0.00171972)
(-0.00245545 0.000733144 -0.017651)
(-0.00154102 -0.00501284 -0.0411252)
(-0.0010495 -0.00862785 -0.0532235)
(-0.00107398 -0.00851604 -0.0602364)
(-0.00353692 -0.000494692 -0.0656168)
(-0.00417688 -0.00411564 -0.0729441)
(-0.00376647 -0.00978354 -0.0802146)
(-0.00376671 -0.0140961 -0.0881602)
(-0.00384917 -0.0180484 -0.0975404)
(-0.00422598 -0.0213354 -0.108334)
(-0.00474056 -0.0243916 -0.119354)
(-0.00552922 -0.0293403 -0.137501)
(-0.00650013 -0.0345813 -0.152241)
(-0.00769552 -0.0389096 -0.159829)
(-0.00964344 -0.0447351 -0.176247)
(-0.0133351 -0.0529358 -0.200599)
(-0.0206866 -0.0640652 -0.229344)
(-0.0324251 -0.0798903 -0.26388)
(-0.0435355 -0.102215 -0.306085)
(-0.0516146 -0.12999 -0.352316)
(-0.0606976 -0.169317 -0.401438)
(-0.0733034 -0.23152 -0.454304)
(-0.0760688 -0.309018 -0.504055)
(-0.0759355 -0.365697 -0.54047)
(-0.0862566 -0.328759 -0.61252)
(-0.0593597 -0.261763 -0.682222)
(-0.0335386 -0.290575 -0.698454)
(-0.0474474 -0.49424 -0.583167)
(-0.0169671 -0.533187 -0.542932)
(0.0309371 -0.509703 -0.537584)
(0.0180001 -0.486649 -0.500484)
(-0.0365224 -0.372581 -0.518371)
(-0.0887552 -0.266301 -0.497165)
(-0.125747 -0.242198 -0.418967)
(-0.209372 -0.19116 -0.353825)
(-0.384739 -0.10706 -0.262559)
(-0.506764 -0.0281614 -0.133526)
(-0.532562 -0.00604951 -0.0894349)
(-0.553509 -0.0100069 -0.0843819)
(-0.518563 -0.0713868 -0.182367)
(-0.157459 -0.193059 -0.334789)
(-0.0408709 -0.217489 -0.30605)
(-0.0130281 -0.227023 -0.235304)
(0.00956775 -0.188832 -0.193734)
(0.0761299 -0.154148 -0.146587)
(0.253755 -0.0419616 -0.0359872)
(0.119451 -0.000628803 -0.000468265)
(0.0351116 1.83891e-05 1.46696e-05)
(-7.16286e-05 8.4559e-05 6.49515e-05)
(-2.53977e-06 7.79475e-07 5.78459e-07)
(-1.6703e-08 3.11873e-09 2.15531e-09)
(-8.65502e-11 1.82716e-11 1.1272e-11)
(-9.81326e-13 1.76965e-13 9.56413e-14)
(-7.63592e-15 1.15458e-15 5.32426e-16)
(-5.20411e-17 6.47113e-18 2.49391e-18)
(-8.72529e-19 8.88525e-20 2.79037e-20)
(-1.12669e-20 8.50799e-22 2.16713e-22)
(-5.98711e-23 2.60759e-24 5.3893e-25)
(-0.00421108 0.000339104 3.91731e-05)
(-0.0359421 0.00734178 0.000623758)
(-0.128903 0.0303371 -0.000129874)
(-0.191653 0.0550563 -0.00348518)
(-0.21389 0.124433 -0.0127064)
(0.00707459 0.236136 -0.0157575)
(-0.00180978 -0.00695285 -0.263368)
(-0.0102109 -0.0174195 -0.294232)
(-0.0203114 -0.0173133 -0.324296)
(-0.0281589 -0.0190989 -0.355843)
(-0.0243077 -0.0252313 -0.390976)
(-0.0235637 -0.0322695 -0.440197)
(-0.026686 -0.0275292 -0.478013)
(-0.0280741 -0.0269915 -0.501324)
(-0.0374346 -0.0240452 -0.52032)
(-0.0526262 -0.0183705 -0.532677)
(-0.0615734 -0.0300841 -0.569238)
(-0.0692367 -0.0617038 -0.621301)
(-0.0776133 -0.0954483 -0.674465)
(-0.0847322 -0.131982 -0.739193)
(-0.0802091 -0.1729 -0.819677)
(-0.0634279 -0.208943 -0.900911)
(-0.0486953 -0.228308 -0.972883)
(-0.0484807 -0.229238 -1.0361)
(-0.0625393 -0.224005 -1.08562)
(-0.0731906 -0.217568 -1.1123)
(-0.0717904 -0.192229 -1.11991)
(-0.0665988 -0.171265 -1.1135)
(-0.0701868 -0.159575 -1.09826)
(-0.0718802 -0.147818 -1.07592)
(-0.0390578 -0.134962 -1.04632)
(0.00626579 -0.124249 -1.00976)
(0.0396177 -0.109588 -0.967431)
(0.044858 -0.085939 -0.917048)
(0.0227081 -0.059546 -0.856269)
(0.00714893 -0.0390082 -0.78489)
(0.00221766 -0.0133417 -0.706443)
(-0.00362055 0.0764004 -0.618956)
(-0.378013 0.428408 0.241904)
(-0.393939 0.199634 0.380551)
(-0.480752 0.153285 0.308633)
(-0.620903 0.0570087 0.119727)
(-0.612814 -0.0119956 -0.00788148)
(-0.236992 -0.241008 -0.250011)
(-0.0204909 -0.266173 -0.198573)
(0.0555773 -0.235618 -0.148384)
(0.250933 -0.163277 -0.0865954)
(0.314885 -0.0154174 -0.00324178)
(0.167282 -0.000187585 7.46993e-05)
(0.0574821 5.97063e-05 2.06179e-05)
(-0.00109664 0.000558824 0.000338606)
(-2.72001e-05 7.04174e-06 4.24187e-06)
(-2.08131e-07 3.38425e-08 1.85404e-08)
(-8.08669e-10 1.2887e-10 5.98501e-11)
(-7.38284e-12 1.2342e-12 4.51414e-13)
(-6.59841e-14 9.41566e-15 2.48508e-15)
(-5.16654e-16 6.14748e-17 1.03189e-17)
(-9.86293e-18 9.75489e-19 8.06278e-20)
(-1.43945e-19 1.06921e-20 1.48193e-22)
(-8.5442e-22 3.72402e-23 -1.48117e-24)
(0.000161695 -0.172476 -0.0563834)
(0.000178223 -0.144953 -0.0616621)
(0.00028348 -0.24114 -0.102235)
(0.000397217 -0.345157 -0.144871)
(0.000488759 -0.426116 -0.178628)
(8.68417e-05 -0.516702 -0.215706)
(-0.000340573 -0.58807 -0.246407)
(0.000177676 -0.68478 -0.286299)
(0.000677775 -0.766393 -0.32137)
(0.000106443 -0.836407 -0.351549)
(0.000266677 -0.912467 -0.381292)
(0.00105359 -0.985282 -0.41029)
(0.00131996 -1.02639 -0.4271)
(0.00123682 -1.04465 -0.435822)
(0.00154108 -1.0521 -0.439535)
(0.00122229 -1.04046 -0.435999)
(-0.000774412 -1.02296 -0.436629)
(-0.00687737 -1.01405 -0.452957)
(-0.0113981 -1.01906 -0.466014)
(-0.0139673 -1.02592 -0.477598)
(-0.015317 -1.03566 -0.484938)
(-0.0160473 -1.04916 -0.488427)
(-0.0141919 -1.06499 -0.481506)
(-0.0098531 -1.07773 -0.469757)
(-0.00531873 -1.08355 -0.459809)
(-0.00211075 -1.08246 -0.451138)
(-0.000648123 -1.07212 -0.442797)
(-0.000369169 -1.05224 -0.433199)
(-0.00105945 -1.02588 -0.422175)
(-0.00169147 -0.995681 -0.409515)
(-0.00083883 -0.961566 -0.394623)
(0.000467593 -0.922348 -0.377652)
(0.000657207 -0.87648 -0.359409)
(0.000304076 -0.827739 -0.341709)
(0.000765819 -0.783859 -0.326131)
(0.00348483 -0.746809 -0.311929)
(0.00792842 -0.714671 -0.298366)
(0.0080432 -0.680917 -0.284012)
(0.00272362 -0.633913 -0.265153)
(-0.0011697 -0.575628 -0.241245)
(-0.00781241 -0.519654 -0.212977)
(-0.197331 -0.45706 -0.147504)
(-0.581251 -0.135964 0.01399)
(-0.303331 -0.278571 -0.12925)
(-0.0661514 -0.247286 -0.187634)
(0.128238 -0.212451 -0.140516)
(0.339381 -0.10831 -0.0494759)
(0.325996 -0.0126052 8.00756e-05)
(0.198326 -0.000228937 0.00040968)
(0.08132 0.000331213 0.000167743)
(-0.00327892 0.0022471 0.00143148)
(-0.000186943 4.18315e-05 2.58011e-05)
(-1.8746e-06 2.6442e-07 1.55104e-07)
(-7.51383e-09 9.1515e-10 5.03776e-10)
(-4.3558e-11 6.79449e-12 3.47355e-12)
(-4.23027e-13 5.85712e-14 2.83855e-14)
(-3.67976e-15 4.2724e-16 1.98545e-16)
(-7.68597e-17 7.43805e-18 3.34201e-18)
(-1.21339e-18 8.82556e-20 3.87177e-20)
(-7.694e-21 3.30442e-22 1.42323e-22)
(0.000149474 -0.182756 -0.0353833)
(0.000171599 -0.151224 -0.0379729)
(0.000279064 -0.272891 -0.0658604)
(0.000375423 -0.380226 -0.0905793)
(0.000463012 -0.473752 -0.113894)
(0.000504223 -0.541937 -0.129534)
(0.000222379 -0.597293 -0.14187)
(-0.0004065 -0.651169 -0.153992)
(-0.000488131 -0.706056 -0.166673)
(0.000432944 -0.761846 -0.179682)
(0.00100813 -0.81804 -0.193151)
(0.000876721 -0.875728 -0.207176)
(0.000604372 -0.931896 -0.220746)
(0.000740009 -0.983739 -0.232955)
(0.00146198 -1.02766 -0.243181)
(0.00149136 -1.05652 -0.249922)
(0.00080223 -1.08656 -0.257338)
(-0.00024939 -1.10902 -0.263938)
(-0.00452141 -1.1124 -0.267275)
(-0.0106859 -1.10213 -0.272251)
(-0.0127567 -1.09379 -0.269651)
(-0.0141895 -1.09231 -0.261361)
(-0.0124361 -1.09803 -0.258391)
(-0.00852356 -1.10759 -0.259748)
(-0.00410858 -1.1165 -0.26215)
(-0.000748597 -1.11834 -0.263383)
(0.00100033 -1.10777 -0.261603)
(0.00117384 -1.08492 -0.256838)
(0.000490802 -1.05078 -0.249388)
(0.000247383 -1.00858 -0.239769)
(0.000469644 -0.961327 -0.229088)
(0.000488918 -0.90858 -0.217723)
(0.000492952 -0.85458 -0.205415)
(0.000633749 -0.800557 -0.192263)
(0.000610392 -0.739755 -0.177002)
(0.000729799 -0.666473 -0.158611)
(0.000812779 -0.589248 -0.140298)
(0.00041286 -0.520842 -0.125623)
(0.00016579 -0.473319 -0.114558)
(0.000777977 -0.434881 -0.103804)
(-6.54782e-05 -0.391526 -0.091718)
(-0.0589858 -0.343136 -0.0797048)
(-0.321884 -0.205601 -0.0419476)
(-0.190481 -0.244691 -0.0389863)
(-0.0587732 -0.240106 -0.0664877)
(0.132083 -0.205151 -0.0682612)
(0.331163 -0.0933403 -0.032241)
(0.319968 -0.0104552 -0.00392376)
(0.200227 -6.85071e-05 -8.66997e-05)
(0.0844198 0.000534746 0.000246422)
(-0.00302224 0.00276778 0.000999263)
(-0.000234948 4.90262e-05 1.77226e-05)
(-2.4289e-06 3.18772e-07 1.1053e-07)
(-9.92146e-09 1.09084e-09 3.55512e-10)
(-5.28368e-11 7.32743e-12 2.24971e-12)
(-5.08868e-13 6.17041e-14 1.8038e-14)
(-4.37667e-15 4.36405e-16 1.2321e-16)
(-8.93396e-17 7.30251e-18 2.00782e-18)
(-1.3625e-18 8.28681e-20 2.24206e-20)
(-8.29682e-21 2.95677e-22 7.90849e-23)
(4.4876e-05 -0.152518 -0.0265805)
(5.65538e-05 -0.135628 -0.0302518)
(0.000139943 -0.387005 -0.0813155)
(0.000212894 -0.613192 -0.122448)
(0.000261692 -0.757386 -0.148048)
(0.000173295 -0.873697 -0.168741)
(5.84321e-05 -0.958634 -0.184593)
(0.000122745 -1.04005 -0.200132)
(-2.933e-05 -1.1254 -0.216873)
(3.65064e-05 -1.21363 -0.236137)
(0.000240789 -1.3083 -0.25866)
(0.000419883 -1.41046 -0.282496)
(0.000506431 -1.50512 -0.304026)
(0.00042106 -1.59302 -0.322371)
(8.0248e-05 -1.67616 -0.34021)
(-0.000503999 -1.75761 -0.357638)
(-0.0010413 -1.81399 -0.367201)
(-0.00234089 -1.82697 -0.364851)
(-0.0243882 -1.82101 -0.342151)
(-0.648011 -1.75196 -0.321479)
(-0.140497 -1.77968 -0.461435)
(0.00568767 -1.85644 -0.202365)
(-0.00720089 -1.87605 -0.308065)
(-0.00450779 -1.90183 -0.366949)
(-0.0019441 -1.92276 -0.39117)
(-0.000355362 -1.93006 -0.395857)
(0.000599916 -1.91481 -0.393561)
(0.00078263 -1.87583 -0.387194)
(0.000320975 -1.81883 -0.376987)
(-0.000107084 -1.74378 -0.374171)
(-0.000396523 -1.65544 -0.360252)
(-2.93275e-05 -1.55285 -0.340342)
(0.000461103 -1.43755 -0.311324)
(0.000606892 -1.31099 -0.274835)
(0.000905095 -1.17109 -0.240271)
(0.00156303 -1.00196 -0.198336)
(0.00218523 -0.827672 -0.150202)
(0.00147387 -0.686164 -0.0959336)
(-0.00199276 -0.577525 -0.0546099)
(-0.00104368 -0.498959 -0.0446727)
(-0.00670132 -0.442254 -0.0491969)
(-0.156656 -0.373113 -0.0520689)
(-0.410217 -0.175097 -0.0188826)
(-0.251328 -0.26033 -0.0037159)
(-0.0946483 -0.27541 -0.0337986)
(0.144813 -0.210414 -0.115015)
(0.317983 -0.0408988 -0.124251)
(0.327895 0.00738877 -0.0407444)
(0.21972 0.00188449 -0.00485256)
(0.0962991 0.000123751 0.000613627)
(-0.00620599 0.00307799 0.00146442)
(-0.000351485 6.06664e-05 2.05055e-05)
(-3.72584e-06 3.96656e-07 1.13305e-07)
(-1.49293e-08 1.28742e-09 3.22065e-10)
(-7.0324e-11 7.56335e-12 1.74708e-12)
(-6.5028e-13 6.09456e-14 1.34588e-14)
(-5.41517e-15 4.12222e-16 9.00312e-17)
(-1.06668e-16 6.55796e-18 1.43819e-18)
(-1.55796e-18 7.05459e-20 1.56766e-20)
(-9.04035e-21 2.37858e-22 5.35969e-23)
(-0.0212884 0.12823 -0.0209023)
(3.68022e-05 -0.160959 -0.103296)
(5.6874e-05 -0.369258 -0.197147)
(-0.00829384 -0.484811 -0.245015)
(-0.0985073 -0.457525 -0.400991)
(-0.35217 -0.116819 -0.725571)
(-0.351923 -0.565235 -0.798608)
(-0.0920415 -1.10119 -0.68219)
(-0.0330475 -1.39755 -0.721086)
(-0.0141627 -1.64585 -0.780108)
(-0.00762547 -1.8567 -0.856237)
(-0.00742715 -2.0329 -0.928135)
(-0.0186515 -2.14756 -0.980751)
(-0.0503345 -2.21392 -1.00254)
(-0.108541 -2.26263 -0.935884)
(-0.051604 -2.35212 -0.604594)
(0.245853 -2.31926 0.568995)
(-0.629308 -1.94579 1.17115)
(-2.68836 -1.01855 0.373836)
(-2.09324 -0.195928 1.33457)
(-0.126845 -2.00976 0.551082)
(0.254412 -2.08317 -0.524306)
(-0.391407 -2.17496 -0.570488)
(-0.990703 -2.23515 -0.429253)
(-0.304654 -2.3618 -0.686495)
(0.428267 -1.72144 -1.74242)
(0.3785 -1.77734 -1.70039)
(0.0989609 -2.25564 -0.986152)
(-1.2579 -2.17377 -0.537405)
(-2.20308 -1.71429 -0.33892)
(-0.716779 -2.15346 -0.127024)
(0.729399 -1.56155 -1.27895)
(1.14751 -1.21138 -1.2871)
(0.5677 -1.32596 -1.07524)
(-0.0794057 -1.31961 -0.784198)
(-0.000871731 -1.28785 -0.284793)
(0.113712 -1.03982 -0.285996)
(0.059806 -0.809396 -0.265885)
(0.0119065 -0.642572 -0.206015)
(0.00771051 -0.577097 -0.0479623)
(-0.348439 0.0907044 0.38841)
(-0.650274 0.131731 0.0171424)
(-0.658242 -0.0743581 -0.0304287)
(-0.397116 -0.349828 -0.0623791)
(-0.170677 -0.390957 -0.0376991)
(0.0887661 -0.325513 -0.122588)
(0.333305 -0.142385 -0.137694)
(0.374957 -0.00395195 -0.0255252)
(0.247669 0.00103464 -0.00150544)
(0.106219 6.70002e-05 6.88145e-05)
(-0.0158352 0.00195906 0.000997464)
(-0.000464636 4.99218e-05 1.82286e-05)
(-3.6862e-06 2.82641e-07 9.41293e-08)
(-1.27439e-08 7.56023e-10 2.38654e-10)
(-6.20414e-11 4.14661e-12 1.2809e-12)
(-5.23798e-13 2.82252e-14 8.5307e-15)
(-3.86504e-15 1.61586e-16 4.89924e-17)
(-6.75738e-17 2.18555e-18 6.72383e-19)
(-8.72471e-19 2.00441e-20 6.28554e-21)
(-4.47182e-21 5.74322e-23 1.82408e-23)
(-0.0391771 0.13613 0.0934405)
(-0.000879803 -0.236146 0.102461)
(-0.00242573 -0.412583 0.193262)
(-0.0115495 -0.483625 0.226649)
(-0.158049 -0.565787 0.296438)
(-0.866225 -0.639349 0.0763512)
(-0.366724 -0.729571 0.826956)
(-0.122742 -1.13834 0.836421)
(-0.0302875 -1.47697 0.822059)
(0.00151683 -1.73447 0.887393)
(0.00721998 -1.96521 0.952842)
(-0.00208852 -2.16579 0.966931)
(-0.0171716 -2.30356 0.938646)
(-0.0171549 -2.36486 0.935507)
(-0.00479959 -2.36868 0.964641)
(-0.0517775 -2.31105 1.03496)
(-0.656895 -2.26399 0.875033)
(-2.63821 -1.48521 -0.274989)
(-3.08248 -0.25441 -0.3095)
(-0.415603 -0.446812 1.93348)
(-0.239203 -1.5154 1.36669)
(-0.0667481 -1.84137 1.07408)
(0.143696 -1.95801 1.08076)
(-0.064939 -1.91719 1.30347)
(-1.31942 -1.67161 1.38958)
(-1.58827 -1.58554 1.38464)
(1.41996 -1.90971 1.02168)
(1.52823 -2.01778 0.560341)
(0.383155 -2.22606 0.482617)
(0.000725347 -1.61311 1.48289)
(-0.59721 -1.43815 1.47585)
(-1.07989 -1.19623 1.39716)
(-0.625324 -1.46788 1.00509)
(0.460748 -1.56366 -0.430279)
(0.923584 -1.30059 -0.174505)
(0.4138 -1.20562 0.174762)
(0.00576994 -0.99773 0.236924)
(-0.0219762 -0.804179 0.159623)
(0.0354542 -0.656138 0.0984275)
(0.0819902 -0.576088 -0.0544035)
(-0.204773 0.395018 -0.333005)
(-0.711827 0.218663 -0.101933)
(-0.76799 -0.108885 -0.0394643)
(-0.420193 -0.432526 0.0248738)
(-0.169336 -0.43577 0.0871476)
(0.0791699 -0.327946 0.187576)
(0.314077 -0.145634 0.176745)
(0.380732 -0.00307834 0.0298613)
(0.250054 0.00117844 0.00139439)
(0.106324 6.03176e-05 -6.89462e-05)
(-0.015706 0.00194932 -0.00128305)
(-0.000455386 4.93631e-05 -2.60842e-05)
(-3.5717e-06 2.80241e-07 -1.33712e-07)
(-1.23266e-08 7.53446e-10 -3.31785e-10)
(-6.04564e-11 4.16429e-12 -1.7461e-12)
(-5.12245e-13 2.84602e-14 -1.13452e-14)
(-3.79203e-15 1.6356e-16 -6.33867e-17)
(-6.64965e-17 2.22064e-18 -8.46295e-19)
(-8.6108e-19 2.04333e-20 -7.7329e-21)
(-4.42518e-21 5.87051e-23 -2.20689e-23)
(-0.000193745 -0.171484 0.0312127)
(-7.49754e-05 -0.220533 0.0389593)
(0.000129393 -0.508306 0.0973771)
(-4.96121e-05 -0.730317 0.14101)
(-0.000206645 -0.876306 0.167186)
(-0.00024342 -1.01542 0.191029)
(0.000881089 -1.14369 0.210718)
(0.000332478 -1.26069 0.2321)
(-0.000370395 -1.36561 0.253208)
(-0.000780682 -1.45708 0.271685)
(-0.00108818 -1.53454 0.286844)
(-0.00106157 -1.6067 0.29974)
(-0.000592243 -1.67273 0.310744)
(-7.20506e-05 -1.72952 0.320678)
(5.6833e-05 -1.78073 0.329954)
(-7.93294e-05 -1.81722 0.338846)
(-0.000820531 -1.81258 0.338209)
(-0.00276596 -1.75334 0.327278)
(-0.0180135 -1.67325 0.29886)
(-1.46892 0.853317 0.872807)
(-0.26921 1.15363 1.02345)
(-0.0150666 -1.23476 0.921353)
(-0.0085617 -1.54423 0.335943)
(-0.00506784 -1.61039 0.252774)
(-0.00403036 -1.6602 0.24346)
(-0.00279378 -1.67537 0.302406)
(-0.00179147 -1.66919 0.317986)
(-0.00147335 -1.64548 0.310678)
(-0.00131557 -1.60516 0.30319)
(-0.00118249 -1.55326 0.294224)
(-0.00165101 -1.48755 0.281471)
(-0.00261194 -1.39955 0.271648)
(-0.00301388 -1.30078 0.232546)
(-0.00124059 -1.17776 0.203024)
(0.00203204 -1.03529 0.169927)
(0.00445133 -0.885071 0.143844)
(0.00384803 -0.742047 0.12137)
(0.000766404 -0.618443 0.0968493)
(-0.00342374 -0.520815 0.0762239)
(-0.00325313 -0.459552 0.0606265)
(-0.0212665 -0.429458 0.065771)
(-0.270003 -0.358269 0.0679099)
(-0.443148 -0.19298 0.0263572)
(-0.224381 -0.306548 -0.000638531)
(-0.0638553 -0.303257 0.0334664)
(0.176027 -0.200094 0.147064)
(0.297735 0.000530486 0.163115)