/*--------------------------------*- C++ -*----------------------------------*\
| =========                 |                                                 |
| \\      /  F ield         | OpenFOAM: The Open Source CFD Toolbox           |
|  \\    /   O peration     | Version:  2.1.1                                 |
|   \\  /    A nd           | Web:      www.OpenFOAM.org                      |
|    \\/     M anipulation  |                                                 |
\*---------------------------------------------------------------------------*/
FoamFile
{
    version     2.0;
    format      ascii;
    class       volVectorField;
    location    "0.00105";
    object      fluctuation2;
}
// * * * * * * * * * * * * * * * * * * * * * * * * * * * * * * * * * * * * * //

dimensions      [0 1 -1 0 0 0 0];

internalField   nonuniform List<vector> 
36520
(
(0.251745 0.141467 0.159708)
(0.340336 0.198482 0.191539)
(0.428794 0.25386 0.247473)
(0.443264 0.269985 0.262616)
(0.467218 0.284282 0.278595)
(0.473562 0.28934 0.284621)
(0.48107 0.293414 0.289419)
(0.482456 0.294413 0.290808)
(0.480649 0.293133 0.289852)
(0.476178 0.290255 0.287282)
(0.468472 0.285502 0.282466)
(0.459907 0.280087 0.276911)
(0.449481 0.273568 0.26999)
(0.439106 0.266892 0.262846)
(0.427495 0.259516 0.254814)
(0.416358 0.25219 0.246965)
(0.404202 0.24425 0.238592)
(0.391839 0.236078 0.230204)
(0.378279 0.227248 0.221327)
(0.363844 0.217929 0.212183)
(0.34792 0.207865 0.202435)
(0.330918 0.19729 0.192255)
(0.312648 0.186123 0.181522)
(0.293638 0.174621 0.170458)
(0.27415 0.162913 0.159112)
(0.254772 0.151325 0.147798)
(0.235704 0.139971 0.136667)
(0.217309 0.129054 0.12593)
(0.199815 0.118705 0.115675)
(0.183473 0.109067 0.106047)
(0.16836 0.10018 0.0970878)
(0.154624 0.0921192 0.0888701)
(0.142295 0.0849096 0.0814131)
(0.131356 0.0785456 0.0747437)
(0.121684 0.0729728 0.0688383)
(0.11309 0.0680915 0.0636399)
(0.105299 0.0637549 0.0590522)
(0.0979528 0.0597617 0.0549304)
(0.090667 0.0558932 0.0511082)
(0.0830685 0.0519537 0.0474236)
(0.0748523 0.0477749 0.0437227)
(0.0659497 0.0432822 0.0399365)
(0.0558223 0.038087 0.035627)
(0.045581 0.0327275 0.0311303)
(0.03669 0.0278467 0.027022)
(0.028752 0.023371 0.022898)
(0.0198977 0.0187588 0.0178334)
(0.0118732 0.0149709 0.013394)
(0.010333 0.0133268 0.0119914)
(0.0103291 0.0122668 0.0113606)
(0.0105027 0.0115329 0.0110186)
(0.0104364 0.0110506 0.0107659)
(0.0106413 0.0108155 0.0107084)
(0.0105051 0.0106546 0.0106028)
(0.0107174 0.0106355 0.0106461)
(0.0105591 0.0105798 0.0105825)
(0.0107797 0.0106251 0.0106561)
(0.0106129 0.0105907 0.0105991)
(0.0108748 0.0106889 0.0107142)
(0.0113169 0.011218 0.0112293)
(0.190795 0.0976905 0.100541)
(0.175292 0.102259 0.0979016)
(0.189446 0.11281 0.109795)
(0.177314 0.108215 0.10537)
(0.171078 0.104432 0.102358)
(0.161547 0.099017 0.0973312)
(0.157281 0.096323 0.0948182)
(0.15172 0.0930919 0.0916321)
(0.146914 0.090148 0.0887385)
(0.141758 0.0870349 0.0855811)
(0.137473 0.0844412 0.0828616)
(0.134274 0.0824519 0.0807228)
(0.132029 0.0810232 0.0790659)
(0.130745 0.0801079 0.0779567)
(0.12988 0.0794572 0.0770469)
(0.129017 0.0787148 0.0761436)
(0.127275 0.0774655 0.0747651)
(0.124602 0.0756329 0.0728947)
(0.120547 0.073025 0.070301)
(0.115125 0.0696421 0.0670111)
(0.108304 0.0655036 0.0630048)
(0.100598 0.060901 0.0585565)
(0.0921912 0.0559456 0.0537696)
(0.083713 0.0509769 0.0489669)
(0.0758445 0.0463874 0.0445108)
(0.0689489 0.0423877 0.0406077)
(0.0629179 0.038912 0.0372067)
(0.0577688 0.0359651 0.0343151)
(0.0537307 0.0336721 0.0320399)
(0.0507798 0.0320068 0.0303616)
(0.0488053 0.0308966 0.0292156)
(0.0477251 0.0302891 0.0285472)
(0.0474186 0.030118 0.0282897)
(0.0476392 0.0302506 0.0283238)
(0.0481873 0.0305861 0.0285639)
(0.0489375 0.0310559 0.0289738)
(0.0498002 0.0316061 0.0295502)
(0.0507705 0.0322108 0.0303357)
(0.0519452 0.0328824 0.0314106)
(0.0534953 0.0336704 0.0328786)
(0.0556117 0.0346348 0.0348238)
(0.0584064 0.0358011 0.0372581)
(0.06106 0.0366652 0.03959)
(0.0635355 0.0373511 0.0415554)
(0.0651962 0.0376157 0.042515)
(0.0601159 0.03439 0.039163)
(0.0440779 0.0255197 0.0289636)
(0.0174507 0.0106371 0.0118548)
(0.00460508 0.00427231 0.00478406)
(0.00420107 0.00427796 0.00462985)
(0.00449564 0.00447147 0.00472006)
(0.00461605 0.00459336 0.00475763)
(0.00474962 0.00467431 0.00479345)
(0.00474454 0.00471334 0.00479033)
(0.0048207 0.00474774 0.00480793)
(0.0047696 0.00475377 0.00479145)
(0.00484074 0.00477542 0.00480892)
(0.00477735 0.00477425 0.00479529)
(0.005172 0.00510814 0.00513006)
(0.00920409 0.00918901 0.00921847)
(0.124018 0.0611038 0.0619753)
(0.0846961 0.0492932 0.0470774)
(0.0824313 0.0490879 0.047764)
(0.0704242 0.0430879 0.041878)
(0.0630357 0.0386482 0.0377194)
(0.0561531 0.0345824 0.0337881)
(0.0527411 0.0325247 0.0317313)
(0.0496136 0.0307016 0.0299128)
(0.0471056 0.0292233 0.0284106)
(0.0450496 0.0280368 0.0271755)
(0.0436358 0.0272406 0.0263227)
(0.0430002 0.0269025 0.0259168)
(0.0430675 0.0269704 0.0259184)
(0.0434741 0.0272339 0.0261199)
(0.0442957 0.0277387 0.0265549)
(0.0449913 0.0281455 0.0269253)
(0.0452856 0.0283243 0.0270948)
(0.0450426 0.0281888 0.0269912)
(0.0441885 0.0277237 0.0265922)
(0.0427187 0.0269321 0.0259151)
(0.0407903 0.0259234 0.0250594)
(0.038776 0.0249081 0.0242257)
(0.0369013 0.024009 0.0235405)
(0.0355329 0.0234112 0.0231786)
(0.0349351 0.0232428 0.0232333)
(0.0350927 0.0234824 0.0236608)
(0.0358021 0.0240106 0.0243487)
(0.0369267 0.0247486 0.0252278)
(0.0383967 0.0256542 0.0262338)
(0.0401221 0.0266722 0.0273131)
(0.0420583 0.0277799 0.0284491)
(0.0442349 0.0289953 0.0296673)
(0.0467207 0.0303638 0.0310138)
(0.0496297 0.0319606 0.0325762)
(0.053127 0.0338837 0.034463)
(0.0573716 0.0362183 0.0367826)
(0.0625498 0.0390522 0.0396688)
(0.0688238 0.0424528 0.0432553)
(0.0763569 0.0464605 0.0476478)
(0.0852656 0.0510817 0.0528795)
(0.0954978 0.0562521 0.0588964)
(0.106641 0.0616967 0.0654398)
(0.117423 0.06675 0.0717441)
(0.124736 0.0697233 0.0758435)
(0.127167 0.07005 0.0766366)
(0.117022 0.0642466 0.0703819)
(0.0890504 0.0498169 0.0543843)
(0.0415502 0.0240281 0.0258778)
(0.00782646 0.00465554 0.00502476)
(0.00190909 0.00166215 0.00181324)
(0.0016055 0.00156997 0.00166645)
(0.00160219 0.0015789 0.00164019)
(0.00161026 0.00157724 0.00161898)
(0.00158834 0.00157263 0.00159927)
(0.00159375 0.00156754 0.00158724)
(0.00156678 0.00156002 0.00157243)
(0.00157987 0.00155846 0.0015688)
(0.00157899 0.00157785 0.00158461)
(0.00244728 0.00242115 0.00243036)
(0.00843305 0.00842105 0.00844496)
(0.0824041 0.0395813 0.0412719)
(0.0438453 0.0254542 0.0245038)
(0.0379427 0.0226195 0.0219789)
(0.029829 0.0184121 0.0178138)
(0.0254665 0.0158759 0.0153633)
(0.0222624 0.014085 0.013617)
(0.0210179 0.0134733 0.0129966)
(0.0202079 0.0131593 0.0127084)
(0.0199325 0.0131827 0.0127414)
(0.0200751 0.0134672 0.0130561)
(0.0206071 0.0139876 0.0136176)
(0.0215441 0.0147328 0.0144066)
(0.0228149 0.0156504 0.015381)
(0.0242697 0.0166706 0.0164542)
(0.0259479 0.0177998 0.0176366)
(0.0277276 0.0189804 0.0188784)
(0.0295568 0.0201916 0.0201743)
(0.031489 0.0214734 0.0215648)
(0.0335545 0.0228454 0.0230819)
(0.0358565 0.0243757 0.0248087)
(0.0384773 0.0261142 0.0267942)
(0.0415031 0.0280984 0.0290546)
(0.0449118 0.0303072 0.0315839)
(0.0486539 0.0326915 0.0343419)
(0.0525677 0.0351359 0.0371834)
(0.0565478 0.0375754 0.0400078)
(0.0605325 0.0399839 0.0427711)
(0.0645127 0.0423574 0.0454964)
(0.0682779 0.0445648 0.048006)
(0.0716766 0.0464831 0.0501442)
(0.0747417 0.0481122 0.051947)
(0.0777042 0.0496 0.0536055)
(0.0808341 0.0511162 0.0552828)
(0.0844898 0.0528778 0.0571874)
(0.0890601 0.0551188 0.0595439)
(0.0949135 0.0580542 0.0625749)
(0.102594 0.0619805 0.0666341)
(0.112589 0.067134 0.0720481)
(0.125303 0.0736372 0.0790647)
(0.141018 0.0815632 0.0877967)
(0.159828 0.0908282 0.0981015)
(0.181332 0.101188 0.109517)
(0.20287 0.111377 0.120486)
(0.21645 0.117189 0.126419)
(0.214476 0.114476 0.123051)
(0.193873 0.1031 0.110188)
(0.15026 0.0813738 0.08629)
(0.0802399 0.0455337 0.0477912)
(0.0186468 0.0106844 0.011255)
(0.00326762 0.00190221 0.00200677)
(0.000706 0.000581553 0.000617918)
(0.00050432 0.000489318 0.000509638)
(0.000468716 0.000456456 0.000468988)
(0.00044401 0.000437982 0.00044576)
(0.000431671 0.000423902 0.000429371)
(0.000418011 0.00041572 0.000419218)
(0.000417654 0.000411872 0.00041473)
(0.000502846 0.000501727 0.000504035)
(0.00192458 0.00190552 0.00191357)
(0.00830413 0.00829105 0.00831803)
(0.0550754 0.0260628 0.0285597)
(0.0242755 0.014269 0.0138303)
(0.0193061 0.0119319 0.0115525)
(0.0151874 0.0100782 0.0097149)
(0.0141421 0.00978364 0.00944027)
(0.0142507 0.0101614 0.00984932)
(0.0154052 0.0111508 0.0108487)
(0.0169568 0.0123839 0.0121238)
(0.018934 0.0138759 0.013664)
(0.0212144 0.0155559 0.0154063)
(0.0238145 0.0174296 0.0173704)
(0.0266673 0.0194383 0.0194863)
(0.0297825 0.0215588 0.021759)
(0.03319 0.0238501 0.024228)
(0.036901 0.0262949 0.0268688)
(0.041041 0.0289844 0.0297595)
(0.0457112 0.0319968 0.0330359)
(0.0511366 0.0354815 0.0368346)
(0.0574185 0.0395024 0.041236)
(0.0648178 0.0442313 0.0464376)
(0.0734744 0.0497806 0.0525793)
(0.0834666 0.0561926 0.0596809)
(0.0947829 0.063457 0.0677238)
(0.107198 0.0714098 0.0766471)
(0.12015 0.0796653 0.0860097)
(0.133436 0.0880782 0.0955196)
(0.147392 0.0968942 0.105261)
(0.162363 0.106391 0.11566)
(0.176627 0.115472 0.125523)
(0.189268 0.12344 0.133971)
(0.193615 0.125759 0.136379)
(0.190032 0.1227 0.133142)
(0.18118 0.11598 0.126151)
(0.172371 0.109032 0.119097)
(0.169215 0.105647 0.115887)
(0.173165 0.106925 0.117339)
(0.180518 0.11016 0.120723)
(0.192298 0.116029 0.126643)
(0.209416 0.12496 0.135687)
(0.232655 0.137222 0.148263)
(0.262376 0.152517 0.164264)
(0.299028 0.170964 0.183424)
(0.337264 0.189471 0.202014)
(0.352049 0.193811 0.205635)
(0.332072 0.178361 0.188904)
(0.291528 0.15364 0.161934)
(0.228467 0.12117 0.126118)
(0.132697 0.0734343 0.0755915)
(0.0388729 0.0220303 0.0228188)
(0.00801171 0.00451415 0.00468654)
(0.00136595 0.00078224 0.000814268)
(0.000261316 0.000197634 0.000206343)
(0.000143858 0.00013756 0.000141611)
(0.00012369 0.000121258 0.000123528)
(0.000112242 0.000109939 0.000111349)
(0.000105437 0.000104664 0.000105536)
(0.000109346 0.000107819 0.000108528)
(0.000312256 0.000310743 0.000312052)
(0.00188434 0.00186505 0.00187251)
(0.00829111 0.00827494 0.00829993)
(0.0430713 0.0206168 0.0238119)
(0.0168616 0.011281 0.0111165)
(0.0168418 0.0123818 0.0120269)
(0.018806 0.0144227 0.0140192)
(0.0219677 0.01687 0.0164787)
(0.0250116 0.0191493 0.0187772)
(0.0282636 0.021522 0.0211866)
(0.0319166 0.0241718 0.0239304)
(0.0360129 0.0271373 0.0270457)
(0.0406999 0.030538 0.0306523)
(0.0461441 0.034468 0.0348409)
(0.0522335 0.0388189 0.0395088)
(0.0583278 0.0430958 0.0442006)
(0.0654773 0.0480462 0.0496562)
(0.0736362 0.0536329 0.0557313)
(0.083268 0.0601459 0.0626982)
(0.0949914 0.0680547 0.0711211)
(0.109315 0.077664 0.0813004)
(0.12683 0.0893764 0.093654)
(0.148542 0.103839 0.10893)
(0.175189 0.121571 0.127693)
(0.207146 0.142842 0.149997)
(0.246063 0.168737 0.17669)
(0.292706 0.199622 0.208557)
(0.344027 0.233333 0.243865)
(0.396203 0.267344 0.280144)
(0.451143 0.302982 0.318051)
(0.514922 0.343813 0.360977)
(0.566339 0.375873 0.394901)
(0.588233 0.38848 0.40853)
(0.583208 0.384085 0.403996)
(0.5551 0.365267 0.384168)
(0.507182 0.333956 0.350565)
(0.450105 0.296837 0.310209)
(0.400197 0.263891 0.274223)
(0.36909 0.24271 0.251176)
(0.359705 0.235334 0.243666)
(0.361748 0.234387 0.243786)
(0.375657 0.240344 0.251355)
(0.402072 0.253668 0.265992)
(0.437841 0.271402 0.285747)
(0.482042 0.292085 0.308074)
(0.520875 0.308133 0.324015)
(0.517413 0.298348 0.313854)
(0.467536 0.260645 0.275207)
(0.400997 0.215106 0.225823)
(0.319647 0.168678 0.173415)
(0.197493 0.10664 0.10835)
(0.0715409 0.0398947 0.0407339)
(0.0177171 0.00990565 0.010166)
(0.00366072 0.00204828 0.00210719)
(0.00059113 0.000334097 0.000344373)
(9.243e-05 6.63991e-05 6.81221e-05)
(4.99581e-05 4.85601e-05 4.92468e-05)
(4.78728e-05 4.68902e-05 4.73809e-05)
(4.66527e-05 4.6285e-05 4.66076e-05)
(6.04e-05 5.96023e-05 5.99542e-05)
(0.000299452 0.00029775 0.000298991)
(0.00188267 0.00186267 0.00187021)
(0.00829296 0.0082739 0.00829939)
(0.048343 0.0279588 0.0311886)
(0.0348965 0.0259119 0.0256155)
(0.0487936 0.0370022 0.0360174)
(0.062356 0.0475829 0.0463355)
(0.0751829 0.0570183 0.0557093)
(0.0843882 0.0636919 0.0622112)
(0.0925631 0.069483 0.0680012)
(0.101699 0.0759595 0.0746086)
(0.111444 0.0828939 0.0816786)
(0.122639 0.0909608 0.0898165)
(0.135793 0.100563 0.099557)
(0.150774 0.111417 0.110706)
(0.165757 0.122281 0.122098)
(0.191074 0.140298 0.140905)
(0.212029 0.154894 0.156479)
(0.223355 0.162247 0.164927)
(0.247601 0.178456 0.182379)
(0.283497 0.20278 0.208216)
(0.327032 0.232277 0.239276)
(0.381239 0.268857 0.27762)
(0.449193 0.314296 0.325547)
(0.52508 0.365145 0.379277)
(0.611846 0.424107 0.440603)
(0.720334 0.498649 0.516562)
(0.841318 0.581649 0.598608)
(0.936725 0.644783 0.659638)
(1.00214 0.687034 0.701112)
(1.05633 0.719911 0.733816)
(1.10154 0.744559 0.75914)
(1.12834 0.755828 0.772118)
(1.13075 0.751779 0.770435)
(1.10293 0.730084 0.751544)
(1.03757 0.686568 0.709833)
(0.938692 0.623897 0.647129)
(0.821653 0.550611 0.572489)
(0.705562 0.477638 0.496926)
(0.610564 0.416676 0.431727)
(0.55913 0.382939 0.392214)
(0.544079 0.372447 0.375234)
(0.54872 0.374012 0.372242)
(0.567834 0.382349 0.380726)
(0.59714 0.39354 0.395191)
(0.616908 0.396402 0.400821)
(0.596343 0.371336 0.378948)
(0.539462 0.32201 0.331986)
(0.470411 0.266125 0.275054)
(0.398572 0.214458 0.219282)
(0.27384 0.146296 0.148103)
(0.119461 0.0653641 0.0661391)
(0.0353098 0.0195437 0.0198623)
(0.00812133 0.00451122 0.00459939)
(0.00144389 0.000804625 0.000822395)
(0.000207629 0.00012084 0.000123611)
(4.90068e-05 4.42329e-05 4.47643e-05)
(4.35521e-05 4.25575e-05 4.29459e-05)
(4.29877e-05 4.25881e-05 4.28623e-05)
(5.78684e-05 5.7058e-05 5.73842e-05)
(0.00029873 0.000296801 0.000298062)
(0.00188227 0.00186116 0.00186891)
(0.00829473 0.00827122 0.00829798)
(0.122121 0.0998902 0.104542)
(0.108064 0.0814048 0.0806888)
(0.164388 0.123212 0.11834)
(0.218056 0.16348 0.157136)
(0.283739 0.211067 0.203136)
(0.331946 0.244907 0.236166)
(0.373677 0.273258 0.263874)
(0.421896 0.305139 0.295001)
(0.467084 0.334611 0.325263)
(0.514723 0.365796 0.35707)
(0.566991 0.401216 0.392254)
(0.638514 0.451322 0.441762)
(0.690752 0.489357 0.47929)
(0.719894 0.512186 0.502568)
(0.741377 0.529178 0.5217)
(0.751296 0.540178 0.534494)
(0.798995 0.577688 0.571914)
(0.876884 0.632862 0.626442)
(0.96124 0.690395 0.683457)
(1.06382 0.760302 0.753218)
(1.19413 0.847201 0.839426)
(1.328 0.934224 0.925568)
(1.44279 1.00765 0.999567)
(1.53803 1.06674 1.06152)
(1.61378 1.11129 1.1093)
(1.66003 1.13653 1.13445)
(1.67402 1.14163 1.13725)
(1.66851 1.134 1.12737)
(1.65412 1.11942 1.11064)
(1.63019 1.09784 1.08691)
(1.59312 1.06769 1.05513)
(1.54291 1.02998 1.01722)
(1.47605 0.983923 0.973863)
(1.38831 0.927365 0.921515)
(1.28158 0.861328 0.858475)
(1.15912 0.787513 0.785886)
(1.02738 0.708484 0.706588)
(0.896557 0.628215 0.623629)
(0.792621 0.562333 0.552263)
(0.73012 0.521302 0.507556)
(0.687498 0.491944 0.479723)
(0.649151 0.462557 0.452705)
(0.613163 0.428021 0.419146)
(0.571839 0.385723 0.377835)
(0.518899 0.334448 0.328657)
(0.464555 0.28102 0.279071)
(0.413322 0.231977 0.234805)
(0.316236 0.170496 0.173742)
(0.167284 0.0904654 0.0916951)
(0.0576846 0.0315295 0.0319738)
(0.0148568 0.00817236 0.00830192)
(0.00293289 0.00161996 0.00164896)
(0.000455756 0.000254758 0.000259721)
(7.07799e-05 5.23561e-05 5.3023e-05)
(4.38304e-05 4.25354e-05 4.28465e-05)
(4.29517e-05 4.24849e-05 4.27125e-05)
(5.77921e-05 5.69339e-05 5.72124e-05)
(0.000298381 0.000296266 0.000297398)
(0.00188175 0.00185974 0.00186675)
(0.00829583 0.00826913 0.00829379)
(0.221256 0.187325 0.144505)
(0.243852 0.157417 0.158115)
(0.387838 0.261852 0.262286)
(0.543381 0.374769 0.37186)
(0.668515 0.462624 0.458778)
(0.808483 0.560916 0.554313)
(0.918511 0.638352 0.633421)
(1.07581 0.743598 0.734492)
(1.21118 0.832909 0.82069)
(1.32852 0.909329 0.895966)
(1.45822 0.991193 0.976257)
(1.58152 1.06993 1.05245)
(1.64784 1.11461 1.09537)
(1.67667 1.13496 1.11491)
(1.68375 1.14359 1.1215)
(1.64749 1.13111 1.11154)
(1.60044 1.1146 1.09962)
(1.58014 1.11291 1.09945)
(1.5841 1.1235 1.10703)
(1.59233 1.13568 1.11386)
(1.60452 1.14852 1.12207)
(1.62547 1.16287 1.13283)
(1.64741 1.17469 1.14139)
(1.66541 1.18191 1.14443)
(1.67773 1.18374 1.14202)
(1.68253 1.17952 1.13566)
(1.6746 1.16677 1.12231)
(1.65162 1.14469 1.10034)
(1.61745 1.11603 1.07223)
(1.57616 1.08324 1.03976)
(1.52876 1.04603 1.00242)
(1.47326 1.00345 0.958882)
(1.40496 0.95407 0.909864)
(1.32756 0.901801 0.861001)
(1.25355 0.854717 0.818064)
(1.18727 0.814805 0.779996)
(1.12452 0.779896 0.745399)
(1.05453 0.743288 0.708427)
(0.961868 0.692603 0.658191)
(0.855921 0.629103 0.597948)
(0.763232 0.565525 0.540025)
(0.686888 0.503269 0.484543)
(0.611854 0.437807 0.424399)
(0.538724 0.373489 0.363169)
(0.476641 0.316138 0.308933)
(0.430471 0.267316 0.265733)
(0.397794 0.227264 0.233264)
(0.326838 0.175769 0.184711)
(0.19833 0.106176 0.110405)
(0.0819165 0.0441863 0.0455989)
(0.0244044 0.0132493 0.0136363)
(0.00541958 0.00295543 0.00304085)
(0.000924976 0.000507341 0.000522173)
(0.000131061 7.98691e-05 8.17505e-05)
(4.54921e-05 4.30204e-05 4.33189e-05)
(4.29949e-05 4.24662e-05 4.26625e-05)
(5.77775e-05 5.68743e-05 5.71235e-05)
(0.000298144 0.000295883 0.000296876)
(0.00188104 0.00185814 0.00186445)
(0.00829362 0.00826473 0.00828576)
(0.221463 0.18771 0.155048)
(0.25425 0.155347 0.165947)
(0.413503 0.280364 0.287188)
(0.55631 0.39069 0.394017)
(0.686092 0.486858 0.494201)
(0.781105 0.557009 0.56063)
(0.856958 0.613952 0.613197)
(0.934951 0.669343 0.665363)
(1.02124 0.725881 0.718063)
(1.11499 0.783381 0.771631)
(1.21148 0.841276 0.827546)
(1.3088 0.900715 0.885718)
(1.40199 0.958632 0.941255)
(1.4865 1.01208 0.991326)
(1.55701 1.05744 1.03197)
(1.5955 1.08737 1.05665)
(1.61981 1.11855 1.08372)
(1.62291 1.14198 1.10654)
(1.5971 1.14604 1.1114)
(1.56008 1.13752 1.10054)
(1.53378 1.12907 1.0878)
(1.52444 1.12572 1.08155)
(1.53308 1.1306 1.08497)
(1.55367 1.14033 1.09205)
(1.57901 1.14974 1.0983)
(1.59585 1.15187 1.09967)
(1.59364 1.14106 1.09104)
(1.57173 1.11751 1.07128)
(1.53036 1.08233 1.04049)
(1.47463 1.03881 1.00118)
(1.41136 0.990114 0.957001)
(1.34107 0.935917 0.907455)
(1.26856 0.880415 0.854222)
(1.19426 0.824818 0.7986)
(1.10376 0.762147 0.73561)
(0.983831 0.686569 0.6604)
(0.847503 0.607149 0.58207)
(0.717666 0.537196 0.513039)
(0.623586 0.488533 0.462635)
(0.558138 0.448917 0.418391)
(0.502787 0.404039 0.371411)
(0.460878 0.356831 0.328412)
(0.432712 0.314802 0.295947)
(0.408829 0.280259 0.271429)
(0.388801 0.252195 0.250017)
(0.379317 0.230355 0.233303)
(0.37398 0.211774 0.219335)
(0.320628 0.173082 0.181504)
(0.20023 0.108126 0.111396)
(0.0855354 0.0465618 0.0472962)
(0.0263287 0.0144254 0.0145673)
(0.00600001 0.00330207 0.00332892)
(0.00104117 0.000575989 0.00058065)
(0.000146916 8.83943e-05 8.90777e-05)
(4.60196e-05 4.31778e-05 4.34208e-05)
(4.29713e-05 4.24407e-05 4.26129e-05)
(5.77644e-05 5.68596e-05 5.7105e-05)
(0.000298204 0.00029598 0.000296927)
(0.001881 0.00185824 0.00186466)
(0.0082918 0.00826448 0.00828485)
(0.196005 0.155315 0.140706)
(0.235121 0.138144 0.159218)
(0.559994 0.394266 0.425687)
(0.884016 0.62483 0.637408)
(1.08661 0.771931 0.766257)
(1.24213 0.890707 0.867597)
(1.35018 0.977566 0.942544)
(1.4669 1.06059 1.02197)
(1.60347 1.14756 1.10879)
(1.7539 1.23776 1.20164)
(1.91756 1.33476 1.3054)
(2.09187 1.43933 1.41744)
(2.25286 1.5362 1.51919)
(2.40289 1.62607 1.60721)
(2.5492 1.71131 1.68719)
(2.68694 1.79513 1.75848)
(2.75525 1.85289 1.80148)
(2.71408 1.86554 1.8037)
(2.62319 1.8555 1.78513)
(2.54714 1.84471 1.76597)
(2.5129 1.84736 1.76117)
(2.52779 1.86856 1.7818)
(2.58103 1.90346 1.82214)
(2.65059 1.93973 1.86556)
(2.71515 1.96495 1.89792)
(2.75762 1.97282 1.91169)
(2.76289 1.95723 1.90075)
(2.72904 1.91759 1.86542)
(2.66345 1.85953 1.81181)
(2.56965 1.78537 1.74368)
(2.45185 1.69572 1.66286)
(2.31287 1.59086 1.56628)
(2.15687 1.47196 1.44833)
(1.98716 1.34094 1.30771)
(1.78644 1.19753 1.14985)
(1.50945 1.02369 0.967807)
(1.19901 0.843216 0.785943)
(0.928148 0.694078 0.63717)
(0.72371 0.580684 0.524541)
(0.602132 0.501458 0.44812)
(0.541782 0.445698 0.398553)
(0.505564 0.396947 0.363988)
(0.474087 0.35153 0.334232)
(0.44453 0.315649 0.30888)
(0.416386 0.284954 0.283692)
(0.396178 0.257323 0.258636)
(0.383419 0.232979 0.234233)
(0.335749 0.193413 0.19254)
(0.219922 0.123404 0.122197)
(0.0968632 0.0540932 0.0534105)
(0.0301108 0.0168347 0.0166217)
(0.00686984 0.00384769 0.00380508)
(0.0011871 0.00066694 0.000660992)
(0.000164635 9.86679e-05 9.81582e-05)
(4.65915e-05 4.33808e-05 4.35498e-05)
(4.29299e-05 4.24138e-05 4.2554e-05)
(5.77224e-05 5.68392e-05 5.70604e-05)
(0.000298137 0.000296003 0.000296875)
(0.00188011 0.00185797 0.00186405)
(0.00828623 0.00826065 0.0082807)
(0.194714 0.130369 0.181415)
(0.258933 0.179939 0.231132)
(0.563597 0.413662 0.437505)
(0.772473 0.548824 0.523194)
(0.866488 0.631683 0.590667)
(1.13486 0.829876 0.772979)
(1.43839 1.05151 0.991296)
(1.82438 1.31547 1.25348)
(2.2269 1.58614 1.52594)
(2.59465 1.83107 1.78041)
(2.93353 2.05061 2.01743)
(3.23375 2.23707 2.22402)
(3.44416 2.36014 2.36514)
(3.57155 2.42721 2.44769)
(3.62624 2.44501 2.47817)
(3.61879 2.42718 2.45824)
(3.54741 2.39435 2.39268)
(3.37227 2.32906 2.26772)
(3.09541 2.20541 2.08929)
(2.88224 2.10387 1.96)
(2.84323 2.09816 1.94493)
(2.93819 2.16647 2.01309)
(3.12058 2.27711 2.12751)
(3.32136 2.39012 2.24887)
(3.48943 2.47972 2.35246)
(3.58582 2.5255 2.41378)
(3.60343 2.52188 2.42359)
(3.55981 2.47775 2.38874)
(3.47456 2.40714 2.3259)
(3.35996 2.31731 2.24731)
(3.22839 2.21273 2.15956)
(3.07181 2.09148 2.05829)
(2.86443 1.93981 1.91979)
(2.60362 1.75691 1.73782)
(2.27447 1.54517 1.51092)
(1.90009 1.32202 1.26137)
(1.50286 1.08847 1.00099)
(1.13113 0.865182 0.761334)
(0.847649 0.686763 0.584306)
(0.698364 0.579913 0.492076)
(0.662576 0.531519 0.466212)
(0.673621 0.509787 0.469809)
(0.667354 0.491625 0.467171)
(0.630179 0.458181 0.441773)
(0.577864 0.411193 0.402607)
(0.515337 0.353359 0.351364)
(0.453131 0.291788 0.29301)
(0.377437 0.228062 0.225602)
(0.24769 0.14431 0.140143)
(0.106264 0.0614486 0.0592747)
(0.0307275 0.0177637 0.0171271)
(0.00651554 0.00376827 0.00364139)
(0.00105471 0.000611261 0.00059254)
(0.000139865 8.7718e-05 8.58192e-05)
(4.5386e-05 4.30598e-05 4.31175e-05)
(4.28534e-05 4.24232e-05 4.24897e-05)
(5.7657e-05 5.68566e-05 5.70062e-05)
(0.000298055 0.00029626 0.00029678)
(0.00187868 0.00185861 0.00186286)
(0.00827817 0.0082595 0.00827151)
(0.238762 0.153759 0.223649)
(0.360268 0.24966 0.315875)
(0.618321 0.453079 0.467838)
(0.747408 0.537542 0.519885)
(0.89152 0.656188 0.627782)
(1.23462 0.911399 0.87003)
(1.58329 1.16208 1.11532)
(1.98026 1.43344 1.38445)
(2.37772 1.70212 1.65488)
(2.75782 1.95665 1.91759)
(3.11466 2.18822 2.16668)
(3.41592 2.3721 2.3708)
(3.62027 2.48548 2.50012)
(3.73746 2.53994 2.565)
(3.78969 2.55308 2.58613)
(3.77181 2.5272 2.5605)
(3.66164 2.46714 2.47144)
(3.43365 2.36348 2.31161)
(3.1384 2.22717 2.12353)
(2.92904 2.12848 1.99921)
(2.87192 2.11182 1.97674)
(2.948 2.16861 2.03552)
(3.12039 2.27259 2.13816)
(3.29266 2.36615 2.22551)
(3.40513 2.41839 2.27812)
(3.44767 2.42991 2.30148)
(3.42892 2.40563 2.29458)
(3.37183 2.35667 2.26025)
(3.30237 2.29743 2.21079)
(3.22176 2.22785 2.15004)
(3.11289 2.13454 2.06819)
(2.94903 2.00828 1.95436)
(2.708 1.84353 1.79759)
(2.41741 1.65529 1.61196)
(2.1068 1.46106 1.40781)
(1.76941 1.25477 1.17633)
(1.40568 1.032 0.927456)
(1.07243 0.825624 0.708118)
(0.822646 0.66737 0.554819)
(0.70349 0.583712 0.49071)
(0.710752 0.569713 0.50424)
(0.780514 0.595965 0.555842)
(0.783639 0.585437 0.56097)
(0.72336 0.532299 0.517771)
(0.642618 0.460903 0.455233)
(0.553628 0.381412 0.382679)
(0.471463 0.304829 0.30863)
(0.383976 0.233349 0.231397)
(0.250075 0.146323 0.142465)
(0.106364 0.0617106 0.0596675)
(0.0306256 0.017752 0.0171452)
(0.00647993 0.003756 0.00363401)
(0.00104795 0.000608513 0.000590402)
(0.00013901 8.73707e-05 8.55237e-05)
(4.53488e-05 4.30427e-05 4.30992e-05)
(4.28425e-05 4.24126e-05 4.24772e-05)
(5.76427e-05 5.68398e-05 5.69942e-05)
(0.000297983 0.000296169 0.000296718)
(0.00187821 0.00185801 0.00186258)
(0.00827624 0.00825699 0.00826994)
(0.22783 0.174528 0.167861)
(0.369297 0.22338 0.244813)
(0.739461 0.51677 0.54023)
(1.06126 0.743362 0.756036)
(1.25559 0.891993 0.895402)
(1.44349 1.03355 1.02441)
(1.61956 1.16383 1.13768)
(1.78747 1.28317 1.24554)
(1.94036 1.39026 1.35068)
(2.08135 1.48343 1.448)
(2.21152 1.56218 1.5317)
(2.34311 1.6354 1.60706)
(2.47137 1.70234 1.67325)
(2.58751 1.76014 1.72678)
(2.69406 1.81244 1.77169)
(2.76681 1.85023 1.80181)
(2.74514 1.84577 1.79165)
(2.60654 1.78567 1.72783)
(2.42409 1.7018 1.6402)
(2.27943 1.63363 1.56479)
(2.18572 1.58843 1.51379)
(2.14467 1.56864 1.49418)
(2.16699 1.58396 1.50987)
(2.24678 1.63219 1.5521)
(2.33506 1.67994 1.59268)
(2.39264 1.70542 1.61801)
(2.40559 1.70225 1.62124)
(2.38428 1.67725 1.60367)
(2.33758 1.63606 1.56735)
(2.27368 1.58334 1.51679)
(2.19373 1.51638 1.45041)
(2.0901 1.42833 1.36017)
(1.95603 1.32374 1.25407)
(1.7688 1.19732 1.12781)
(1.53467 1.05116 0.981589)
(1.28161 0.898777 0.826976)
(1.03737 0.754183 0.679469)
(0.82407 0.628107 0.554279)
(0.658654 0.52805 0.462314)
(0.564375 0.464547 0.41494)
(0.53885 0.435612 0.404099)
(0.539022 0.421965 0.404414)
(0.511643 0.389807 0.383022)
(0.471209 0.348609 0.347967)
(0.435859 0.308401 0.310425)
(0.413338 0.273499 0.276259)
(0.398716 0.244588 0.245241)
(0.339803 0.197281 0.194687)
(0.21218 0.119496 0.118185)
(0.090769 0.0507922 0.050215)
(0.0277763 0.0155442 0.0153724)
(0.00628469 0.003521 0.00348783)
(0.00108035 0.000607049 0.000602621)
(0.000150286 9.11311e-05 9.07961e-05)
(4.60156e-05 4.32107e-05 4.33793e-05)
(4.29217e-05 4.24345e-05 4.25685e-05)
(5.77015e-05 5.68531e-05 5.70706e-05)
(0.00029809 0.000296097 0.000296939)
(0.00187938 0.00185823 0.00186423)
(0.00828337 0.00826102 0.00828004)
(0.236074 0.207374 0.167336)
(0.421645 0.268965 0.262725)
(0.699028 0.473018 0.452443)
(0.920683 0.630642 0.625708)
(1.15955 0.796348 0.812494)
(1.47547 1.01456 1.02472)
(1.59814 1.10227 1.10647)
(1.7068 1.1771 1.17687)
(1.80441 1.24393 1.2399)
(1.8893 1.30057 1.28998)
(1.97783 1.35524 1.33532)
(2.04956 1.39791 1.37076)
(2.09429 1.42476 1.39481)
(2.11049 1.4355 1.4054)
(2.12022 1.44261 1.4113)
(2.11146 1.43944 1.40378)
(2.06147 1.41308 1.3725)
(1.9772 1.366 1.32063)
(1.89238 1.31684 1.26386)
(1.83537 1.28259 1.21951)
(1.81298 1.26728 1.1948)
(1.80874 1.26394 1.18523)
(1.79441 1.25716 1.17628)
(1.76935 1.24599 1.16762)
(1.76163 1.24367 1.17087)
(1.75683 1.23679 1.16858)
(1.73567 1.21564 1.14954)
(1.6991 1.18399 1.11879)
(1.65126 1.14595 1.08277)
(1.59204 1.10044 1.04141)
(1.51378 1.04304 0.98892)
(1.41327 0.973394 0.922874)
(1.29382 0.894256 0.845246)
(1.15945 0.807175 0.757552)
(1.01784 0.717532 0.664922)
(0.873799 0.629376 0.573013)
(0.732783 0.545525 0.487761)
(0.605442 0.469993 0.415392)
(0.504961 0.407324 0.360939)
(0.43931 0.359142 0.325037)
(0.407522 0.325282 0.303527)
(0.397581 0.303265 0.291226)
(0.388091 0.282799 0.277939)
(0.377784 0.262568 0.262768)
(0.370896 0.244021 0.247051)
(0.370504 0.228308 0.231588)
(0.367905 0.213088 0.215172)
(0.302208 0.167035 0.169315)
(0.174181 0.095017 0.0968464)
(0.07093 0.0387795 0.039347)
(0.0211525 0.0116098 0.0117474)
(0.00471904 0.00259893 0.00262821)
(0.000805104 0.000445988 0.00045116)
(0.000115179 7.25657e-05 7.3253e-05)
(4.49158e-05 4.28738e-05 4.30894e-05)
(4.29624e-05 4.24872e-05 4.26352e-05)
(5.77427e-05 5.69085e-05 5.71284e-05)
(0.000298209 0.000296248 0.000297064)
(0.00188039 0.0018596 0.00186535)
(0.00829036 0.00826851 0.00828552)
(0.234018 0.196151 0.152731)
(0.305776 0.196998 0.201704)
(0.470814 0.318714 0.320177)
(0.622283 0.431278 0.427581)
(0.767485 0.529942 0.527676)
(0.979049 0.67337 0.671193)
(1.13386 0.779806 0.78205)
(1.33357 0.914989 0.917829)
(1.4918 1.02302 1.02337)
(1.6351 1.12103 1.11796)
(1.7662 1.20873 1.20124)
(1.86012 1.27237 1.26226)
(1.9114 1.30759 1.29629)
(1.93793 1.32585 1.31307)
(1.94274 1.33164 1.31632)
(1.92338 1.32364 1.3042)
(1.89208 1.30714 1.28152)
(1.8601 1.28817 1.25214)
(1.8319 1.27008 1.21984)
(1.79688 1.24736 1.18692)
(1.76459 1.22361 1.1578)
(1.73617 1.20093 1.13302)
(1.69338 1.17145 1.10678)
(1.6377 1.13569 1.08031)
(1.58288 1.09955 1.05377)
(1.53689 1.0654 1.02458)
(1.49118 1.02951 0.990573)
(1.43021 0.98554 0.949431)
(1.35696 0.935266 0.90402)
(1.28546 0.885349 0.859264)
(1.21894 0.837922 0.816073)
(1.15189 0.792396 0.771961)
(1.07851 0.745369 0.722172)
(0.999022 0.696282 0.666486)
(0.916183 0.646424 0.609394)
(0.832692 0.597267 0.555622)
(0.752993 0.550623 0.509665)
(0.681256 0.507236 0.475985)
(0.622427 0.466548 0.455794)
(0.583929 0.431466 0.445031)
(0.565591 0.404902 0.43388)
(0.544783 0.379724 0.410484)
(0.50066 0.344228 0.369259)
(0.449895 0.304561 0.323005)
(0.409411 0.267846 0.28064)
(0.386748 0.239003 0.246682)
(0.373845 0.216862 0.221332)
(0.305553 0.16847 0.172514)
(0.173754 0.0944801 0.0966528)
(0.068113 0.0371309 0.0378947)
(0.0194917 0.010666 0.0108832)
(0.00421125 0.00231178 0.00236064)
(0.000703535 0.000388743 0.000397276)
(0.000101851 6.60107e-05 6.70608e-05)
(4.45613e-05 4.27493e-05 4.299e-05)
(4.29725e-05 4.24784e-05 4.26445e-05)
(5.77509e-05 5.68971e-05 5.71146e-05)
(0.000298111 0.000296018 0.000296875)
(0.00188045 0.00185903 0.00186459)
(0.00829297 0.0082674 0.00828565)
(0.120347 0.0937594 0.103967)
(0.093442 0.0695971 0.07148)
(0.133789 0.100016 0.0990983)
(0.17388 0.129493 0.127426)
(0.216563 0.160871 0.157402)
(0.260007 0.19196 0.188129)
(0.304276 0.22323 0.21901)
(0.357189 0.260268 0.255199)
(0.408694 0.296422 0.290697)
(0.465829 0.33656 0.330147)
(0.5316 0.383383 0.377023)
(0.610094 0.439915 0.433155)
(0.706235 0.508334 0.50049)
(0.795296 0.570893 0.561678)
(0.864066 0.620046 0.610928)
(0.91491 0.654965 0.648642)
(0.934631 0.666093 0.661609)