/*--------------------------------*- C++ -*----------------------------------*\
| =========                 |                                                 |
| \\      /  F ield         | OpenFOAM: The Open Source CFD Toolbox           |
|  \\    /   O peration     | Version:  2.1.1                                 |
|   \\  /    A nd           | Web:      www.OpenFOAM.org                      |
|    \\/     M anipulation  |                                                 |
\*---------------------------------------------------------------------------*/
FoamFile
{
    version     2.0;
    format      ascii;
    class       volVectorField;
    location    "0.00105";
    object      grad1Alpha;
}
// * * * * * * * * * * * * * * * * * * * * * * * * * * * * * * * * * * * * * //

dimensions      [0 -1 0 0 0 0 0];

internalField   nonuniform List<vector> 
36520
(
(1.31601e-09 -1.05118e-09 -7.01154e-09)
(1.23784e-09 -1.32188e-09 -7.10226e-09)
(-1.59378e-10 -1.96838e-09 -8.89807e-09)
(-1.9341e-10 -2.56333e-09 -1.0716e-08)
(-2.38681e-10 -3.37436e-09 -1.31794e-08)
(-2.74588e-10 -4.24196e-09 -1.53187e-08)
(-2.93763e-10 -5.18408e-09 -1.73215e-08)
(-2.88818e-10 -6.0817e-09 -1.8766e-08)
(-2.64946e-10 -6.94166e-09 -1.99613e-08)
(-2.33158e-10 -7.65587e-09 -2.08511e-08)
(-2.12716e-10 -8.31259e-09 -2.17909e-08)
(-2.15791e-10 -8.88982e-09 -2.28225e-08)
(-2.52543e-10 -9.53095e-09 -2.41609e-08)
(-3.11871e-10 -1.0258e-08 -2.577e-08)
(-3.91641e-10 -1.1131e-08 -2.76629e-08)
(-4.97884e-10 -1.21619e-08 -3.01031e-08)
(-6.56211e-10 -1.34607e-08 -3.33918e-08)
(-8.98252e-10 -1.52407e-08 -3.81388e-08)
(-1.2516e-09 -1.78059e-08 -4.47668e-08)
(-1.72767e-09 -2.1494e-08 -5.38022e-08)
(-2.31982e-09 -2.65721e-08 -6.53931e-08)
(-3.00332e-09 -3.32047e-08 -7.95501e-08)
(-3.72709e-09 -4.14112e-08 -9.57519e-08)
(-4.41324e-09 -5.10433e-08 -1.12941e-07)
(-4.95727e-09 -6.17936e-08 -1.29321e-07)
(-5.21911e-09 -7.31875e-08 -1.42891e-07)
(-5.04741e-09 -8.44801e-08 -1.51435e-07)
(-4.35137e-09 -9.46826e-08 -1.52906e-07)
(-3.20433e-09 -1.02609e-07 -1.45301e-07)
(-1.90949e-09 -1.07172e-07 -1.27501e-07)
(-1.03891e-09 -1.07958e-07 -9.99947e-08)
(-1.4405e-09 -1.06441e-07 -6.61743e-08)
(-4.06192e-09 -1.07204e-07 -3.24256e-08)
(-9.47701e-09 -1.17563e-07 -5.9822e-09)
(-1.72389e-08 -1.44255e-07 1.20637e-08)
(-2.5946e-08 -1.89164e-07 2.80569e-08)
(-3.39627e-08 -2.48761e-07 5.08292e-08)
(-3.98444e-08 -3.16789e-07 8.51815e-08)
(-4.21858e-08 -3.87446e-07 1.28607e-07)
(-3.92405e-08 -4.55223e-07 1.73322e-07)
(-2.84283e-08 -5.07978e-07 2.14069e-07)
(1.57321e-10 -5.1131e-07 2.36214e-07)
(4.04455e-08 -4.46585e-07 2.49925e-07)
(6.10569e-08 -3.42432e-07 2.26165e-07)
(4.29975e-08 -2.66919e-07 1.63248e-07)
(2.44519e-08 -2.6229e-07 1.29935e-07)
(6.06898e-08 -2.3546e-07 6.40979e-08)
(5.40194e-08 -5.03174e-08 -1.5518e-07)
(5.94479e-09 -4.46134e-10 -1.87063e-09)
(6.24439e-11 -1.74353e-11 -8.53368e-11)
(1.47574e-12 -1.92725e-13 -1.0076e-12)
(1.07296e-14 -1.57992e-15 -7.84968e-15)
(5.88028e-17 -1.23155e-17 -5.044e-17)
(2.94901e-19 -8.19474e-20 -2.93874e-19)
(1.42182e-21 -3.99108e-22 -1.28953e-21)
(5.80095e-24 -1.38945e-24 -4.00992e-24)
(1.69577e-26 -3.3323e-27 -8.63398e-27)
(3.42178e-29 -5.37535e-30 -1.23095e-29)
(4.64684e-32 -5.23887e-33 -1.09708e-32)
(3.86072e-35 -2.45276e-36 -4.52523e-36)
(1.27553e-09 -9.88291e-09 -2.24025e-08)
(3.40612e-10 -1.5795e-08 -2.48346e-08)
(-1.88365e-09 -2.09263e-08 -2.89233e-08)
(-2.2362e-09 -2.66283e-08 -3.24014e-08)
(-2.43446e-09 -3.24835e-08 -3.66518e-08)
(-2.25001e-09 -3.77768e-08 -3.88098e-08)
(-1.93709e-09 -4.23937e-08 -3.98277e-08)
(-1.54645e-09 -4.58479e-08 -3.87001e-08)
(-1.25785e-09 -4.86541e-08 -3.67803e-08)
(-1.10422e-09 -5.0862e-08 -3.40076e-08)
(-1.15159e-09 -5.32891e-08 -3.11643e-08)
(-1.34491e-09 -5.57872e-08 -2.82791e-08)
(-1.65709e-09 -5.88902e-08 -2.55194e-08)
(-1.98081e-09 -6.23697e-08 -2.28938e-08)
(-2.45691e-09 -6.64926e-08 -2.04901e-08)
(-3.22895e-09 -7.18159e-08 -1.87729e-08)
(-4.48761e-09 -7.95569e-08 -1.79782e-08)
(-6.32216e-09 -9.12529e-08 -1.83294e-08)
(-8.7201e-09 -1.08212e-07 -1.95906e-08)
(-1.15619e-08 -1.31567e-07 -2.14194e-08)
(-1.45948e-08 -1.61732e-07 -2.35503e-08)
(-1.74748e-08 -1.98615e-07 -2.56369e-08)
(-1.96415e-08 -2.41269e-07 -2.70491e-08)
(-2.04084e-08 -2.87954e-07 -2.70723e-08)
(-1.92208e-08 -3.36334e-07 -2.50464e-08)
(-1.57404e-08 -3.83961e-07 -2.06229e-08)
(-9.7935e-09 -4.2762e-07 -1.48293e-08)
(-1.39092e-09 -4.62349e-07 -3.87598e-09)
(8.94839e-09 -4.81026e-07 1.18931e-08)
(1.97335e-08 -4.7664e-07 3.00176e-08)
(2.82421e-08 -4.50943e-07 4.76523e-08)
(3.08172e-08 -4.18158e-07 6.03689e-08)
(2.46861e-08 -4.02263e-07 6.42361e-08)
(1.18043e-08 -4.21569e-07 7.11433e-08)
(-9.07626e-10 -4.72958e-07 8.61289e-08)
(-7.32563e-09 -5.2902e-07 1.10261e-07)
(-6.56151e-09 -5.52944e-07 1.42581e-07)
(-2.58375e-09 -5.32734e-07 1.81196e-07)
(1.16749e-11 -5.02421e-07 2.24199e-07)
(1.65331e-09 -5.01364e-07 2.68299e-07)
(1.61582e-09 -4.84694e-07 3.05566e-07)
(1.75768e-08 4.67554e-06 2.62419e-05)
(3.82063e-08 3.43357e-05 0.000177967)
(2.52998e-08 7.29469e-05 0.000375226)
(4.00515e-09 8.83571e-05 0.000454176)
(-1.86276e-08 5.37822e-05 0.000276621)
(-7.52266e-08 3.55679e-06 2.06863e-05)
(2.23017e-08 -4.80386e-07 -1.01554e-06)
(7.98862e-08 -5.80705e-09 -1.18221e-08)
(9.53952e-10 -4.45625e-10 -1.05405e-09)
(4.21649e-11 -8.34658e-12 -2.10871e-11)
(4.91178e-13 -9.7899e-14 -2.33399e-13)
(3.80153e-15 -9.68354e-16 -1.95626e-15)
(2.43415e-17 -7.28002e-18 -1.31119e-17)
(1.41508e-19 -3.85435e-20 -6.09365e-20)
(6.20446e-22 -1.44233e-22 -1.97415e-22)
(1.92804e-24 -3.71842e-25 -4.37394e-25)
(4.14857e-27 -6.37739e-28 -6.36549e-28)
(5.91144e-30 -6.69575e-31 -5.7427e-31)
(5.26297e-33 -3.24898e-34 -2.38108e-34)
(7.71604e-11 -3.34234e-08 -3.44828e-08)
(-2.00267e-09 -4.50872e-08 -2.86191e-08)
(-3.88276e-09 -5.76821e-08 -2.66383e-08)
(-4.00296e-09 -6.98049e-08 -2.31298e-08)
(-3.41795e-09 -7.91275e-08 -1.95798e-08)
(-1.90893e-09 -8.48837e-08 -1.42185e-08)
(-3.49675e-10 -8.84005e-08 -8.49077e-09)
(1.06878e-09 -8.85336e-08 -2.22713e-09)
(1.88746e-09 -8.80826e-08 4.17808e-09)
(2.3611e-09 -8.719e-08 1.07809e-08)
(2.43079e-09 -8.75351e-08 1.79706e-08)
(2.37884e-09 -8.88049e-08 2.5646e-08)
(2.20617e-09 -9.17484e-08 3.23806e-08)
(1.96515e-09 -9.67982e-08 3.58211e-08)
(1.43222e-09 -1.03306e-07 3.85235e-08)
(5.18618e-10 -1.11908e-07 4.20183e-08)
(-7.00365e-10 -1.2396e-07 4.67283e-08)
(-2.03454e-09 -1.40916e-07 5.34317e-08)
(-3.23823e-09 -1.62727e-07 6.26444e-08)
(-4.2963e-09 -1.88638e-07 7.49569e-08)
(-5.18351e-09 -2.15838e-07 9.04335e-08)
(-5.68436e-09 -2.41356e-07 1.08977e-07)
(-5.55209e-09 -2.62306e-07 1.29937e-07)
(-4.67708e-09 -2.77896e-07 1.52215e-07)
(-3.11916e-09 -2.89487e-07 1.74053e-07)
(-1.52622e-09 -2.98303e-07 1.93361e-07)
(1.91854e-09 -3.03606e-08 1.21059e-06)
(7.76888e-09 2.34796e-06 9.99287e-06)
(1.29292e-08 4.7362e-06 1.88164e-05)
(1.58106e-08 7.48553e-06 2.89509e-05)
(1.46122e-08 1.02131e-05 3.89907e-05)
(7.67576e-09 1.26204e-05 4.78806e-05)
(1.72776e-09 1.467e-05 5.55454e-05)
(8.28595e-10 1.66495e-05 6.31007e-05)
(9.54241e-10 1.91118e-05 7.26253e-05)
(1.16812e-09 2.33512e-05 8.88683e-05)
(1.62624e-09 3.27229e-05 0.000123998)
(2.716e-09 5.51977e-05 0.000207662)
(5.72293e-09 0.000117038 0.00043708)
(1.55376e-08 0.00032039 0.00118974)
(1.23529e-05 0.00103535 0.00383164)
(8.44921e-05 0.00324793 0.0120306)
(0.00016607 0.00878518 0.0300597)
(0.000131734 0.01548 0.0485596)
(-4.62692e-05 0.0163736 0.0463819)
(-0.000205469 0.0128699 0.0309308)
(-0.000131673 0.00515016 0.00962255)
(-9.76158e-06 0.000128347 0.000285046)
(4.91183e-07 -2.88405e-08 -2.47351e-08)
(5.71073e-09 -4.29034e-09 -6.60213e-09)
(5.04914e-10 -1.54711e-10 -2.66074e-10)
(1.00764e-11 -2.67519e-12 -4.36008e-12)
(1.11553e-13 -3.29943e-14 -5.02123e-14)
(9.36919e-16 -2.73963e-16 -3.81087e-16)
(6.29045e-18 -1.55623e-18 -1.93896e-18)
(2.93003e-20 -6.13984e-21 -6.74737e-21)
(9.51959e-23 -1.64759e-23 -1.58012e-23)
(2.11654e-25 -2.91363e-26 -2.40715e-26)
(3.09392e-28 -3.13016e-29 -2.24154e-29)
(2.80339e-31 -1.54344e-32 -9.61456e-33)
(3.61349e-09 -4.63252e-08 -1.74865e-08)
(3.18158e-09 -6.94244e-08 -2.3007e-09)
(-1.50055e-10 -8.30754e-08 1.13922e-08)
(3.6239e-10 -9.10543e-08 2.62218e-08)
(1.26956e-09 -9.30407e-08 4.1711e-08)
(2.67719e-09 -9.05816e-08 4.95412e-08)
(3.61035e-09 -8.76009e-08 5.06145e-08)
(4.45387e-09 -8.19465e-08 4.92763e-08)
(4.93508e-09 -7.68732e-08 4.72039e-08)
(5.4221e-09 -7.24705e-08 4.43251e-08)
(5.79335e-09 -7.05113e-08 4.33211e-08)
(5.29421e-09 -5.05119e-08 1.23087e-07)
(2.88592e-09 5.10256e-08 4.73659e-07)
(5.7298e-10 2.57891e-07 1.17819e-06)
(1.72284e-11 5.31464e-07 2.12999e-06)
(2.61863e-11 9.09295e-07 3.46171e-06)
(4.09552e-11 1.53372e-06 5.64266e-06)
(6.57266e-11 2.59744e-06 9.30581e-06)
(1.09651e-10 4.52679e-06 1.58317e-05)
(1.90078e-10 8.15358e-06 2.78715e-05)
(3.38307e-10 1.49983e-05 5.02429e-05)
(6.13787e-10 2.78799e-05 9.19354e-05)
(1.14968e-09 5.31513e-05 0.000173145)
(2.13267e-09 9.97079e-05 0.000322166)
(3.67952e-09 0.000173052 0.000556626)
(4.81295e-07 0.000272477 0.000874572)
(4.64359e-06 0.000391675 0.00125718)
(8.35498e-06 0.000519805 0.00167659)
(9.00903e-06 0.000627405 0.00203426)
(9.5987e-06 0.000692564 0.00226211)
(9.01886e-06 0.00072799 0.00239908)
(7.8965e-06 0.00075982 0.00252664)
(7.25749e-06 0.000784044 0.00263172)
(8.12456e-06 0.00079001 0.00268101)
(1.22281e-05 0.000791418 0.00271453)
(2.43597e-05 0.000830043 0.00284939)
(5.63221e-05 0.000993153 0.0033755)
(0.000148421 0.00147895 0.00484128)
(0.000465515 0.002919 0.00878851)
(0.00160895 0.00767921 0.0203175)
(0.00513778 0.0247856 0.0560088)
(0.0124522 0.0854702 0.164587)
(0.0173904 0.250242 0.417234)
(0.00783892 0.465963 0.672292)
(-0.00828769 0.531198 0.665507)
(-0.0174751 0.526032 0.501594)
(-0.0146857 0.339668 0.24034)
(-0.00464905 0.0351038 0.0304124)
(-0.000136787 7.67478e-07 2.82544e-06)
(1.32697e-08 -1.93889e-08 -2.01349e-08)
(3.25178e-09 -1.73009e-09 -2.33272e-09)
(1.29348e-10 -4.59395e-11 -6.11444e-11)
(2.12081e-12 -6.86161e-13 -8.71285e-13)
(2.44843e-14 -6.57526e-15 -7.7397e-15)
(1.86609e-16 -4.17782e-17 -4.45971e-17)
(9.55027e-19 -1.80584e-19 -1.71719e-19)
(3.34841e-21 -5.22855e-22 -4.37338e-22)
(7.91405e-24 -9.87933e-25 -7.16633e-25)
(1.21964e-26 -1.12077e-27 -7.07829e-28)
(1.14973e-29 -5.82853e-31 -3.21449e-31)
(6.121e-09 -5.09916e-08 1.93874e-08)
(9.79323e-09 -7.2241e-08 3.8492e-08)
(8.42144e-09 -8.35177e-08 5.00028e-08)
(9.73464e-09 -6.70889e-08 1.20054e-07)
(7.5834e-09 -5.55389e-08 2.40651e-07)
(2.59953e-09 -3.38058e-08 5.12677e-07)
(4.75297e-12 -1.60032e-09 1.03158e-06)
(4.47007e-12 5.56767e-08 1.97613e-06)
(4.41652e-12 1.39168e-07 3.44252e-06)
(8.55778e-10 3.70245e-07 5.84078e-06)
(4.02885e-08 9.60147e-07 9.69234e-06)
(2.08231e-07 2.15286e-06 1.55958e-05)
(5.06727e-07 4.35559e-06 2.49301e-05)
(7.9385e-07 7.98776e-06 3.94011e-05)
(1.09291e-06 1.3405e-05 6.04264e-05)
(1.67927e-06 2.21853e-05 9.28687e-05)
(2.79229e-06 3.88008e-05 0.000150511)
(4.8678e-06 6.79528e-05 0.00024756)
(8.87112e-06 0.000121064 0.000419634)
(1.64462e-05 0.000223528 0.000745632)
(3.06233e-05 0.000431149 0.00139668)
(5.87544e-05 0.000829877 0.00263306)
(0.00011007 0.00159294 0.00497886)
(0.000183345 0.0029255 0.00906225)
(0.000264119 0.00486763 0.015017)
(0.000334945 0.00712491 0.0219709)
(0.000383286 0.00904891 0.0279405)
(0.000371212 0.0100826 0.0312225)
(0.000279619 0.0104378 0.0324157)
(0.000174094 0.0106245 0.0329946)
(0.000126172 0.0103374 0.0320328)
(0.000110973 0.0099487 0.0307788)
(7.35946e-05 0.0102358 0.0316267)
(3.94536e-05 0.0110325 0.0340196)
(8.07474e-05 0.0118583 0.036429)
(0.000316746 0.0126293 0.0384393)
(0.000954703 0.0145798 0.0432212)
(0.00260028 0.0208551 0.0583611)
(0.00746428 0.0370948 0.0940168)
(0.0229099 0.0821006 0.181485)
(0.0705324 0.216294 0.425528)
(0.178158 0.685062 1.15436)
(0.253583 2.20067 2.99555)
(0.128709 4.29281 4.94352)
(-0.0760082 5.64215 5.5285)
(-0.206277 6.36381 5.4108)
(-0.242437 4.58275 3.9819)
(-0.128053 0.570462 0.626922)
(-0.015813 0.000491204 0.000839059)
(-1.3403e-06 -4.98147e-08 -2.40013e-08)
(1.06969e-08 -1.36214e-08 -1.51168e-08)
(1.17241e-09 -5.11535e-10 -5.72961e-10)
(3.0637e-11 -9.59027e-12 -1.03262e-11)
(4.37627e-13 -1.0942e-13 -1.09802e-13)
(3.91016e-15 -8.02202e-16 -7.32403e-16)
(2.27215e-17 -3.91321e-18 -3.18214e-18)
(8.84668e-20 -1.25802e-20 -8.96936e-21)
(2.28451e-22 -2.60992e-23 -1.60502e-23)
(3.8091e-25 -3.2118e-26 -1.70575e-26)
(3.8332e-28 -1.8065e-29 -8.31067e-30)
(1.12622e-08 -3.22903e-08 7.0118e-08)
(1.55221e-08 6.3464e-08 5.54693e-07)
(3.82282e-08 1.45434e-07 1.88649e-06)
(9.2586e-08 4.21178e-07 5.88127e-06)
(1.92502e-07 8.37645e-07 1.44816e-05)
(3.88292e-07 1.54282e-06 2.90951e-05)
(7.16634e-07 1.68812e-06 4.52729e-05)
(1.17838e-06 8.85679e-06 8.96854e-05)
(1.88585e-06 2.17215e-05 0.000157139)
(3.04643e-06 4.60488e-05 0.000268298)
(4.74963e-06 8.89809e-05 0.000444443)
(7.4065e-06 0.000156269 0.000702027)
(1.15535e-05 0.000254214 0.00106015)
(1.72219e-05 0.000376879 0.00150849)
(2.59514e-05 0.000523799 0.00205027)
(4.37446e-05 0.000722187 0.00276468)
(7.51455e-05 0.00101063 0.0037761)
(0.000130769 0.0014166 0.00515711)
(0.000242043 0.00205604 0.00724794)
(0.000474857 0.00317695 0.0107845)
(0.00091744 0.00502205 0.0164119)
(0.00174137 0.00740751 0.0233697)
(0.00312527 0.0101789 0.0311301)
(0.00487906 0.0133701 0.039819)
(0.00627282 0.0169871 0.0495402)
(0.00627809 0.020348 0.0583239)
(0.00449474 0.0249548 0.0695656)
(0.0021766 0.0314071 0.0833363)
(0.000868855 0.0355002 0.0881154)
(-0.000170541 0.0397056 0.0949489)
(-0.00105858 0.0462883 0.111531)
(-0.000178662 0.0440668 0.10534)
(0.00159702 0.0386902 0.0902815)
(0.00236231 0.0388497 0.0932229)
(0.0021889 0.0432891 0.111135)
(0.00337754 0.0511351 0.139391)
(0.00986876 0.0649604 0.183871)
(0.0252227 0.0971448 0.279182)
(0.0615747 0.186526 0.520532)
(0.166809 0.434495 1.10722)
(0.494204 1.264 2.89358)
(1.32812 4.01821 8.21439)
(1.99902 10.6921 16.8864)
(1.3966 23.3177 28.771)
(0.338245 38.4135 39.917)
(-0.799373 41.1845 43.4168)
(-2.59671 25.8131 29.2113)
(-2.14016 2.7932 3.14829)
(-0.327202 0.00769841 0.00890836)
(-0.000421472 -3.47106e-07 -4.4368e-07)
(1.69051e-08 -8.71253e-08 -8.50733e-08)
(7.97873e-09 -4.14056e-09 -3.89625e-09)
(2.99881e-10 -9.54975e-11 -8.51708e-11)
(5.41767e-12 -1.30464e-12 -1.07545e-12)
(5.80182e-14 -1.12092e-14 -8.3438e-15)
(3.91283e-16 -6.28955e-17 -4.13121e-17)
(1.72602e-18 -2.28958e-19 -1.30379e-19)
(4.96001e-21 -5.31398e-22 -2.57566e-22)
(9.09634e-24 -7.22277e-25 -2.98152e-25)
(9.93226e-27 -4.46265e-28 -1.57664e-28)
(2.49692e-07 -8.38196e-08 1.22371e-07)
(9.24621e-07 -7.72467e-07 1.97957e-06)
(2.69692e-06 -1.06185e-06 2.62638e-05)
(6.34175e-06 2.70342e-05 0.000227759)
(1.16295e-05 0.000126062 0.000795924)
(1.5387e-05 0.000161657 0.00117066)
(3.02823e-05 5.64232e-06 0.000764714)
(5.59382e-05 7.37952e-05 0.0013316)
(8.93202e-05 0.000311921 0.00259547)
(0.000143669 0.000724897 0.00459143)
(0.000216932 0.00137352 0.00749804)
(0.000308117 0.00210505 0.0107574)
(0.00040367 0.00281545 0.0137973)
(0.000495447 0.00358053 0.0167075)
(0.000628571 0.00457757 0.0199482)
(0.000863834 0.00601269 0.0242969)
(0.00119812 0.00771146 0.029728)
(0.00174025 0.009658 0.0356433)
(0.00282337 0.0123108 0.0427818)
(0.00460108 0.0160749 0.0514199)
(0.00632475 0.0212231 0.0613566)
(0.00740297 0.0268103 0.0699576)
(0.00827539 0.0333031 0.0760028)
(0.00926344 0.0422645 0.0800583)
(0.00933368 0.054844 0.0869245)
(0.0102051 0.0713988 0.103145)
(0.0129585 0.0720426 0.13153)
(0.00994261 0.0643336 0.164493)
(0.0064429 0.0825844 0.194695)
(0.0122178 0.189992 0.219447)
(0.00551419 0.260633 0.25897)
(-0.0105447 0.26245 0.268902)
(-0.00610779 0.249551 0.248234)
(0.0103373 0.158665 0.212825)
(0.0230964 0.103411 0.185683)
(0.0367364 0.104522 0.173789)
(0.0710474 0.0950517 0.169801)
(0.171928 0.069854 0.167262)
(0.426489 0.0346221 0.162939)
(1.23133 0.0205206 0.304816)
(3.71327 0.0996993 0.844288)
(7.50602 1.56788 3.98862)
(11.4195 21.7898 37.3697)
(13.1323 112.226 154.752)
(8.2331 240.35 241.631)
(-6.2321 217.416 215.82)
(-22.231 83.6576 77.804)
(-15.9071 4.92373 4.17118)
(-1.7129 0.0164796 0.0121284)
(-0.00481181 -4.55311e-06 -3.57391e-06)
(2.45785e-07 -5.22351e-07 -3.93537e-07)
(4.78913e-08 -2.63757e-08 -1.91508e-08)
(2.18582e-09 -7.01249e-10 -4.73762e-10)
(4.79824e-11 -1.12228e-11 -6.84129e-12)
(6.12172e-13 -1.12975e-13 -6.05053e-14)
(4.826e-15 -7.36558e-16 -3.37484e-16)
(2.44329e-17 -3.0813e-18 -1.18075e-18)
(7.93543e-20 -8.13345e-21 -2.54346e-21)
(1.62627e-22 -1.24198e-23 -3.1504e-24)
(1.96103e-25 -8.56525e-27 -1.76453e-27)
(9.70486e-07 -9.55421e-08 -1.05459e-08)
(1.37895e-05 -3.73919e-06 -3.20502e-07)
(0.000119609 -3.75572e-05 1.67403e-07)
(0.000408103 -0.000156374 1.02985e-05)
(0.00049982 -0.000390893 4.1474e-05)
(-1.74035e-05 -0.000787346 5.44846e-05)
(8.30369e-05 0.000436248 0.0171123)
(0.000968174 0.00228367 0.0398991)
(0.00172768 0.00205569 0.0396119)
(0.00260009 0.0024815 0.0473643)
(0.00326801 0.00479377 0.0759799)
(0.00333638 0.00646411 0.0900866)
(0.00315957 0.00460081 0.0815657)
(0.00328785 0.00444297 0.0841005)
(0.00408252 0.00367385 0.0806387)
(0.00526446 0.00255591 0.0749004)
(0.00611464 0.00413204 0.0789741)
(0.00708085 0.00874367 0.088943)
(0.00864653 0.014805 0.105678)
(0.0103679 0.0225963 0.127746)
(0.0108011 0.0328173 0.15702)
(0.00967973 0.0453269 0.197267)
(0.0090086 0.0604767 0.25979)
(0.011687 0.0796759 0.361887)
(0.0200046 0.104052 0.505185)
(0.0297231 0.129053 0.660982)
(0.0338531 0.132918 0.777355)
(0.034484 0.130478 0.853301)
(0.0404854 0.136014 0.943497)
(0.0487065 0.148732 1.09346)
(0.0308028 0.158818 1.24592)
(-0.00537062 0.159533 1.31279)
(-0.0360166 0.149458 1.33302)
(-0.0441947 0.126753 1.36115)
(-0.0246233 0.0960712 1.38609)
(-0.00824061 0.0661827 1.33443)
(-0.00224488 0.0195846 1.03978)
(0.00179693 -0.0541155 0.44164)
(0.0906549 -0.144815 -0.083262)
(0.410488 -0.291346 -0.570419)
(2.17765 -0.970337 -2.0035)
(21.3726 -2.75394 -5.90958)
(88.6026 2.48457 1.667)
(125.507 189.22 200.386)
(40.6231 818.71 621.544)
(-99.2371 695.478 441.047)
(-129.101 149.671 78.4239)
(-48.3891 4.39445 0.906748)
(-2.76499 0.00573344 -0.00225253)
(-0.0077172 -1.46652e-05 -4.99386e-06)
(2.24968e-06 -2.08406e-06 -1.24308e-06)
(2.54656e-07 -1.19359e-07 -7.06363e-08)
(1.24132e-08 -3.61088e-09 -1.9404e-09)
(3.1041e-10 -6.68745e-11 -3.06673e-11)
(4.57633e-12 -7.88322e-13 -2.8624e-13)
(4.17377e-14 -6.02123e-15 -1.58072e-15)
(2.42885e-16 -2.93357e-17 -4.90021e-18)
(8.98058e-19 -8.94562e-20 -7.36575e-21)
(2.07828e-21 -1.56199e-22 -2.1568e-24)
(2.79821e-24 -1.22355e-25 4.852e-27)
(-0.00283617 3.57324 1.51425)
(-0.00596641 7.5171 3.18363)
(-0.0107253 13.513 5.71956)
(-0.00943832 11.8912 5.03008)
(-0.00815785 10.2776 4.34449)
(-0.0015436 13.238 5.59223)
(0.00703539 17.4796 7.38111)
(-0.00344017 19.1822 8.11932)
(-0.0127302 20.932 8.90807)
(-0.00234396 26.9091 11.4788)
(-0.0074992 37.7496 16.0157)
(-0.0308689 42.6704 18.0639)
(-0.0349208 40.1446 16.9983)
(-0.0256579 32.0149 13.5966)
(-0.0223447 22.4602 9.568)
(-0.0113217 14.0372 5.98577)
(0.00355475 6.74245 2.91707)
(0.0141329 2.95871 1.33778)
(0.0218928 2.75982 1.28083)
(0.0301939 3.10958 1.47595)
(0.0411164 3.88385 1.86145)
(0.0587454 5.36861 2.56558)
(0.089143 9.38152 4.36531)
(0.124906 19.2511 8.6659)
(0.136819 39.505 17.3766)
(0.0960427 70.2579 30.4124)
(0.0379351 90.0642 38.6711)
(0.0218913 90.0293 38.5581)
(0.0613816 86.1414 36.8975)
(0.0996954 85.3901 36.5889)
(0.0511399 85.6758 36.6909)
(-0.0290657 84.1764 36.0677)
(-0.0402772 79.1011 34.0121)
(-0.0177482 71.123 30.7525)
(-0.04273 64.1453 27.8839)
(-0.192084 59.9812 26.1711)
(-0.441338 57.3616 25.056)
(-0.460138 55.2658 24.1859)
(-0.160833 51.9864 22.8817)
(0.0684191 45.8097 20.1991)
(0.392482 35.2333 15.122)
(8.35937 26.4264 8.85799)
(138.729 45.3514 -4.81386)
(439.967 582.811 278.094)
(201.73 1136.96 882.819)
(-375.457 1001.66 666.451)
(-339.324 189.551 84.3591)
(-74.1049 5.3281 -0.0322088)
(-2.55104 0.00550068 -0.00946631)
(-0.00372152 -2.81005e-05 -1.37906e-05)
(4.80618e-06 -6.06688e-06 -3.75513e-06)
(9.74419e-07 -3.99838e-07 -2.39687e-07)
(5.51779e-08 -1.419e-08 -8.08718e-09)
(1.5577e-09 -3.11321e-10 -1.67433e-10)
(2.60137e-11 -4.29094e-12 -2.17854e-12)
(2.67313e-13 -3.74723e-14 -1.80767e-14)
(1.73033e-15 -2.04092e-16 -9.44306e-17)
(7.00393e-18 -6.8298e-19 -3.05845e-19)
(1.75256e-20 -1.29043e-21 -5.64194e-22)
(2.52045e-23 -1.08627e-24 -4.66672e-25)
(-0.00478307 6.89964 1.61724)
(-0.0083399 12.0289 2.82755)
(-0.015209 21.9353 5.16813)
(-0.0226981 32.7337 7.73214)
(-0.0264523 38.1419 9.03333)
(-0.0262989 39.6379 9.41304)
(-0.010715 40.171 9.55322)
(0.0198536 44.4235 10.5683)
(0.0294117 59.8532 14.2829)
(-0.0344043 86.1683 20.6324)
(-0.0879656 102.789 24.6727)
(-0.070743 102.678 24.7023)
(-0.0432709 97.5781 23.5408)
(-0.0465999 90.9866 21.9973)
(-0.0822762 85.1563 20.6483)
(-0.072914 75.7923 18.4502)
(-0.0306474 60.111 14.6942)
(0.00584811 36.9582 9.07754)
(0.0469542 16.0988 3.98859)
(0.0745665 10.5476 2.69304)
(0.0963086 11.2176 2.8704)
(0.131637 13.7225 3.41754)
(0.184983 22.1472 5.43092)
(0.256298 45.3764 11.112)
(0.252792 94.3444 23.1891)
(0.074129 153.428 37.8492)
(-0.110506 170.913 42.2116)
(-0.128266 166.735 41.1752)
(-0.0532228 161.116 39.776)
(-0.0279875 161.976 39.9538)
(-0.0562518 164.131 40.4664)
(-0.0624666 166.337 41.1094)
(-0.0671283 167.678 41.5406)
(-0.0907482 165.98 41.1706)
(-0.089102 156.388 38.7691)
(-0.105103 137.54 34.0297)
(-0.118692 120.114 29.8311)
(-0.0685865 115.593 29.193)
(-0.0313057 114.083 29.1575)
(-0.153914 106.969 27.3959)
(0.0111436 82.9182 21.1307)
(7.91531 59.4717 15.0097)
(131.448 115.409 25.0464)
(439.816 824.175 135.586)
(193.702 1219.97 340.764)
(-385.892 986.955 324.246)
(-324.967 161.749 53.9444)
(-63.6771 3.85441 1.37942)
(-1.97316 0.00125018 0.00153573)
(-0.00206868 -2.40721e-05 -1.09206e-05)
(4.07069e-06 -6.80412e-06 -2.43258e-06)
(1.11076e-06 -4.21157e-07 -1.51017e-07)
(6.35336e-08 -1.50724e-08 -5.18421e-09)
(1.83487e-09 -3.35301e-10 -1.08439e-10)
(3.11935e-11 -4.61064e-12 -1.40766e-12)
(3.21734e-13 -3.95003e-14 -1.15005e-14)
(2.05851e-15 -2.08524e-16 -5.86192e-17)
(8.13955e-18 -6.70316e-19 -1.83715e-19)
(1.96797e-20 -1.21159e-21 -3.26676e-22)
(2.71852e-23 -9.72012e-25 -2.59345e-25)
(-0.00719057 30.8407 5.93292)
(-0.0109739 44.7926 8.66861)
(-0.00978159 38.4211 7.47697)
(-0.00877824 35.7717 7.00225)
(-0.00874025 35.6077 7.01189)
(-0.00440881 30.9976 6.14615)
(-0.00110568 25.0539 5.00359)
(-0.00236978 27.7724 5.54604)
(0.000864632 46.3565 9.24564)
(-0.00172899 81.4473 16.3236)
(-0.0130798 102.098 20.6395)
(-0.0206857 100.989 20.5393)
(-0.0207171 90.2956 18.4434)
(-0.0136756 76.457 15.6537)
(-0.00220474 68.5983 14.1224)
(0.0117007 61.0753 12.6866)
(0.0186423 48.2916 10.0545)
(0.0235088 26.6931 5.51344)
(0.0650668 6.86846 1.34139)
(0.0785776 0.293334 0.0562262)
(0.018842 0.324659 0.0882974)
(-0.00456014 2.01353 0.230178)
(0.0240706 8.50343 1.45866)
(0.0445791 25.7004 5.15593)
(0.0460555 62.9404 13.257)
(0.0155131 117.773 24.9277)
(-0.0319199 143.82 30.4384)
(-0.0415073 141.584 30.0419)
(-0.0164572 133.573 28.4148)
(0.00537377 125.948 27.6715)
(0.0201033 121.354 26.9305)
(0.00158765 122.216 27.2069)
(-0.0266805 121.884 26.8266)
(-0.0361361 115.679 24.8669)
(-0.0510503 98.5366 21.0548)
(-0.0750213 70.9121 14.8474)
(-0.0767551 41.3385 8.0486)
(-0.0326261 20.3116 3.09342)
(0.0367247 13.2648 1.38855)
(0.0230914 13.2558 1.32807)
(0.171081 13.7245 1.70733)
(5.45054 16.5339 2.51628)
(111.809 64.3635 7.30022)
(518.697 756.648 11.037)
(310.934 1322.08 162.968)
(-435.92 975.178 530.34)
(-420.448 88.9973 268.928)
(-88.7754 -3.47265 19.2363)
(-2.99771 -0.0458197 0.119151)
(-0.00469302 -1.07993e-05 -5.42335e-05)
(7.87855e-06 -6.98906e-06 -3.3678e-06)
(1.4691e-06 -4.52729e-07 -1.54738e-07)
(8.55458e-08 -1.62102e-08 -4.67211e-09)
(2.46392e-09 -3.5453e-10 -8.91511e-11)
(4.10078e-11 -4.73683e-12 -1.08993e-12)
(4.11538e-13 -3.90395e-14 -8.59279e-15)
(2.54881e-15 -1.97039e-16 -4.28675e-17)
(9.72053e-18 -6.01926e-19 -1.31617e-19)
(2.25135e-20 -1.03158e-21 -2.28489e-22)
(2.96414e-23 -7.82299e-25 -1.7585e-25)
(0.000810167 -0.00728861 0.000853789)
(-7.16967e-05 0.451233 0.225442)
(-5.0988e-05 0.451033 0.227683)
(0.00243011 0.199937 0.105995)
(0.00386907 0.0246499 0.0231043)
(0.00604453 0.00274191 0.0182837)
(0.00615102 0.0135142 0.0202537)
(0.00540316 0.0896523 0.0582863)
(0.00617053 0.366364 0.196487)
(0.00559284 0.920984 0.448952)
(0.00355976 1.23995 0.581219)
(0.00301912 1.19454 0.548576)
(0.00602399 1.01219 0.461271)
(0.0112056 0.725236 0.325664)
(0.015167 0.468916 0.191361)
(0.00391512 0.266062 0.0675252)
(-0.00980342 0.137018 -0.0336386)
(0.0200891 0.0899362 -0.055596)
(0.12061 0.0641369 -0.0248483)
(0.155561 0.0199476 -0.145848)
(0.0114054 0.24488 -0.0724366)
(-0.0519836 0.577272 0.156361)
(0.0921047 0.701383 0.196908)
(0.234657 0.735687 0.150161)
(0.0760932 0.830108 0.254336)
(-0.209269 1.19433 1.26484)
(-0.199412 1.33797 1.33196)
(-0.0393412 1.28832 0.584232)
(0.457015 1.13998 0.291672)
(0.558557 0.630191 0.128471)
(0.115622 0.506814 0.030631)
(-0.176031 0.553503 0.460644)
(-0.48216 0.751618 0.806924)
(-0.300238 1.03922 0.851967)
(0.0431807 1.0563 0.641953)
(0.000539549 1.14565 0.265527)
(-0.101258 1.27844 0.382361)
(-0.0743988 1.3164 0.491418)
(-0.0179322 1.19448 0.450113)
(-0.00891283 0.803341 0.0786833)
(0.120658 -0.039154 -0.19115)
(3.83404 -1.0263 -0.14492)
(60.1686 9.22644 3.97327)
(435.927 528.176 97.679)
(459.442 1478.98 145.657)
(-248.672 1329.92 503.686)
(-508.131 337.096 324.632)
(-191.207 3.33523 21.7768)
(-11.7599 -0.08432 0.126338)
(-0.064323 -7.0164e-05 -7.47069e-05)
(2.98039e-05 -6.37808e-06 -3.36814e-06)
(2.08936e-06 -3.8815e-07 -1.46669e-07)
(9.5291e-08 -1.2607e-08 -4.33123e-09)
(2.47572e-09 -2.34183e-10 -7.55603e-11)
(3.7139e-11 -2.61632e-12 -8.0711e-13)
(3.32085e-13 -1.80761e-14 -5.4547e-15)
(1.82126e-15 -7.72134e-17 -2.33494e-17)
(6.15959e-18 -2.00428e-19 -6.15535e-20)
(1.26173e-20 -2.93e-22 -9.16711e-23)
(1.46764e-23 -1.88917e-25 -5.99142e-26)
(0.000605102 -0.00326494 -0.00154074)
(0.00122156 0.473136 -0.162256)
(0.00196535 0.456192 -0.206948)
(0.00340443 0.198214 -0.0960473)
(0.00446455 0.0217141 -0.0118916)
(0.00479559 0.00479484 -0.000599828)
(0.00514579 0.0139478 -0.0164724)
(0.00667184 0.0854809 -0.0650311)
(0.00531959 0.362376 -0.20745)
(-0.000570747 0.919869 -0.480211)
(-0.00322494 1.24943 -0.611819)
(0.000816266 1.21895 -0.544504)
(0.00535553 1.04646 -0.423911)
(0.00372986 0.756596 -0.296374)
(0.000678511 0.497048 -0.199835)
(0.00432755 0.288284 -0.127424)
(0.0264965 0.135534 -0.0522927)
(0.0675165 0.0552196 0.0104534)
(0.0519649 0.00604364 0.00771117)
(0.0163111 0.0241314 -0.111176)
(0.0348464 0.300217 -0.289256)
(0.0151848 0.569454 -0.353881)
(-0.0374138 0.699989 -0.410663)
(0.0207484 0.852413 -0.616169)
(0.584565 1.04278 -0.920216)
(0.578545 0.81946 -0.75556)
(-0.383246 0.734674 -0.412067)
(-0.552061 1.04289 -0.301968)
(-0.125974 1.05202 -0.23702)
(-0.000302521 0.972927 -0.92675)
(0.287235 1.00873 -1.06838)
(0.478038 0.777588 -0.933259)
(0.189115 0.652091 -0.457914)
(-0.137232 0.680158 0.192193)
(-0.420823 0.85451 0.11899)
(-0.308573 1.26778 -0.196026)
(-0.00582002 1.3708 -0.362206)
(0.027742 1.31864 -0.305173)
(-0.0503556 1.14874 -0.207281)
(-0.0818694 0.693279 0.0778789)
(0.153558 -0.369555 0.351991)
(4.2464 -1.70837 0.853871)
(60.2375 11.4318 4.32406)
(405.236 566.854 -33.5134)
(421.165 1511.14 -305.97)
(-223.99 1346.77 -767.768)
(-469.442 336.666 -403.555)
(-185.436 2.46712 -24.1341)
(-12.1579 -0.0979243 -0.119006)
(-0.0723834 -7.07761e-05 8.36709e-05)
(2.96307e-05 -6.34452e-06 4.32377e-06)
(2.05713e-06 -3.84707e-07 2.10109e-07)
(9.29185e-08 -1.25554e-08 6.17437e-09)
(2.40938e-09 -2.34312e-10 1.05409e-10)
(3.62199e-11 -2.62852e-12 1.1007e-12)
(3.24842e-13 -1.82311e-14 7.25645e-15)
(1.7873e-15 -7.818e-17 3.0216e-17)
(6.06285e-18 -2.03708e-19 7.74904e-20)
(1.24557e-20 -2.98786e-22 1.12797e-22)
(1.45267e-23 -1.93163e-25 7.25017e-26)
(0.0302513 34.9529 -6.61463)
(0.0154548 75.1537 -12.1143)
(-0.0146345 82.2639 -15.0751)
(0.0033905 71.2544 -13.5272)
(0.00814105 48.5956 -9.23602)
(0.00314882 18.3451 -3.48203)
(-0.00353243 6.38071 -1.20263)
(-0.00179586 9.4858 -1.79915)
(0.00511765 26.3342 -5.0259)
(0.0201787 52.8424 -10.0939)
(0.0405136 80.88 -15.4193)
(0.0446259 96.7707 -18.3715)
(0.0233615 95.7891 -18.1042)
(0.00252462 89.0879 -16.8373)
(-0.00164642 76.6797 -14.5348)
(0.00178655 61.1987 -11.718)
(0.0131924 43.3426 -8.33156)
(0.0236608 21.8933 -4.22342)
(0.0341909 4.52393 -0.838365)
(0.046254 -0.0374915 -0.0400348)
(0.0242368 -0.142915 -0.133039)
(0.00335 0.375358 -0.294044)
(0.0180006 4.44173 -1.0137)
(0.0350063 15.3125 -2.52754)
(0.0651319 37.2917 -5.76829)
(0.0822828 69.2265 -13.1705)
(0.064436 84.8444 -16.9708)
(0.0517246 82.1185 -16.216)
(0.0421695 73.5143 -14.4945)
(0.0386997 72.9983 -14.4343)
(0.0576195 75.1047 -14.8575)
(0.0930588 72.9664 -14.8722)
(0.102492 65.3642 -12.3346)
(0.0380267 53.3317 -9.76002)
(-0.0557102 41.4389 -7.28364)
(-0.114289 32.4037 -5.72356)
(-0.0922253 24.4625 -4.44106)
(-0.0153761 16.2786 -2.88882)
(0.055631 10.5556 -1.76452)
(0.0535097 9.18341 -1.35636)
(0.378075 9.44436 -1.55919)
(8.45823 14.3367 -2.83547)
(137.073 78.349 -10.8905)
(472.1 871.807 1.8193)
(205.427 1378.8 -151.168)
(-420.609 722.577 -525.768)
(-341.38 -0.991541 -304.069)
(-60.1099 -6.46366 -22.6843)
(-1.68323 -0.0488375 -0.141119)
(-0.00126671 -5.44684e-05 5.55005e-05)
(4.16603e-06 -4.85888e-06 3.73433e-06)
(1.08856e-06 -2.9416e-07 1.7738e-07)
(6.0497e-08 -1.11327e-08 5.14416e-09)
(1.7301e-09 -2.52207e-10 9.12471e-11)
(2.8916e-11 -3.40519e-12 1.01466e-12)
(2.90243e-13 -2.79915e-14 7.22857e-15)
(1.78973e-15 -1.39915e-16 3.27593e-17)
(6.77431e-18 -4.22616e-19 9.25683e-20)
(1.55542e-20 -7.14461e-22 1.50042e-22)
(2.02752e-23 -5.35107e-25 1.0937e-25)
(1.0315 85.5522 -19.1808)
(0.287294 173.538 -38.6123)
(-0.986078 128.125 -28.5602)
(-0.243329 24.8454 -5.54322)
(0.00693577 0.385209 -0.0935851)
(0.00930432 -0.0247912 -0.00564175)
(0.00519301 -0.0175184 0.0130855)
(0.00364131 -0.0104016 0.0281357)
(0.00771388 0.268407 -0.0215896)
(0.0295275 2.41926 -0.479491)
(0.0762139 11.3646 -2.43542)
(0.103783 24.3321 -5.26523)
(0.0577999 25.8962 -5.57937)