/*--------------------------------*- C++ -*----------------------------------*\
| =========                 |                                                 |
| \\      /  F ield         | OpenFOAM: The Open Source CFD Toolbox           |
|  \\    /   O peration     | Version:  2.1.1                                 |
|   \\  /    A nd           | Web:      www.OpenFOAM.org                      |
|    \\/     M anipulation  |                                                 |
\*---------------------------------------------------------------------------*/
FoamFile
{
    version     2.0;
    format      ascii;
    class       volVectorField;
    location    "0.00105";
    object      gradAlphaUSE;
}
// * * * * * * * * * * * * * * * * * * * * * * * * * * * * * * * * * * * * * //

dimensions      [0 0 0 0 0 0 0];

internalField   nonuniform List<vector> 
36520
(
(-4.84257e-05 3.86807e-05 0.000258005)
(-4.5549e-05 4.86414e-05 0.000261342)
(5.86425e-06 7.2426e-05 0.000327401)
(7.11594e-06 9.43101e-05 0.000394263)
(8.78074e-06 0.000124138 0.00048485)
(1.01008e-05 0.000156043 0.000563507)
(1.08053e-05 0.000190683 0.000637129)
(1.06228e-05 0.000223687 0.000690217)
(9.74427e-06 0.000255303 0.000734143)
(8.57485e-06 0.000281559 0.00076684)
(7.82271e-06 0.000305699 0.00080137)
(7.93545e-06 0.000326913 0.000839273)
(9.28646e-06 0.000350471 0.00088844)
(1.14673e-05 0.00037718 0.000947548)
(1.43993e-05 0.000409248 0.00101707)
(1.83037e-05 0.000447108 0.00110668)
(2.41212e-05 0.000494792 0.00122742)
(3.30121e-05 0.000560117 0.00140166)
(4.59861e-05 0.00065422 0.00164482)
(6.34549e-05 0.000789444 0.00197608)
(8.51642e-05 0.000975504 0.00240068)
(0.000110193 0.0012183 0.00291873)
(0.000136658 0.00151839 0.00351085)
(0.0001617 0.00187021 0.00413814)
(0.000181504 0.00226249 0.00473493)
(0.000190971 0.00267798 0.00522846)
(0.000184601 0.00308973 0.00553852)
(0.000159107 0.00346206 0.005591)
(0.000117174 0.00375215 0.00531329)
(6.98542e-05 0.00392063 0.00466434)
(3.80331e-05 0.0039522 0.00366068)
(5.2777e-05 0.00389977 0.00242449)
(0.000148893 0.00392963 0.00118859)
(0.000347311 0.0043084 0.000219234)
(0.000631125 0.00528125 -0.000441658)
(0.000948258 0.00691345 -0.00102541)
(0.00123839 0.00907062 -0.00185339)
(0.00144893 0.01152 -0.0030976)
(0.00152963 0.0140485 -0.00466319)
(0.00141881 0.0164594 -0.00626675)
(0.00102553 0.0183248 -0.00772235)
(-5.67289e-06 0.0184376 -0.00851774)
(-0.00146107 0.0161326 -0.00902839)
(-0.00221352 0.0124143 -0.00819924)
(-0.00156442 0.0097116 -0.00593964)
(-0.000890376 0.00955086 -0.00473138)
(-0.00221332 0.00858708 -0.00233762)
(-0.0019758 0.00184039 0.00567581)
(-0.00021876 1.64171e-05 6.88364e-05)
(-2.29836e-06 6.41738e-07 3.14098e-06)
(-5.43175e-08 7.09362e-09 3.70869e-08)
(-3.94926e-10 5.81521e-11 2.88923e-10)
(-2.16435e-12 4.53296e-13 1.85655e-12)
(-1.08544e-14 3.01624e-15 1.08166e-14)
(-5.2333e-17 1.469e-17 4.74639e-17)
(-2.13516e-19 5.11414e-20 1.47593e-19)
(-6.24161e-22 1.22652e-22 3.17791e-22)
(-1.25946e-24 1.9785e-25 4.53075e-25)
(-1.71036e-27 1.92827e-28 4.03802e-28)
(-1.42101e-30 9.02788e-32 1.6656e-31)
(-4.69062e-05 0.000363432 0.000823827)
(-1.25233e-05 0.000580736 0.000913098)
(6.92403e-05 0.000769222 0.00106318)
(8.21807e-05 0.000978593 0.00119076)
(8.94438e-05 0.00119347 0.00134661)
(8.26514e-05 0.00138768 0.00142563)
(7.11461e-05 0.00155705 0.0014628)
(5.67948e-05 0.0016838 0.00142129)
(4.61939e-05 0.0017868 0.00135074)
(4.05517e-05 0.00186787 0.00124891)
(4.22903e-05 0.00195696 0.00114446)
(4.93883e-05 0.00204864 0.00103848)
(6.08488e-05 0.00216246 0.000937077)
(7.27296e-05 0.00229004 0.000840597)
(9.02002e-05 0.00244114 0.000752252)
(0.000118524 0.00263612 0.000689091)
(0.00016468 0.00291947 0.00065974)
(0.000231903 0.00334725 0.00067234)
(0.000319663 0.00396686 0.000718156)
(0.000423472 0.00481884 0.000784521)
(0.000533965 0.00591714 0.000861611)
(0.000638471 0.00725672 0.000936688)
(0.000716521 0.00880149 0.000986751)
(0.000743239 0.0104868 0.000985927)
(0.000698772 0.0122274 0.000910563)
(0.000571265 0.0139351 0.000748466)
(0.000354879 0.0154953 0.000537359)
(5.03388e-05 0.0167329 0.000140276)
(-0.000323631 0.017397 -0.00043013)
(-0.000713772 0.0172404 -0.00108575)
(-0.00102241 0.0163249 -0.00172509)
(-0.00111688 0.0151548 -0.00218788)
(-0.000895175 0.014587 -0.00232935)
(-0.000427748 0.0152762 -0.00257799)
(3.28261e-05 0.0171055 -0.00311503)
(0.000264375 0.0190919 -0.00397923)
(0.000236538 0.0199332 -0.00513995)
(9.31705e-05 0.0192105 -0.00653397)
(-4.21189e-07 0.0181256 -0.00808829)
(-5.96058e-05 0.0180754 -0.00967281)
(-5.82453e-05 0.0174717 -0.0110147)
(-0.00032656 -0.0868674 -0.487551)
(-0.000183316 -0.164745 -0.853895)
(-6.17943e-05 -0.178171 -0.916483)
(-8.17612e-06 -0.180372 -0.927155)
(6.02893e-05 -0.17407 -0.895302)
(0.00156206 -0.0738555 -0.429545)
(-0.000788259 0.0169793 0.0358946)
(-0.00293164 0.000213105 0.000433842)
(-3.51102e-05 1.64012e-05 3.87944e-05)
(-1.55196e-06 3.07212e-07 7.76151e-07)
(-1.80788e-08 3.60337e-09 8.59072e-09)
(-1.39923e-10 3.56422e-11 7.20041e-11)
(-8.95938e-13 2.67956e-13 4.82611e-13)
(-5.20847e-15 1.41867e-15 2.24289e-15)
(-2.28368e-17 5.3088e-18 7.26625e-18)
(-7.09652e-20 1.36864e-20 1.60992e-20)
(-1.52697e-22 2.34733e-23 2.34295e-23)
(-2.17583e-25 2.46451e-26 2.11371e-26)
(-1.93714e-28 1.19585e-29 8.76405e-30)
(-2.83503e-06 0.00122804 0.00126697)
(7.35676e-05 0.00165627 0.00105132)
(0.000142579 0.00211814 0.000978184)
(0.000146939 0.00256236 0.000849037)
(0.000125428 0.00290373 0.000718517)
(7.00399e-05 0.00311445 0.000521686)
(1.28286e-05 0.00324315 0.000311502)
(-3.92108e-05 0.00324807 8.17078e-05)
(-6.92469e-05 0.00323156 -0.000153285)
(-8.6625e-05 0.00319886 -0.000395534)
(-8.91765e-05 0.00321134 -0.000659274)
(-8.72612e-05 0.00325756 -0.00094075)
(-8.09125e-05 0.00336493 -0.00118758)
(-7.20574e-05 0.00354937 -0.00131348)
(-5.25025e-05 0.00378703 -0.0014122)
(-1.90051e-05 0.00410096 -0.00153979)
(2.56533e-05 0.00454045 -0.00171158)
(7.44723e-05 0.00515809 -0.00195581)
(0.000118429 0.00595128 -0.00229104)
(0.000156961 0.00689171 -0.00273848)
(0.00018916 0.00787648 -0.00330015)
(0.000207204 0.00879783 -0.00397241)
(0.000202177 0.00955175 -0.00473159)
(0.000170165 0.0101106 -0.005538)
(0.000113397 0.0105243 -0.00632769)
(5.545e-05 0.0108378 -0.00702511)
(-6.76026e-05 0.0010698 -0.0426567)
(-0.000207537 -0.0627231 -0.266948)
(-0.000277618 -0.101696 -0.404028)
(-0.000277031 -0.13116 -0.507272)
(-0.000216558 -0.151362 -0.577855)
(-0.000100095 -0.164575 -0.624383)
(-2.04182e-05 -0.173366 -0.656419)
(-8.96466e-06 -0.180132 -0.682694)
(-9.33092e-06 -0.186882 -0.710156)
(-9.8117e-06 -0.19614 -0.746455)
(-1.04641e-05 -0.210557 -0.797866)
(-1.12212e-05 -0.22805 -0.85796)
(-1.19315e-05 -0.244009 -0.911253)
(-1.23384e-05 -0.254421 -0.944768)
(-0.00309112 -0.25908 -0.95881)
(-0.00676544 -0.260068 -0.963313)
(-0.00529816 -0.280276 -0.959002)
(-0.0025833 -0.303561 -0.952249)
(0.000940158 -0.332701 -0.942447)
(0.00612805 -0.38384 -0.922501)
(0.0120336 -0.470676 -0.879409)
(0.0287165 -0.377569 -0.838544)
(-0.017757 0.00104263 0.000894212)
(-0.00021012 0.000157858 0.000242918)
(-1.8584e-05 5.69432e-06 9.79317e-06)
(-3.7088e-07 9.84658e-08 1.60481e-07)
(-4.10594e-09 1.21442e-09 1.84816e-09)
(-3.44852e-11 1.00838e-11 1.40267e-11)
(-2.31533e-13 5.72801e-14 7.13673e-14)
(-1.07845e-15 2.25989e-16 2.48351e-16)
(-3.50388e-18 6.0643e-19 5.81593e-19)
(-7.79037e-21 1.07242e-21 8.86e-22)
(-1.13878e-23 1.15212e-24 8.25043e-25)
(-1.03184e-26 5.68095e-28 3.53883e-28)
(-0.000132759 0.00170198 0.000642451)
(-0.000116806 0.00254878 8.44656e-05)
(5.50609e-06 0.00304835 -0.000418021)
(-1.32921e-05 0.00333979 -0.00096179)
(-4.65541e-05 0.00341174 -0.00152952)
(-9.81663e-05 0.00332141 -0.00181656)
(-0.000132393 0.00321236 -0.00185605)
(-0.000163358 0.00300562 -0.00180734)
(-0.000181044 0.00282009 -0.00173168)
(-0.000198948 0.00265909 -0.00162638)
(-0.000212587 0.00258741 -0.00158967)
(-0.000193914 0.00185013 -0.00450837)
(-0.000104392 -0.00184574 -0.0171335)
(-2.01932e-05 -0.00908871 -0.0415225)
(-5.86719e-07 -0.0180992 -0.0725375)
(-8.51647e-07 -0.0295726 -0.112584)
(-1.24046e-06 -0.0464538 -0.170906)
(-1.78458e-06 -0.0705247 -0.252667)
(-2.51292e-06 -0.103742 -0.362822)
(-3.38166e-06 -0.14506 -0.49586)
(-4.24995e-06 -0.188415 -0.631173)
(-4.98048e-06 -0.226227 -0.745996)
(-5.51967e-06 -0.255182 -0.831276)
(-5.85237e-06 -0.273614 -0.884072)
(-6.03126e-06 -0.283656 -0.91239)
(-0.000510277 -0.288885 -0.927235)
(-0.00345516 -0.291434 -0.935431)
(-0.00468719 -0.291614 -0.940579)
(-0.00417859 -0.291004 -0.943533)
(-0.00401126 -0.28942 -0.945326)
(-0.00355874 -0.287256 -0.946649)
(-0.00296238 -0.285047 -0.94787)
(-0.002617 -0.282721 -0.948981)
(-0.00287884 -0.27993 -0.949984)
(-0.00428345 -0.277229 -0.950885)
(-0.00813322 -0.277135 -0.951352)
(-0.0158824 -0.280062 -0.951866)
(-0.0291507 -0.290476 -0.950858)
(-0.0500584 -0.31389 -0.945057)
(-0.0737816 -0.352145 -0.931698)
(-0.0835543 -0.403082 -0.910857)
(-0.0669829 -0.459761 -0.885348)
(-0.0357194 -0.51399 -0.856987)
(-0.00958245 -0.569602 -0.821824)
(0.00973215 -0.62378 -0.781498)
(0.0240344 -0.723482 -0.689871)
(0.0352696 -0.815756 -0.577207)
(0.0995411 -0.751609 -0.651162)
(0.834132 -0.00468013 -0.0172297)
(-0.000487862 0.000712837 0.000740262)
(-0.000119669 6.36692e-05 8.58468e-05)
(-4.7609e-06 1.69088e-06 2.25053e-06)
(-7.80608e-08 2.52555e-08 3.20694e-08)
(-9.01194e-10 2.42016e-10 2.84875e-10)
(-6.8685e-12 1.53773e-12 1.64148e-12)
(-3.51517e-14 6.64677e-15 6.32047e-15)
(-1.23245e-16 1.92447e-17 1.60971e-17)
(-2.91293e-19 3.63628e-20 2.63771e-20)
(-4.48913e-22 4.1252e-23 2.60531e-23)
(-4.2318e-25 2.14531e-26 1.18316e-26)
(-0.000224841 0.00187306 -0.000712154)
(-0.000359369 0.00265093 -0.00141249)
(-0.000308857 0.00306302 -0.00183386)
(-0.000356494 0.00245687 -0.00439652)
(-0.000276606 0.0020258 -0.00877779)
(-9.39052e-05 0.0012212 -0.0185199)
(-1.68543e-07 5.67481e-05 -0.0365803)
(-1.5337e-07 -0.00191029 -0.067802)
(-1.44264e-07 -0.00454587 -0.112449)
(-2.5916e-05 -0.0112123 -0.176879)
(-0.00109157 -0.0260142 -0.262604)
(-0.0048523 -0.050167 -0.363421)
(-0.00965533 -0.0829927 -0.475026)
(-0.0117818 -0.118549 -0.584767)
(-0.0122697 -0.150493 -0.678386)
(-0.0136898 -0.18086 -0.75709)
(-0.0152897 -0.212461 -0.82415)
(-0.0171443 -0.239328 -0.871899)
(-0.0191185 -0.26091 -0.904369)
(-0.0204108 -0.277413 -0.925379)
(-0.0205636 -0.289516 -0.937871)
(-0.02107 -0.297603 -0.944244)
(-0.0209427 -0.303082 -0.947307)
(-0.019195 -0.306281 -0.948759)
(-0.0166999 -0.307774 -0.949507)
(-0.0144829 -0.308079 -0.950016)
(-0.0130374 -0.307797 -0.950391)
(-0.0113039 -0.307028 -0.950764)
(-0.00820406 -0.306246 -0.951079)
(-0.00501848 -0.306264 -0.95111)
(-0.00374542 -0.306868 -0.950897)
(-0.00342783 -0.307305 -0.950723)
(-0.0022121 -0.307668 -0.950633)
(-0.00110234 -0.308247 -0.950508)
(-0.00210621 -0.309311 -0.950213)
(-0.00782297 -0.311917 -0.949371)
(-0.020913 -0.319374 -0.94677)
(-0.0419014 -0.336063 -0.940442)
(-0.0736321 -0.365925 -0.927438)
(-0.114246 -0.409414 -0.905018)
(-0.146165 -0.448228 -0.881825)
(-0.131567 -0.505906 -0.852472)
(-0.0680633 -0.590675 -0.804025)
(-0.0196546 -0.655536 -0.754903)
(0.00962172 -0.714228 -0.699842)
(0.0246869 -0.761613 -0.647557)
(0.0399015 -0.754254 -0.655363)
(0.149374 -0.665445 -0.731305)
(0.996406 -0.0309518 -0.0528708)
(0.0470111 0.00174726 0.00084185)
(-0.000393388 0.000500939 0.000555933)
(-4.31506e-05 1.88271e-05 2.10879e-05)
(-1.12766e-06 3.52989e-07 3.80077e-07)
(-1.61077e-08 4.02743e-09 4.04148e-09)
(-1.43921e-10 2.95267e-11 2.69575e-11)
(-8.36309e-13 1.44033e-13 1.17125e-13)
(-3.2562e-15 4.63041e-16 3.30135e-16)
(-8.40859e-18 9.60634e-19 5.90759e-19)
(-1.40201e-20 1.18217e-21 6.27836e-22)
(-1.41089e-23 6.64919e-25 3.05891e-25)
(-0.000413342 0.00118511 -0.00257344)
(-0.000559814 -0.00228886 -0.0200053)
(-0.00131544 -0.0050044 -0.0649144)
(-0.00280005 -0.0127376 -0.177866)
(-0.00461904 -0.0200991 -0.347482)
(-0.00689594 -0.0274 -0.51672)
(-0.0098875 -0.0232912 -0.624637)
(-0.010046 -0.0755067 -0.764594)
(-0.0101492 -0.1169 -0.845683)
(-0.0101749 -0.1538 -0.896098)
(-0.00988565 -0.185201 -0.925043)
(-0.00992274 -0.209358 -0.940531)
(-0.0103393 -0.227498 -0.948737)
(-0.0108853 -0.238212 -0.95346)
(-0.0121073 -0.244372 -0.956528)
(-0.015163 -0.250329 -0.958311)
(-0.0190875 -0.256708 -0.959157)
(-0.0243205 -0.26346 -0.959123)
(-0.0319953 -0.271785 -0.958092)
(-0.0420977 -0.281647 -0.956081)
(-0.0532938 -0.29173 -0.953362)
(-0.0707743 -0.301063 -0.949813)
(-0.0949126 -0.309127 -0.945401)
(-0.115308 -0.315979 -0.941051)
(-0.118864 -0.321888 -0.938739)
(-0.101069 -0.327575 -0.938938)
(-0.0606824 -0.33691 -0.939189)
(-0.0244255 -0.352446 -0.935187)
(-0.00914306 -0.373573 -0.927248)
(0.00165664 -0.385701 -0.922336)
(0.00876402 -0.383223 -0.923371)
(0.00156428 -0.385829 -0.922311)
(-0.0162526 -0.393742 -0.918777)
(-0.0233779 -0.384464 -0.922553)
(-0.0183454 -0.362812 -0.931437)
(-0.0227383 -0.344251 -0.938407)
(-0.050535 -0.332643 -0.94155)
(-0.0850104 -0.327415 -0.940951)
(-0.110669 -0.335244 -0.935557)
(-0.138882 -0.361753 -0.921847)
(-0.154628 -0.395485 -0.905353)
(-0.143728 -0.434848 -0.888956)
(-0.0995202 -0.532303 -0.840682)
(-0.037685 -0.629188 -0.776338)
(-0.00610558 -0.693394 -0.720533)
(0.0133566 -0.688148 -0.725447)
(0.0664653 -0.660712 -0.747691)
(0.453263 -0.591569 -0.666774)
(0.99927 -0.0235108 -0.027206)
(0.939441 0.000773682 0.000988942)
(-0.000619422 0.00319238 0.00311719)
(-0.000293567 0.000152347 0.000143358)
(-1.10376e-05 3.51493e-06 3.13485e-06)
(-1.99408e-07 4.80197e-08 3.95841e-08)
(-2.13548e-09 4.12576e-10 3.0711e-10)
(-1.4402e-11 2.31499e-12 1.52057e-12)
(-6.35295e-14 8.42727e-15 4.79886e-15)
(-1.82563e-16 1.95592e-17 9.48025e-18)
(-3.34809e-19 2.65848e-20 1.09741e-20)
(-3.65577e-22 1.64257e-23 5.80316e-24)
(-0.00909322 0.00305252 -0.00445648)
(-0.0313578 0.0261976 -0.0671357)
(-0.0503232 0.0198135 -0.490069)
(-0.0247132 -0.10535 -0.887554)
(-0.0139593 -0.151317 -0.955379)
(-0.0127266 -0.133707 -0.968258)
(-0.0382109 -0.00711961 -0.964935)
(-0.041071 -0.054182 -0.977691)
(-0.033797 -0.118025 -0.982076)
(-0.0307137 -0.154969 -0.981559)
(-0.0283458 -0.179474 -0.979744)
(-0.0280286 -0.191491 -0.978575)
(-0.0285996 -0.199471 -0.977521)
(-0.0289376 -0.209128 -0.975836)
(-0.0306568 -0.223258 -0.972917)
(-0.0344542 -0.239818 -0.969089)
(-0.0389475 -0.250678 -0.966374)
(-0.047038 -0.26105 -0.963417)
(-0.0632554 -0.275813 -0.958493)
(-0.0850519 -0.297148 -0.950508)
(-0.0969193 -0.325218 -0.940217)
(-0.0982986 -0.355995 -0.928915)
(-0.0992041 -0.399232 -0.91111)
(-0.101763 -0.464294 -0.879476)
(-0.0904163 -0.531279 -0.842046)
(-0.0810649 -0.567163 -0.819343)
(-0.0860724 -0.478519 -0.873642)
(-0.0561943 -0.363605 -0.929692)
(-0.0304469 -0.390265 -0.92006)
(-0.0420507 -0.653906 -0.755282)
(-0.0150052 -0.709233 -0.704709)
(0.0280498 -0.698144 -0.715307)
(0.0173483 -0.708813 -0.705073)
(-0.0389077 -0.597184 -0.801033)
(-0.10802 -0.483646 -0.868426)
(-0.178222 -0.507075 -0.843118)
(-0.342915 -0.458773 -0.819557)
(-0.688104 -0.279575 -0.669428)
(-0.931417 -0.0756117 -0.355846)
(-0.970552 -0.0161746 -0.24026)
(-0.974771 -0.0261721 -0.221634)
(-0.868412 -0.181397 -0.461465)
(-0.255239 -0.487028 -0.835258)
(-0.0685358 -0.585694 -0.80763)
(-0.0241502 -0.705019 -0.708777)
(0.0203391 -0.709561 -0.70435)
(0.191007 -0.718779 -0.668485)
(0.926652 -0.286826 -0.242987)
(0.999913 -0.00962 -0.00708)
(0.994385 0.000940922 0.000738565)
(-0.00881982 0.0187442 0.0141218)
(-0.00175898 0.000968743 0.000703384)
(-8.04464e-05 2.58087e-05 1.74363e-05)
(-1.76609e-06 4.13076e-07 2.51807e-07)
(-2.25322e-08 4.15826e-09 2.22702e-09)
(-1.7763e-10 2.71105e-11 1.24218e-11)
(-8.99301e-13 1.13413e-13 4.34599e-14)
(-2.92079e-15 2.99368e-16 9.36171e-17)
(-5.98581e-18 4.57135e-19 1.15957e-19)
(-7.21797e-21 3.15261e-22 6.49471e-23)
(-0.0344829 0.00339476 0.000374712)
(-0.332599 0.0901885 0.00773042)
(-0.784138 0.246218 -0.00109746)
(-0.878914 0.336776 -0.0221794)
(-0.753826 0.589543 -0.0625509)
(0.0213125 0.964188 -0.0667221)
(-0.00484315 -0.0254443 -0.998079)
(-0.0242023 -0.0570871 -0.997395)
(-0.0434855 -0.0517416 -0.997028)
(-0.0547069 -0.0522117 -0.996563)
(-0.0428714 -0.062887 -0.996742)
(-0.036904 -0.0715001 -0.996456)
(-0.0386333 -0.0562559 -0.997336)
(-0.0389975 -0.0526986 -0.997526)
(-0.0504933 -0.0454388 -0.997353)
(-0.0700472 -0.0340082 -0.996601)
(-0.0770636 -0.0520767 -0.995321)
(-0.0789577 -0.0974997 -0.991793)
(-0.0807429 -0.138252 -0.986843)
(-0.0796494 -0.173591 -0.981379)
(-0.0671697 -0.204084 -0.976473)
(-0.047762 -0.223654 -0.97336)
(-0.0337507 -0.226576 -0.973304)
(-0.0315212 -0.214896 -0.976053)
(-0.0387533 -0.201572 -0.978653)
(-0.04409 -0.191432 -0.980474)
(-0.0428851 -0.168381 -0.984754)
(-0.039915 -0.151028 -0.987692)
(-0.0424314 -0.142552 -0.988849)
(-0.0440932 -0.134644 -0.989888)
(-0.0245166 -0.126406 -0.991654)
(0.00406102 -0.120632 -0.992668)
(0.0268403 -0.111379 -0.993395)
(0.0323112 -0.0926701 -0.995153)
(0.0177189 -0.0691328 -0.99743)
(0.00616755 -0.0495334 -0.998733)
(0.00215855 -0.0188314 -0.999794)
(-0.00403829 0.121615 -0.992508)
(-0.476915 0.761841 0.438023)
(-0.539554 0.382952 0.749772)
(-0.699277 0.31159 0.643355)
(-0.956485 0.123247 0.264471)
(-0.99943 -0.0280258 -0.0188037)
(-0.414438 -0.624822 -0.661694)
(-0.0394892 -0.795857 -0.604195)
(0.119636 -0.838437 -0.531706)
(0.607112 -0.703848 -0.368798)
(0.995728 -0.0904268 -0.0186586)
(0.999988 -0.00207356 0.00081465)
(0.99649 0.00189366 0.000644836)
(-0.0738139 0.0683797 0.0407865)
(-0.00927415 0.00434685 0.00257245)
(-0.000456673 0.000132842 7.1386e-05)
(-1.14251e-05 2.46142e-06 1.12876e-06)
(-1.68441e-07 2.90158e-08 1.05356e-08)
(-1.53624e-09 2.21623e-10 5.81815e-11)
(-8.93987e-12 1.07976e-12 1.80362e-13)
(-3.30548e-14 3.29262e-15 2.71111e-16)
(-7.64953e-17 5.74923e-18 7.93854e-20)
(-1.02994e-19 4.50352e-21 -1.78587e-22)
(0.000730806 -0.92073 -0.390182)
(0.000730864 -0.920818 -0.389984)
(0.000730924 -0.920903 -0.389785)
(0.000731009 -0.920988 -0.389585)
(0.000731111 -0.921085 -0.389355)
(0.000107413 -0.921176 -0.389141)
(-0.000370789 -0.921232 -0.38901)
(0.000165156 -0.920901 -0.389793)
(0.000559599 -0.92014 -0.391585)
(8.01213e-05 -0.919807 -0.392369)
(0.000182878 -0.920575 -0.390565)
(0.000666189 -0.920881 -0.389842)
(0.000801024 -0.92085 -0.389913)
(0.000737664 -0.92043 -0.390904)
(0.000915267 -0.919999 -0.391918)
(0.000741909 -0.919858 -0.392246)
(-0.000483873 -0.917783 -0.397072)
(-0.00435239 -0.911171 -0.411986)
(-0.00719531 -0.907042 -0.420958)
(-0.0087716 -0.903359 -0.428776)
(-0.00954617 -0.90173 -0.43218)
(-0.00987242 -0.902218 -0.431157)
(-0.00861467 -0.906618 -0.421858)
(-0.00591634 -0.911853 -0.410472)
(-0.0031702 -0.915358 -0.402628)
(-0.00125451 -0.91771 -0.397248)
(-0.000387032 -0.918878 -0.394541)
(-0.00022352 -0.919241 -0.393696)
(-0.000655009 -0.919223 -0.393736)
(-0.00107316 -0.919171 -0.393857)
(-0.000548701 -0.919251 -0.393672)
(0.000317387 -0.919176 -0.393846)
(0.000467777 -0.918675 -0.395014)
(0.000229048 -0.917873 -0.396874)
(0.000610918 -0.917097 -0.398662)
(0.00293516 -0.916549 -0.399911)
(0.00705048 -0.916367 -0.400276)
(0.00762726 -0.916087 -0.400906)
(0.00283159 -0.915261 -0.402851)
(-0.00136659 -0.914998 -0.403455)
(-0.010236 -0.918888 -0.394384)
(-0.287282 -0.908183 -0.304418)
(-0.949983 -0.310556 0.0329642)
(-0.563055 -0.74586 -0.355895)
(-0.138787 -0.782207 -0.607363)
(0.297902 -0.794756 -0.528788)
(0.853158 -0.476585 -0.212103)
(0.997425 -0.0717143 0.000433519)
(0.99998 -0.0021562 0.00371069)
(0.992718 0.00749583 0.00367866)
(-0.134358 0.169601 0.104975)
(-0.034494 0.0141541 0.00848482)
(-0.00202664 0.000521188 0.000297036)
(-5.73309e-05 1.14581e-05 6.16236e-06)
(-9.57485e-07 1.57937e-07 8.01855e-08)
(-9.839e-09 1.37924e-09 6.6535e-10)
(-6.36884e-11 7.51201e-12 3.47571e-12)
(-2.57794e-13 2.51384e-14 1.12572e-14)
(-6.45064e-16 4.74968e-17 2.07663e-17)
(-9.27701e-19 3.99822e-20 1.71768e-20)
(0.000674939 -0.973608 -0.228209)
(0.000674923 -0.973465 -0.228825)
(0.000674878 -0.973348 -0.229328)
(0.000674845 -0.973216 -0.229887)
(0.000674855 -0.973081 -0.23046)
(0.000645525 -0.972941 -0.23105)
(0.000259498 -0.972867 -0.231361)
(-0.000434782 -0.972848 -0.23144)
(-0.000477977 -0.972688 -0.232114)
(0.000388293 -0.97251 -0.23286)
(0.000832149 -0.97238 -0.233402)
(0.000669868 -0.972258 -0.233907)
(0.000431081 -0.97211 -0.234523)
(0.00049782 -0.971996 -0.234994)
(0.000938969 -0.971838 -0.235647)
(0.000934726 -0.971625 -0.236523)
(0.000495263 -0.971397 -0.237458)
(-0.000153668 -0.971135 -0.238527)
(-0.00283102 -0.970647 -0.240485)
(-0.00684959 -0.968892 -0.24738)
(-0.0083172 -0.968751 -0.247887)
(-0.009308 -0.970316 -0.241654)
(-0.00811181 -0.971192 -0.238155)
(-0.00548608 -0.971285 -0.237853)
(-0.002602 -0.971093 -0.238687)
(-0.000469089 -0.970893 -0.239511)
(0.000627701 -0.970829 -0.239773)
(0.000746843 -0.970835 -0.239748)
(0.00032071 -0.970851 -0.239682)
(0.000167759 -0.9709 -0.239486)
(0.000332761 -0.970925 -0.239382)
(0.000364574 -0.970791 -0.239927)
(0.000388593 -0.970656 -0.24047)
(0.000530662 -0.970587 -0.24075)
(0.00055301 -0.970619 -0.24062)
(0.000741793 -0.970729 -0.240174)
(0.000959028 -0.970516 -0.241034)
(0.000575281 -0.969558 -0.244861)
(0.000265865 -0.968857 -0.247621)
(0.00139388 -0.968732 -0.248103)
(-0.00013023 -0.969029 -0.246945)
(-0.127986 -0.961622 -0.242698)
(-0.743877 -0.653113 -0.14174)
(-0.46592 -0.873091 -0.143634)
(-0.151165 -0.952066 -0.265933)
(0.348212 -0.890585 -0.292586)
(0.88551 -0.440754 -0.146994)
(0.997939 -0.0604059 -0.021618)
(0.999986 -0.000633587 -0.000778303)
(0.986957 0.0114847 0.00521018)
(-0.114789 0.191869 0.0685961)
(-0.039158 0.0148471 0.00532382)
(-0.00233286 0.000553434 0.000190356)
(-6.75314e-05 1.23406e-05 3.99103e-06)
(-1.14814e-06 1.69704e-07 5.18117e-08)
(-1.1842e-08 1.45389e-09 4.23299e-10)
(-7.57676e-11 7.67513e-12 2.1576e-12)
(-2.99593e-13 2.46723e-14 6.762e-15)
(-7.24349e-16 4.45949e-17 1.2024e-17)
(-1.00061e-18 3.57768e-20 9.54572e-21)
(0.000228954 -0.981994 -0.188909)
(0.00024053 -0.981783 -0.190002)
(0.000249901 -0.981585 -0.191022)
(0.000240826 -0.981374 -0.192102)
(0.000240834 -0.981157 -0.19321)
(0.000139515 -0.980903 -0.194492)
(4.32772e-05 -0.980634 -0.195845)
(8.36763e-05 -0.980637 -0.195829)
(-1.82915e-05 -0.980684 -0.195594)
(2.08144e-05 -0.980501 -0.196511)
(0.00012557 -0.980172 -0.198146)
(0.000200721 -0.979938 -0.1993)
(0.000224795 -0.97977 -0.200124)
(0.000175231 -0.979677 -0.200578)
(3.14797e-05 -0.979459 -0.201642)
(-0.000187574 -0.9791 -0.203379)
(-0.000377931 -0.979005 -0.203833)
(-0.000862501 -0.979327 -0.202279)
(-0.00929717 -0.981412 -0.191667)
(-0.254408 -0.949717 -0.182041)
(-0.0559101 -0.963362 -0.262006)
(0.00225005 -0.993514 -0.113574)
(-0.00278993 -0.985597 -0.169068)
(-0.00170067 -0.980462 -0.196697)
(-0.00071602 -0.978529 -0.206105)
(-0.000128866 -0.978325 -0.207072)
(0.000217134 -0.978329 -0.207056)
(0.000286779 -0.978221 -0.207563)
(0.000120511 -0.978113 -0.208072)
(-4.16725e-05 -0.976705 -0.214587)
(-0.000161724 -0.97625 -0.216646)
(-1.26801e-05 -0.976106 -0.217293)
(0.000213784 -0.976624 -0.214954)
(0.000305406 -0.977666 -0.210165)
(0.000506648 -0.977924 -0.208958)
(0.00103549 -0.978775 -0.204934)
(0.00182252 -0.981566 -0.191111)
(0.00158797 -0.988598 -0.150562)
(-0.00275353 -0.99456 -0.10411)
(-0.00173331 -0.995015 -0.099689)
(-0.012369 -0.992273 -0.123439)
(-0.309864 -0.939956 -0.143051)
(-0.865277 -0.4981 -0.0564955)
(-0.565378 -0.824744 -0.0120302)
(-0.227309 -0.966507 -0.119138)
(0.365525 -0.817701 -0.444698)
(0.829334 -0.175547 -0.53046)
(0.976606 0.0382021 -0.211616)
(0.999085 0.0152709 -0.039711)
(0.994176 0.00228774 0.0114889)
(-0.206105 0.182836 0.0881027)
(-0.0511635 0.015767 0.00538896)
(-0.00313861 0.00059474 0.000171416)
(-9.0681e-05 1.3048e-05 3.28109e-06)
(-1.50937e-06 1.74348e-07 4.01168e-08)
(-1.51475e-08 1.43693e-09 3.16275e-10)
(-9.38139e-11 7.25242e-12 1.57782e-12)
(-3.57783e-13 2.21551e-14 4.84442e-15)
(-8.28653e-16 3.79693e-17 8.40998e-18)
(-1.09101e-18 2.87941e-20 6.47252e-21)
(-0.109331 0.983591 -0.115218)
(0.00014213 -0.894518 -0.446912)
(0.000100912 -0.892657 -0.450617)
(-0.0107367 -0.883365 -0.468307)
(-0.113686 -0.724295 -0.678879)
(-0.310321 -0.140767 -0.938668)
(-0.244665 -0.537546 -0.80562)
(-0.0504509 -0.83711 -0.544237)
(-0.0148401 -0.881104 -0.472551)
(-0.00545842 -0.89885 -0.438162)
(-0.00259942 -0.90544 -0.42442)
(-0.00229676 -0.908733 -0.417323)
(-0.00541541 -0.909929 -0.41467)
(-0.0140932 -0.912125 -0.409585)
(-0.0299322 -0.925406 -0.377651)
(-0.01426 -0.969076 -0.245946)
(0.0693048 -0.968639 0.237806)
(-0.186613 -0.835438 0.516444)
(-0.868501 -0.461843 0.17893)
(-0.726253 -0.0931275 0.680904)
(-0.0446131 -0.95787 0.283342)
(0.0865881 -0.96155 -0.260448)
(-0.125428 -0.955139 -0.268148)
(-0.298283 -0.935161 -0.190875)
(-0.0873077 -0.952447 -0.29182)
(0.119433 -0.681626 -0.721866)
(0.105039 -0.704766 -0.701601)
(0.0277995 -0.910361 -0.412834)
(-0.362031 -0.903053 -0.231053)
(-0.655686 -0.739776 -0.150811)
(-0.222024 -0.973212 -0.0588193)
(0.237449 -0.746625 -0.621367)
(0.400605 -0.624487 -0.670437)
(0.218043 -0.754715 -0.618727)
(-0.0349117 -0.854023 -0.519021)
(-0.000458784 -0.974154 -0.22578)
(0.0756638 -0.955302 -0.285715)
(0.0528729 -0.935521 -0.349235)
(0.0140465 -0.935653 -0.35258)
(0.0110408 -0.995143 -0.0974693)
(-0.525884 0.170651 0.833119)
(-0.965341 0.258404 0.0364881)
(-0.986347 -0.151249 -0.065134)
(-0.630164 -0.763515 -0.141202)
(-0.295359 -0.950787 -0.0936376)
(0.172249 -0.921198 -0.34889)
(0.735559 -0.487973 -0.469931)
(0.993428 -0.0173284 -0.113143)
(0.999914 0.00716952 -0.0107422)
(0.999577 0.00109035 0.00116094)
(-0.515345 0.110284 0.058239)
(-0.071312 0.0132479 0.00500594)
(-0.003495 0.000462389 0.000158857)
(-9.11154e-05 8.61879e-06 2.78089e-06)
(-1.36697e-06 9.62988e-08 2.97073e-08)
(-1.2223e-08 6.65325e-10 2.00771e-10)
(-6.70351e-11 2.84199e-12 8.59421e-13)
(-2.26716e-13 7.37714e-15 2.2656e-15)
(-4.64407e-16 1.07844e-17 3.37414e-18)
(-5.40195e-19 6.95347e-21 2.20526e-21)
(-0.164084 0.885347 0.4178)
(-0.00244208 -0.945869 0.324373)
(-0.0039231 -0.91062 0.413096)
(-0.0154528 -0.899696 0.43596)
(-0.17728 -0.862232 0.472198)
(-0.701612 -0.701502 0.087757)
(-0.231622 -0.627816 0.741454)
(-0.0619828 -0.794137 0.604153)
(-0.012738 -0.867726 0.496749)
(0.000550012 -0.886451 0.462765)
(0.00231807 -0.898085 0.439771)
(-0.000611407 -0.913027 0.40785)
(-0.00474318 -0.926808 0.375441)
(-0.00458999 -0.93107 0.36472)
(-0.00126649 -0.927774 0.373006)
(-0.0137275 -0.914472 0.404204)
(-0.179399 -0.917655 0.354058)
(-0.768338 -0.6284 -0.11896)
(-0.982182 -0.11423 -0.145748)
(-0.141891 -0.20992 0.967124)
(-0.0832903 -0.717581 0.691383)
(-0.0226418 -0.849102 0.527666)
(0.0460507 -0.86158 0.505463)
(-0.0197223 -0.810258 0.585697)
(-0.387479 -0.691206 0.609965)
(-0.460679 -0.652512 0.60163)
(0.414114 -0.793849 0.445257)
(0.453234 -0.856198 0.247911)
(0.116024 -0.968934 0.218301)
(0.00022514 -0.724067 0.689701)
(-0.191851 -0.673752 0.713594)
(-0.366186 -0.595646 0.714893)
(-0.230917 -0.79623 0.559132)
(0.190596 -0.944641 -0.266928)
(0.438383 -0.890168 -0.123955)
(0.233863 -0.96083 0.148565)
(0.00410473 -0.966792 0.255456)
(-0.0204919 -0.974026 0.225419)
(0.0430978 -0.98317 0.177405)
(0.116548 -0.986939 -0.110867)
(-0.288108 0.693362 -0.660409)
(-0.911997 0.366906 -0.183386)
(-0.98003 -0.185989 -0.0703501)
(-0.58089 -0.812563 0.0480402)
(-0.263509 -0.945471 0.191435)
(0.143002 -0.859819 0.490165)
(0.666176 -0.477757 0.572677)
(0.99155 -0.013192 0.129048)
(0.999917 0.00805371 0.00978756)
(0.999624 0.000977427 -0.00115551)
(-0.512837 0.109809 -0.0748342)
(-0.0702763 0.0131425 -0.00717779)
(-0.00340826 0.000460534 -0.000226477)
(-8.86743e-05 8.62355e-06 -3.87945e-06)
(-1.33314e-06 9.67477e-08 -4.05135e-08)
(-1.19565e-08 6.71032e-10 -2.67088e-10)
(-6.5785e-11 2.87757e-12 -1.11216e-12)
(-2.23155e-13 7.49789e-15 -2.85219e-15)
(-4.58457e-16 1.09974e-17 -4.15172e-18)
(-5.34685e-19 7.10975e-21 -2.66857e-21)
(-0.000850391 -0.982559 0.185943)
(-0.000203022 -0.987256 0.159139)
(0.000174983 -0.98362 0.180251)
(-4.67481e-05 -0.982452 0.186512)
(-0.00016458 -0.982413 0.186716)
(-0.000168633 -0.982458 0.186478)
(0.000544029 -0.982693 0.185218)
(0.000186005 -0.982481 0.186345)
(-0.000190889 -0.98227 0.187467)
(-0.000375084 -0.98224 0.187627)
(-0.000492048 -0.982308 0.187271)
(-0.000453059 -0.982452 0.186515)
(-0.000239642 -0.982604 0.185713)
(-2.78455e-05 -0.982605 0.185709)
(2.10957e-05 -0.982505 0.186236)
(-2.86718e-05 -0.982157 0.188059)
(-0.000298903 -0.982021 0.18877)
(-0.00106116 -0.981895 0.189416)
(-0.00743101 -0.983226 0.182209)
(-0.644425 0.522344 0.557778)
(-0.123167 0.726269 0.676082)
(-0.00702516 -0.78715 0.61663)
(-0.00395097 -0.974919 0.222497)
(-0.0022556 -0.986645 0.16286)
(-0.00172602 -0.988245 0.152862)
(-0.00116766 -0.982378 0.1869)
(-0.000744709 -0.980576 0.196137)
(-0.000617944 -0.981054 0.193729)
(-0.000562789 -0.981111 0.193441)
(-0.000520075 -0.981005 0.193978)
(-0.000752604 -0.980988 0.194063)
(-0.00124967 -0.979853 0.199717)
(-0.00154081 -0.982655 0.185433)
(-0.000701374 -0.983663 0.180016)
(0.0013241 -0.9849 0.173114)
(0.00347324 -0.984749 0.173939)
(0.0037094 -0.983909 0.178624)
(0.000930023 -0.984614 0.17473)
(-0.00519809 -0.986298 0.164875)
(-0.00576413 -0.989249 0.146109)
(-0.0394664 -0.985873 0.16276)
(-0.500913 -0.84905 0.167922)
(-0.866127 -0.495065 0.0688138)
(-0.476182 -0.879345 -0.00183503)
(-0.146504 -0.983318 0.107808)
(0.425867 -0.731609 0.53234)
(0.746734 0.00216889 0.665119)
(0.930896 0.1001 0.351301)
(0.996072 0.0289002 0.0835087)
(0.977201 0.0420195 -0.0428157)
(-0.120479 0.140516 -0.107995)
(-0.0384511 0.0103906 -0.00626559)
(-0.00222166 0.000408831 -0.000188912)
(-6.36758e-05 9.28238e-06 -3.35831e-06)
(-1.06431e-06 1.25335e-07 -3.73466e-08)
(-1.0683e-08 1.03028e-09 -2.66062e-10)
(-6.58745e-11 5.14986e-12 -1.20577e-12)
(-2.49342e-13 1.55552e-14 -3.40716e-15)
(-5.72504e-16 2.62972e-17 -5.52261e-18)
(-7.46268e-19 1.96957e-20 -4.02559e-21)
(-0.0117641 -0.975709 0.218754)
(-0.001616 -0.976128 0.21719)
(0.00751164 -0.976017 0.217563)
(0.00955828 -0.975958 0.217745)
(-0.0174924 -0.971519 0.236027)
(-0.343317 0.914764 0.208173)
(-0.230786 0.778547 -0.58154)