/*--------------------------------*- C++ -*----------------------------------*\
| =========                 |                                                 |
| \\      /  F ield         | OpenFOAM: The Open Source CFD Toolbox           |
|  \\    /   O peration     | Version:  2.1.1                                 |
|   \\  /    A nd           | Web:      www.OpenFOAM.org                      |
|    \\/     M anipulation  |                                                 |
\*---------------------------------------------------------------------------*/
FoamFile
{
    version     2.0;
    format      ascii;
    class       volScalarField;
    location    "0.00105";
    object      k;
}
// * * * * * * * * * * * * * * * * * * * * * * * * * * * * * * * * * * * * * //

dimensions      [0 2 -2 0 0 0 0];

internalField   nonuniform List<scalar> 
36520
(
0.0544474
0.0959553
0.154776
0.169171
0.188362
0.194494
0.200642
0.202006
0.200482
0.196762
0.190382
0.183321
0.174884
0.166567
0.157516
0.148973
0.139982
0.131132
0.121861
0.112448
0.102618
0.0926959
0.0826703
0.0728857
0.063508
0.0548261
0.046913
0.0398683
0.0336989
0.028402
0.0239036
0.0201462
0.0170429
0.0145053
0.0124353
0.0107379
0.00931983
0.00809178
0.0069783
0.00592428
0.00489849
0.00390882
0.00291802
0.0020589
0.00142589
0.000948599
0.000532922
0.00027225
0.000214084
0.000193114
0.000182362
0.000173469
0.000172441
0.000168148
0.000170658
0.000167708
0.000171324
0.000168569
0.000173654
0.000190006
0.0280273
0.0253844
0.0303355
0.0271268
0.0253254
0.0226876
0.0215029
0.0200408
0.0187925
0.0174973
0.0164476
0.0156719
0.015124
0.0147943
0.0145592
0.0143197
0.0138948
0.0132798
0.0124032
0.0112972
0.00999499
0.00862886
0.00726016
0.00600213
0.0049427
0.00409983
0.00342857
0.00290412
0.00252367
0.00226243
0.00209505
0.00200503
0.00197796
0.00199341
0.00203671
0.00209941
0.00217611
0.00226772
0.00238309
0.00253822
0.00275246
0.0030406
0.00332001
0.00357936
0.0037365
0.00316517
0.0017165
0.000279106
3.11733e-05
2.86927e-05
3.12419e-05
3.25209e-05
3.36926e-05
3.38367e-05
3.44482e-05
3.41527e-05
3.46815e-05
3.43057e-05
3.95801e-05
0.000127067
0.0114776
0.00590977
0.00574297
0.00428495
0.00344497
0.00274538
0.00242318
0.00214944
0.00194005
0.00177701
0.00166951
0.00162222
0.00162699
0.00165697
0.00171835
0.00177068
0.00179359
0.00177598
0.00171418
0.00161091
0.00148192
0.00135544
0.00124614
0.00117396
0.00115024
0.00117138
0.00122558
0.00130626
0.00141033
0.0015336
0.00167499
0.0018388
0.00203332
0.0022729
0.00257914
0.00297811
0.00350558
0.00420499
0.00512963
0.0063379
0.00787646
0.00973056
0.0116955
0.0130863
0.0134758
0.0113877
0.00668468
0.00148671
5.40879e-05
4.84761e-06
3.90973e-06
3.87509e-06
3.85086e-06
3.77683e-06
3.75828e-06
3.6805e-06
3.69295e-06
3.7469e-06
8.87889e-06
0.000106674
0.00503024
0.00158538
0.00121718
0.000773052
0.000568309
0.000439713
0.000396098
0.000371516
0.000366715
0.000377418
0.000402872
0.000444378
0.000501015
0.000568834
0.00065059
0.000742733
0.000844152
0.00095885
0.0010903
0.00124767
0.00144019
0.0016781
0.00196657
0.00230765
0.00269025
0.00310509
0.00354613
0.00401298
0.00447623
0.00490633
0.0052998
0.00568583
0.00610161
0.00660249
0.00725763
0.00814724
0.00940359
0.0111871
0.0136872
0.0171234
0.0217094
0.0275571
0.0340391
0.0382827
0.0371231
0.0301789
0.0183229
0.00539788
0.000294267
9.16144e-06
6.09231e-07
3.76751e-07
3.23999e-07
2.93838e-07
2.75196e-07
2.6165e-07
2.58037e-07
3.79318e-07
5.49837e-06
0.000103445
0.00226411
0.00049209
0.000324278
0.000213303
0.000192419
0.000201673
0.000239677
0.000293941
0.000368872
0.000464696
0.000586325
0.000734354
0.000912618
0.0011287
0.00138752
0.00170504
0.00210234
0.00261534
0.00327886
0.0041571
0.00532059
0.00684304
0.00879856
0.0112328
0.0140901
0.0173435
0.0210964
0.0255291
0.0301434
0.034504
0.0359506
0.0344472
0.031096
0.0278919
0.0266123
0.0275937
0.0296479
0.0332398
0.0389405
0.0474699
0.0595428
0.0761454
0.0952279
0.101893
0.0888846
0.0674081
0.0413926
0.0143576
0.00125857
5.32643e-05
1.57037e-06
7.49615e-08
2.98358e-08
2.2631e-08
1.85418e-08
1.66046e-08
1.76799e-08
1.45721e-07
5.26771e-06
0.000103053
0.0014236
0.000267576
0.000290801
0.000379111
0.000519363
0.000672429
0.000855451
0.0010878
0.00138242
0.00176431
0.0022656
0.00289809
0.00360653
0.00453073
0.00570238
0.00724107
0.0093565
0.0122956
0.0164225
0.0223564
0.030888
0.0429061
0.0601191
0.0845107
0.116134
0.153465
0.198242
0.256828
0.308984
0.331916
0.325433
0.294571
0.245828
0.193468
0.152497
0.129112
0.122071
0.122615
0.131032
0.14838
0.173507
0.206294
0.235621
0.227616
0.181132
0.129033
0.0803498
0.0310577
0.00418447
0.000257682
1.10183e-05
2.89824e-07
8.79639e-09
3.63957e-09
3.36773e-09
3.24552e-09
5.39755e-09
1.33861e-07
5.25584e-06
0.000103055
0.00204573
0.00127267
0.00252361
0.00414969
0.00600354
0.00752413
0.00900999
0.0108395
0.0129813
0.0156906
0.0192322
0.0237012
0.0286679
0.0380236
0.046717
0.0517061
0.0632076
0.0824223
0.109078
0.14735
0.203269
0.276445
0.374176
0.517185
0.702231
0.864161
0.983929
1.0863
1.17203
1.22029
1.21867
1.15715
1.0259
0.844583
0.653015
0.486445
0.366398
0.30655
0.28777
0.289772
0.306789
0.333813
0.349184
0.318559
0.252462
0.183882
0.126468
0.0591628
0.0114589
0.00101163
5.37307e-05
1.70428e-06
3.64959e-08
3.18103e-09
2.77614e-09
2.74943e-09
4.94865e-09
1.33086e-07
5.24983e-06
0.000103036
0.0179103
0.0124077
0.0281045
0.0494831
0.0831606
0.112971
0.141967
0.179066
0.217964
0.263123
0.318158
0.403273
0.473163
0.516578
0.55092
0.570961
0.649601
0.780934
0.93387
1.13855
1.42416
1.74652
2.04807
2.31515
2.53489
2.66718
2.69949
2.67044
2.61137
2.52208
2.39564
2.23809
2.04762
1.8183
1.56065
1.29068
1.02837
0.79369
0.62473
0.531222
0.472398
0.420149
0.367427
0.30927
0.244563
0.186332
0.139891
0.0796303
0.022288
0.00267197
0.000178216
6.97259e-06
1.70035e-07
5.2812e-09
2.78309e-09
2.73709e-09
4.92732e-09
1.32625e-07
5.24218e-06
0.000102993
0.0524633
0.0546221
0.143889
0.286997
0.435706
0.637767
0.826189
1.12489
1.41711
1.6973
2.03098
2.37681
2.5788
2.67119
2.70028
2.61458
2.50646
2.4721
2.49858
2.53298
2.57632
2.63886
2.69831
2.7401
2.76011
2.75595
2.7126
2.62445
2.50567
2.36939
2.21806
2.04843
1.856
1.6585
1.48558
1.34096
1.2142
1.08319
0.919052
0.742957
0.596984
0.479938
0.373077
0.280805
0.211285
0.163688
0.13215
0.085918
0.0313988
0.005371
0.000478533
2.36766e-05
6.9282e-07
1.51196e-08
2.89841e-09
2.73601e-09
4.91801e-09
1.32286e-07
5.23358e-06
0.000102872
0.0541604
0.0581571
0.166033
0.308684
0.475994
0.617345
0.743662
0.88243
1.04273
1.22616
1.43013
1.65437
1.88526
2.10836
2.3037
2.42226
2.52469
2.58119
2.54967
2.46949
2.40528
2.38046
2.40288
2.45342
2.51071
2.54141
2.51604
2.43341
2.29803
2.12802
1.94405
1.74894
1.55703
1.37217
1.17014
0.937714
0.712848
0.533416
0.420777
0.344048
0.276994
0.223796
0.186962
0.15968
0.138639
0.125688
0.116408
0.0828518
0.032096
0.00586062
0.000556748
2.89928e-05
8.76476e-07
1.86664e-08
2.93375e-09
2.7318e-09
4.91536e-09
1.32348e-07
5.23407e-06
0.000102847
0.0411693
0.0498581
0.325124
0.789093
1.18187
1.54448
1.83351
2.16053
2.55872
3.02608
3.58136
4.22836
4.8716
5.50054
6.1368
6.76718
7.13498
7.04989
6.75535
6.50476
6.41456
6.52802
6.80254
7.13425
7.41756
7.5755
7.53857
7.30231
6.91724
6.41555
5.82607
5.16673
4.4582
3.72852
2.9738
2.13151
1.38318
0.874595
0.568047
0.407418
0.32551
0.272825
0.230022
0.196324
0.167529
0.145032
0.128077
0.0936038
0.0392631
0.00758062
0.000733175
3.82391e-05
1.14546e-06
2.32375e-08
2.97462e-09
2.72637e-09
4.90923e-09
1.32319e-07
5.23077e-06
0.000102735
0.0439106
0.0764233
0.340084
0.585827
0.749356
1.28705
2.07865
3.31501
4.90171
6.62743
8.4403
10.2039
11.5132
12.3193
12.6345
12.5149
12.021
10.9696
9.40524
8.28758
8.13448
8.68955
9.72477
10.9008
11.9296
12.5313
12.6092
12.2588
11.6383
10.8548
9.99119
9.02344
7.82671
6.44278
4.92182
3.47457
2.22266
1.30381
0.765783
0.533075
0.469437
0.467184
0.452653
0.401109
0.33255
0.256946
0.188162
0.122684
0.0509079
0.00929074
0.000776532
3.49559e-05
9.18576e-07
1.73108e-08
2.88657e-09
2.72076e-09
4.90335e-09
1.32342e-07
5.22706e-06
0.000102583
0.065334
0.14595
0.403237
0.558925
0.80975
1.55595
2.55058
3.94643
5.64471
7.55558
9.59193
11.458
12.7673
13.4996
13.784
13.5847
12.8012
11.3598
9.65961
8.55327
8.30763
8.76845
9.73661
10.6966
11.3167
11.5438
11.4048
11.016
10.5357
9.98286
9.26188
8.27475
6.98162
5.59115
4.27762
3.04451
1.95057
1.1666
0.714977
0.538207
0.542
0.636669
0.635757
0.537339
0.416313
0.299211
0.205226
0.127717
0.0521221
0.00934086
0.00077351
3.46515e-05
9.08534e-07
1.71359e-08
2.88336e-09
2.71931e-09
4.90089e-09
1.32276e-07
5.22455e-06
0.000102533
0.055272
0.123106
0.552851
1.12523
1.58695
2.10064
2.63589
3.19647
3.76109
4.31465
4.83868
5.37368
5.90269
6.38753
6.84089
7.16256
7.07634
6.48401
5.7313
5.15656
4.79602
4.6464
4.74224
5.06053
5.40567
5.62557
5.65648
5.53486
5.29879
4.98862
4.60777
4.12935
3.57552
2.91709
2.21183
1.56711
1.0533
0.690418
0.463198
0.353249
0.321707
0.316075
0.280217
0.232324
0.190724
0.160984
0.13947
0.0961444
0.0366336
0.00667021
0.000624727
3.20298e-05
9.49412e-07
1.95674e-08
2.93318e-09
2.72752e-09
4.90939e-09
1.32352e-07
5.23023e-06
0.000102709
0.0633681
0.159575
0.458545
0.818439
1.31944
2.12819
2.49667
2.84187
3.17031
3.4625
3.76578
4.01693
4.18073
4.24499
4.2841
4.25043
4.06511
3.75966
3.45626
3.25042
3.16023
3.13693
3.09198
3.02322
3.0105
2.99084
2.90588
2.77023
2.60611
2.41506
2.17871
1.89826
1.59405
1.28487
0.996482
0.743991
0.536239
0.380002
0.275588
0.213812
0.182005
0.167426
0.15392
0.140355
0.129072
0.121515
0.11353
0.0739491
0.0243732
0.00404155
0.000360108
1.79656e-05
5.25321e-07
1.1949e-08
2.85614e-09
2.73434e-09
4.91822e-09
1.32469e-07
5.23675e-06
0.000102874
0.0582833
0.0864956
0.212879
0.378032
0.574157
0.931232
1.25267
1.72902
2.15966
2.59004
3.01173
3.33615
3.52181
3.61881
3.6401
3.57617
3.46543
3.34361
3.22848
3.09673
2.97575
2.87012
2.7324
2.56946
2.41248
2.27343
2.13238
1.9591
1.76665
1.5873
1.42696
1.27534
1.12014
0.963529
0.814308
0.67941
0.564972
0.47398
0.406415
0.362594
0.336045
0.304738
0.252753
0.199747
0.159059
0.133774
0.117888
0.075753
0.0242293
0.00372705
0.000306068
1.43258e-05
4.01955e-07
9.61413e-09
2.83068e-09
2.7348e-09
4.91726e-09
1.32316e-07
5.23439e-06
0.000102888
0.0170416
0.00934227
0.0188615
0.0316201
0.0487772
0.0699223
0.0951905
0.130225
0.169701
0.219633
0.285864
0.376681
0.50383
0.636948
0.752151
0.843387
0.877471
0.892185
0.909633
0.979876
1.13088
1.27271
1.36118
1.443
1.5529
1.66643
1.7177
1.69205
1.63941
1.58089
1.4953
1.36096
1.17854
0.971942
0.786578
0.654462
0.56357
0.503512
0.47131
0.460836
0.447622
0.400572
0.337282
0.274688
0.214565
0.164166
0.126709
0.0717298
0.0189549
0.00217889
0.000138024
5.18549e-06
1.23334e-07
4.4976e-09
2.7499e-09
2.7131e-09
4.90469e-09
1.32428e-07
5.2349e-06
0.000102849
0.0020487
0.00101464
0.00190159
0.0029119
0.00405281
0.00520072
0.00655931
0.00830044
0.0104042
0.0130817
0.0166519
0.0214983
0.0282801
0.0402663
0.0556187
0.0657535
0.0665958
0.0657737
0.0736275
0.088126
0.107214
0.127735
0.148978
0.174094
0.205336
0.241692
0.276087
0.297565
0.305844
0.298729
0.268353
0.224147
0.18249
0.162821
0.163443
0.173278
0.194796
0.228851
0.275263
0.343617
0.433152
0.484897
0.477495
0.407971
0.30265
0.203829
0.129443
0.0556551
0.00954447
0.00079602
3.99389e-05
1.21298e-06
2.72512e-08
3.96671e-09
3.3066e-09
3.09032e-09
5.13623e-09
1.33223e-07
5.24836e-06
0.00010299
0.0017464
0.000218906
0.000217504
0.000285575
0.000393501
0.000520922
0.000685345
0.000888699
0.00114409
0.0014582
0.00185022
0.00233593
0.00291614
0.0036224
0.00441175
0.00527
0.00615669
0.00722084
0.00851536
0.0101352
0.0121055
0.014388
0.0169703
0.0199532
0.0233151
0.0268294
0.0299303
0.0322406
0.0338222
0.0348695
0.0355631
0.0365356
0.0385717
0.0423002
0.0482488
0.0570883
0.070244
0.0894155
0.116794
0.154796
0.210496
0.265636
0.284706
0.261551
0.206137
0.144376
0.0850887
0.030041
0.00353287
0.000206081
8.37172e-06
2.20671e-07
1.39309e-08
8.25681e-09
6.21833e-09
5.17825e-09
6.56384e-09
1.3478e-07
5.25458e-06
0.000102958
0.003195
0.000455411
0.000212665
0.000136825
0.000148567
0.000181214
0.000236285
0.000306799
0.000398442
0.000510591
0.000648658
0.000813525
0.00100682
0.00122994
0.00148284
0.00176829
0.0020887
0.00246442
0.00290775
0.00345532
0.00412741
0.00494306
0.00590727
0.00704057
0.00833312
0.00975179
0.0111986
0.0126171
0.0140202
0.0154477
0.0169302
0.0185736
0.0205967
0.0232748
0.0269901
0.0321501
0.0395238
0.0501832
0.0653057
0.0833986
0.101891
0.116828
0.12086
0.114266
0.0985529
0.0755157
0.0452702
0.0149293
0.00120785
5.00504e-05
1.39642e-06
7.41555e-08
4.05872e-08
3.4095e-08
2.83527e-08
2.48156e-08
2.42061e-08
1.51554e-07
5.27041e-06
0.000102888
0.00738991
0.00169168
0.000876724
0.000384882
0.000279781
0.000220745
0.000225081
0.000241269
0.000274459
0.000321571
0.000383061
0.000458217
0.000548543
0.00065294
0.000771144
0.000905388
0.00105536
0.00122988
0.00143194
0.00167633
0.00196942
0.00232341
0.00273976
0.00322365
0.00376901
0.00436307
0.0049729
0.00558524
0.00619812
0.00682475
0.00748594
0.00822579
0.0091355
0.0103447
0.0120214
0.0143528
0.0176085
0.0221229
0.0282219
0.0360981
0.0448421
0.0526681
0.056501
0.0547634
0.0487393
0.0380809
0.0223134
0.00633394
0.000353295
1.1085e-05
4.50389e-07
2.64148e-07
2.74908e-07
2.77593e-07
2.80655e-07
2.77556e-07
2.8126e-07
4.0619e-07
5.51916e-06
0.000103134
0.0143466
0.00639704
0.00459614
0.00245423
0.00185935
0.00133255
0.00116665
0.00102252
0.00092372
0.000861906
0.000832429
0.000821846
0.000845396
0.000893391
0.000956884
0.00102892
0.001111
0.00119991
0.00127899
0.00134276
0.00139788
0.00146113
0.00153526
0.00162547
0.00173411
0.00186915
0.00203153
0.00222166
0.00243873
0.00268827
0.00297793
0.00332205
0.00374078
0.00426786
0.00495332
0.00585702
0.00706304
0.00866842
0.0107733
0.0130408
0.0151229
0.0163525
0.0162393
0.0151212
0.0137596
0.0112707
0.00653202
0.00140948
5.21434e-05
3.17624e-06
2.59687e-06
2.88497e-06
3.12384e-06
3.22652e-06
3.33575e-06
3.34752e-06
3.41475e-06
3.5167e-06
8.64777e-06
0.000105952
0.0301171
0.0262345
0.0265153
0.0200521
0.0181112
0.0153729
0.0143997
0.0132349
0.0122877
0.0113534
0.0106792
0.0100187
0.00958925
0.00928641
0.00908765
0.00891565
0.00879239
0.00862192
0.0083289
0.00786821
0.00727726
0.00663682
0.00597204
0.00531197
0.00467605
0.00411745
0.00367441
0.00334591
0.00311356
0.00296292
0.00288779
0.00287516
0.00289777
0.00293504
0.00298176
0.00304201
0.00312659
0.00322688
0.00329864
0.00333653
0.00331318
0.00319833
0.00298391
0.00272237
0.00247417
0.0020489
0.00109451
0.000175167
2.42956e-05
2.37691e-05
2.65277e-05
2.81598e-05
2.9653e-05
3.01607e-05
3.09668e-05
3.09691e-05
3.15264e-05
3.14075e-05
3.64845e-05
0.000122745
0.0745307
0.102506
0.152549
0.162497
0.174802
0.17859
0.181165
0.180593
0.177534
0.173136
0.166687
0.159852
0.151795
0.143895
0.135445
0.127508
0.11924
0.111255
0.102992
0.0947468
0.0862372
0.0777711
0.0693038
0.0611337
0.0533404
0.0461547
0.0396811
0.0340284
0.0291529
0.0249983
0.0214852
0.018556
0.0161045
0.0140239
0.0122118
0.0105988
0.00913216
0.007762
0.0064346
0.00512538
0.00391313
0.00285407
0.00199078
0.00133995
0.0008893
0.000590889
0.000368325
0.000241022
0.000206344
0.000191014
0.000182415
0.000174404
0.000172814
0.000168016
0.0001697
0.000166155
0.000169254
0.000166006
0.000170568
0.000181235
0.0603807
0.0894467
0.137642
0.151342
0.166962
0.172853
0.177162
0.177794
0.175296
0.171401
0.165055
0.158336
0.15012
0.142044
0.133308
0.124996
0.116394
0.108094
0.0996009
0.0911432
0.0824559
0.0738241
0.0652621
0.0570829
0.0494268
0.0425422
0.0364615
0.0312012
0.0266887
0.0228659
0.0196513
0.0169784
0.0147503
0.0128811
0.0112829
0.00988114
0.00861207
0.00742154
0.00627289
0.00510283
0.00397947
0.00297286
0.00212656
0.00146504
0.000986062
0.000650464
0.000398117
0.000244818
0.000203375
0.000188045
0.000179968
0.000172679
0.000171482
0.000167118
0.000168915
0.000165604
0.000168664
0.000165606
0.000170919
0.000192485
0.0263162
0.022712
0.0252938
0.0208428
0.019446
0.0169507
0.0157152
0.0143786
0.0132628
0.0121226
0.011351
0.01043
0.0098181
0.00929723
0.00889181
0.00858537
0.00833869
0.00806564
0.00770673
0.00718459
0.00652333
0.0057969
0.00506565
0.00439426
0.00380366
0.00334044
0.00299872
0.00275404
0.00258486
0.00248546
0.00244849
0.00246082
0.00250702
0.00257657
0.00266666
0.00277498
0.00290867
0.00306405
0.00321405
0.00336046
0.00347355
0.00349726
0.00336237
0.00305683
0.00262641
0.00205302
0.0011308
0.000214131
2.61192e-05
2.40628e-05
2.66285e-05
2.80856e-05
2.94601e-05
2.98268e-05
3.06174e-05
3.04999e-05
3.11049e-05
3.08714e-05
3.62649e-05
0.000125851
0.0104493
0.00554555
0.00462537
0.00281956
0.00223475
0.00163473
0.00138738
0.00117376
0.00103645
0.000931017
0.000883726
0.000835089
0.000830607
0.000841034
0.00087539
0.000923842
0.00098389
0.00104565
0.00110096
0.00113973
0.00116725
0.0011988
0.001244
0.00131186
0.00140449
0.00152778
0.00168058
0.0018642
0.00208047
0.00233432
0.00263303
0.00299158
0.00342777
0.00397455
0.00468519
0.00563578
0.00694286
0.00874722
0.0112024
0.0137636
0.0159393
0.0169841
0.0162867
0.0142886
0.0119783
0.00963009
0.005862
0.00147544
6.06246e-05
3.17692e-06
2.4422e-06
2.6652e-06
2.86828e-06
2.94768e-06
3.05556e-06
3.06072e-06
3.13439e-06
3.23499e-06
8.41322e-06
0.000106463
0.00552151
0.00150387
0.000939589
0.000451391
0.000339423
0.000260484
0.000257193
0.000270044
0.00030656
0.000359057
0.000429403
0.000514055
0.000614948
0.000731701
0.000864301
0.00101322
0.00117958
0.00137056
0.00158569
0.00184028
0.0021412
0.00249901
0.00291388
0.00338437
0.00389639
0.00443774
0.00500061
0.00560002
0.00624473
0.00694801
0.00773534
0.00867189
0.0098518
0.0114348
0.0136629
0.0169078
0.0218078
0.0293382
0.0406319
0.0568919
0.076585
0.0861079
0.0796228
0.0634617
0.0469672
0.0346732
0.0218065
0.00695984
0.000455042
1.22058e-05
3.9226e-07
1.82286e-07
1.97571e-07
2.0591e-07
2.15662e-07
2.17044e-07
2.25254e-07
3.53106e-07
5.47809e-06
0.000103323
0.00316263
0.00047946
0.000266074
0.000173392
0.000198435
0.000252582
0.000343262
0.000462814
0.000620988
0.000816838
0.00105728
0.00134447
0.00168224
0.0020716
0.00251428
0.00300249
0.00355361
0.00419927
0.00495293
0.00589399
0.00706674
0.00850008
0.0101787
0.0120499
0.0140087
0.0159627
0.01787
0.0197688
0.0217192
0.0236648
0.0255922
0.0277619
0.0305676
0.0346834
0.0410221
0.0510476
0.0672082
0.0930333
0.132699
0.188139
0.262573
0.292505
0.243166
0.178242
0.132378
0.099508
0.062549
0.0224723
0.00239073
9.01337e-05
2.54449e-06
6.51984e-08
1.4323e-08
1.41445e-08
1.4772e-08
1.4851e-08
1.74285e-08
1.46234e-07
5.26787e-06
0.000102931
0.00205786
0.000225857
0.000197773
0.000246196
0.000354694
0.000509638
0.000725375
0.00101299
0.00139848
0.0018809
0.00248625
0.00322727
0.0040979
0.00510076
0.0061752
0.00723049
0.00834649
0.00971229
0.0114547
0.013701
0.0165547
0.0200519
0.0241082
0.0284294
0.0324772
0.0357804
0.0384968
0.0411282
0.0439039
0.0466212
0.0491154
0.0518326
0.05585
0.0626685
0.0740061
0.0927899
0.124558
0.179223
0.271067
0.412307
0.602
0.705249
0.564383
0.400879
0.28593
0.20381
0.127548
0.0505062
0.00804303
0.00042735
1.69692e-05
3.97013e-07
9.16919e-09
3.37138e-09
3.35306e-09
3.32527e-09
5.53908e-09
1.34026e-07
5.24756e-06
0.000102757
0.00170946
0.00043915
0.000745854
0.0011894
0.00172821
0.00247739
0.00353999
0.00505228
0.00720054
0.00998027
0.0135166
0.0179054
0.0229991
0.0289978
0.0349232
0.0398203
0.0453219
0.0529436
0.0640967
0.080644
0.104476
0.136306
0.175867
0.218497
0.255512
0.27667
0.282869
0.284081
0.284476
0.278908
0.262742
0.240076
0.206893
0.191635
0.194552
0.217329
0.268195
0.366212
0.534181
0.772972
1.04971
1.13668
0.960448
0.712356
0.499007
0.318142
0.184271
0.0833514
0.018419
0.00143342
6.5142e-05
1.73614e-06
3.1694e-08
3.0806e-09
2.7863e-09
2.75727e-09
4.95139e-09
1.3309e-07
5.24096e-06
0.000102744
0.0033795
0.00315052
0.00658368
0.0113947
0.0156375
0.0215436
0.0301417
0.0432531
0.0635126
0.0916028
0.129649
0.181633
0.244162
0.331406
0.40868
0.429342
0.472219
0.56031
0.678856
0.857254
1.13214
1.51082
1.99196
2.5241
3.03288
3.39133
3.55807
3.63425
3.7109
3.73089
3.48318
2.99447
2.40434
1.80712
1.29197
0.959162
0.832634
0.859732
0.979048
1.1392
1.25807
1.19034
0.974561
0.725984
0.496548
0.311885
0.186056
0.0948779
0.0276592
0.00318666
0.000183521
6.02891e-06
1.24423e-07
4.3014e-09
2.76701e-09
2.73063e-09
4.92138e-09
1.32672e-07
5.23582e-06
0.000102766
0.0255682
0.0226411
0.0502622
0.105073
0.155278
0.222944
0.310898
0.447423
0.639969
0.869804
1.15704
1.61533
2.0829
2.54133
2.84473
2.93058
3.08554
3.39339
3.70702
4.17244
4.87263
5.7803
6.80255
7.77904
8.47818
8.79167
8.80559
8.6402
8.30986
7.81548
7.20291
6.47531
5.68701
4.87918
4.01405
3.10749
2.34182
1.80229
1.45499
1.2552
1.14076
0.979181
0.739831
0.510083
0.338009
0.223091
0.152076
0.0903687
0.0310733
0.00462065
0.00034362
1.44278e-05
3.66948e-07
8.48871e-09
2.80938e-09
2.72936e-09
4.91246e-09
1.32216e-07
5.22966e-06
0.000102768
0.0633401
0.134046
0.33282
0.763335
1.17542
1.54449
1.85469
2.19626
2.6343
3.05175
3.32
3.57199
3.87012
4.12466
4.35666
4.52506
4.5362
4.44597
4.37862
4.38439
4.43709
4.4918
4.49153
4.4037
4.24357
4.05061
3.80858
3.51803
3.19594
2.85956
2.53274
2.22094
1.92766
1.65064
1.3892
1.14911
0.930224
0.744293
0.609234
0.528897
0.489345
0.445134
0.369562
0.283898
0.208435
0.157248
0.127029
0.0855298
0.032841
0.00595214
0.000554839
2.86579e-05
8.69336e-07
1.87442e-08
2.93906e-09
2.73252e-09
4.90891e-09
1.32014e-07
5.22756e-06
0.000102793
0.0552667
0.0669192
0.385546
1.08067
1.29469
1.50441
1.66833
1.7899
1.90339
2.01765
2.13827
2.21631
2.23085
2.22613
2.20431
2.19311
2.16257
2.05542
1.90871
1.77252
1.6554
1.57672
1.55113
1.57071
1.61088
1.64913
1.66856
1.66977
1.6513
1.6028
1.52083
1.40017
1.23785
1.04371
0.839081
0.651232
0.492038
0.365054
0.274514
0.21673
0.183099
0.162842
0.145388
0.127822
0.116665
0.112787
0.110203
0.0771105
0.0281621
0.00506313
0.000484063
2.5807e-05
8.01639e-07
1.76538e-08
2.92364e-09
2.73091e-09
4.91103e-09
1.32215e-07
5.23145e-06
0.000102794
0.0511522
0.0301739
0.438653
1.69146
2.31404
2.87089
3.2697
3.55469
3.79447
3.96263
4.0249
4.00579
3.9298
3.82766
3.68935
3.47336
3.2409
3.01863
2.80993
2.63506
2.51031
2.45872
2.48098
2.53469
2.58059
2.61189
2.62081
2.59898
2.53439
2.41821
2.24684
1.99948
1.68772
1.35059
1.02211
0.737254
0.511731
0.348437
0.243534
0.183185
0.152182
0.136181
0.124837
0.117656
0.114063
0.11733
0.114963
0.0719678
0.0233366
0.00416899
0.00040709
2.21456e-05
6.96796e-07
1.57473e-08
2.89677e-09
2.72665e-09
4.90536e-09
1.32129e-07
5.22751e-06
0.000102704
0.0508525
0.0628506
0.65785
2.08352
2.70542
3.10015
3.25749
3.36258
3.51679
3.6472
3.73868
3.84628
3.9431
3.9817
3.97681
3.91833
3.78349
3.58131
3.35867
3.16649
3.04526
2.99041
2.988
3.03429
3.11321
3.20376
3.26311
3.25714
3.20176
3.12629
2.9845
2.74241
2.38584
1.9265
1.42868
0.987147
0.652706
0.424422
0.290206
0.215332
0.175388
0.154019
0.138705
0.127644
0.119647
0.118043
0.115342
0.0764905
0.0259709
0.00464185
0.000450187
2.42938e-05
7.58293e-07
1.68002e-08
2.90619e-09
2.7243e-09
4.9017e-09
1.3205e-07
5.22386e-06
0.000102615
0.0545806
0.0879099
0.322781
0.818828
0.963679
1.09283
1.2034
1.34563
1.49566
1.61378
1.70173
1.82191
1.99941
2.20849
2.41152
2.54023
2.54764
2.46903
2.3606
2.25871
2.20371
2.21864
2.29236
2.42143
2.58245
2.74778
2.89636
3.02673
3.1521
3.25968
3.2593
3.17877
3.04631
2.80552
2.38102
1.81313
1.26048
0.835797
0.551536
0.382725
0.294108
0.247496
0.208706
0.175265
0.150631
0.133866
0.12192
0.0871876
0.0344764
0.00631826
0.000602377
3.16419e-05
9.64078e-07
2.03425e-08
2.94624e-09
2.72582e-09
4.90352e-09
1.32081e-07
5.22391e-06
0.000102622
0.0750359
0.129717
0.411626
0.635477
0.669219
0.838769
0.996715
1.16594
1.36419
1.62417
1.94826
2.31764
2.75685
3.27491
3.77597
4.142
4.24518
4.13518
4.02966
3.98964
4.04843
4.26207
4.65084
5.18508
5.80394
6.43003
7.00462
7.5213
7.90287
7.72064
6.61502
4.95465
3.4497
2.37029
1.61879
1.07675
0.693576
0.44407
0.299878
0.234064
0.222876
0.234904
0.233583
0.211936
0.185618
0.159382
0.135595
0.0984735
0.042458
0.00783889
0.000704963
3.4493e-05
9.87509e-07
1.99328e-08
2.94214e-09
2.73301e-09
4.918e-09
1.32464e-07
5.23628e-06
0.000102834
0.0986258
0.110636
0.146142
0.193362
0.323415
0.525736
0.886698
1.34318
2.09676
2.97167
3.78146
4.48938
5.06832
5.41053
5.39533
4.98523
4.31745
3.7778
3.70276
3.93907
4.42388
5.13457
5.93167
6.58322
7.02465
7.207
7.01145
6.40406
5.41443
4.15022
2.88582
1.89155
1.2385
0.83778
0.583999
0.417448
0.310566
0.249117
0.229573
0.260414
0.357158
0.478798
0.472913
0.384417
0.29913
0.227165
0.169617
0.109525
0.0402406
0.00572043
0.000394162
1.53342e-05
3.62399e-07
8.01879e-09
2.8017e-09
2.73213e-09
4.92438e-09
1.3276e-07
5.24428e-06
0.000102941
0.0290593
0.0552283
0.115256
0.24216
0.449612
0.834096
1.37229
2.11598
3.11031
4.31354
5.48628
6.5447
7.33133
7.64695
7.58751
7.21172
6.56181
5.91972
5.80245
6.14805
6.8311
7.82963
8.77514
9.42318
9.70333
9.60243
9.13496
8.34734
7.19201
5.78021
4.30101
2.78277
1.45631
0.720482
0.511161
0.446239
0.439411
0.470712
0.534316
0.607955
0.638379
0.612455
0.538726
0.451065
0.363755
0.278548
0.201953
0.120503
0.0395761
0.00509804
0.000330213
1.21426e-05
2.75996e-07
6.64948e-09
2.7924e-09
2.73381e-09
4.9225e-09
1.32584e-07
5.23798e-06
0.000102867
0.00794149
0.00876434
0.0199521
0.0401604
0.0711143
0.120919
0.19582
0.293979
0.40441
0.512971
0.595208
0.654912
0.751029
0.888443
0.971519
0.995789
0.969529
0.939598
0.980652
1.15565
1.49338
1.95136
2.3896
2.65108
2.75239
2.72107
2.55729
2.29601
1.87344
1.41223
1.01319
0.687581
0.477003
0.384438
0.350813
0.340008
0.344464
0.360023
0.383093
0.409301
0.431355
0.431286
0.405323
0.361627
0.303524
0.231512
0.151365
0.0656937
0.0132282
0.00127246
7.35272e-05
2.5506e-06
5.83342e-08
3.53807e-09
2.78227e-09
2.75103e-09
4.94333e-09
1.32732e-07
5.24094e-06
0.000102921
0.00409818
0.000729728
0.00119657
0.00212009
0.00347667
0.00540688
0.00797827
0.0107718
0.0133334
0.0150242
0.0160035
0.0176542
0.021208
0.0266659
0.0346969
0.0384229
0.0383129
0.0392462
0.049157
0.0651464
0.0883179
0.117242
0.14761
0.179847
0.224309
0.285795
0.321877
0.324844
0.281795
0.229694
0.193659
0.16819
0.152704
0.148942
0.155679
0.173577
0.209384
0.267541
0.352874
0.474889
0.577699
0.603097
0.549795
0.433458
0.290725
0.169393
0.0848532
0.0315628
0.00437958
0.000287942
1.33768e-05
3.87338e-07
1.0845e-08
3.69342e-09
3.46519e-09
3.3512e-09
5.49307e-09
1.33897e-07
5.25711e-06
0.000103118
0.00654712
0.00080506
0.000416238
0.000310756
0.000380575
0.000499522
0.000668303
0.000841853
0.00100446
0.00112224
0.0012222
0.00136787
0.00160826
0.00191345
0.00226001
0.00265358
0.00312659
0.00373383
0.00450899
0.00552105
0.00680722
0.00835182
0.0100852
0.0120208
0.0142258
0.0165717
0.018955
0.0219747
0.0235763
0.023791
0.0246333
0.0262034
0.028668
0.0321878
0.0372935
0.0447802
0.0556051
0.0709928
0.092868
0.122434
0.159408
0.191703
0.192452
0.164773
0.123209
0.0796027
0.0425885
0.014411
0.00133965
6.16714e-05
1.93863e-06
6.3722e-08
1.90484e-08
1.72012e-08
1.63156e-08
1.55722e-08
1.74465e-08
1.45736e-07
5.26824e-06
0.000103067
0.0100491
0.00244862
0.00135816
0.000628239
0.000449888
0.000340187
0.000317864
0.000315779
0.000339105
0.000378672
0.000434774
0.000505701
0.000591694
0.000690548
0.000803196
0.000933279
0.00108003
0.00125008
0.00144478
0.0016773
0.00195587
0.00229156
0.00268484
0.003139
0.00365475
0.00422798
0.00484132
0.00548976
0.0061481
0.00682528
0.00755836
0.008386
0.00936922
0.0106192
0.0122742
0.0145111
0.0175747
0.0217698
0.0274784
0.0350246
0.0443928
0.051791
0.0557471
0.0553861
0.0481595
0.0346335
0.0190003
0.00544556
0.000328811
1.07483e-05
4.29366e-07
2.32248e-07
2.42171e-07
2.43785e-07
2.46405e-07
2.42319e-07
2.46061e-07
3.70413e-07
5.4928e-06
0.000103404
0.0176695
0.0083204
0.00618887
0.00358732
0.00272922
0.00199975
0.0016409
0.00135052
0.00115879
0.00104732
0.00100807
0.00100976
0.00104743
0.00109005
0.00114494
0.00121122
0.00127505
0.00132924
0.00136324
0.00137204
0.00136126
0.00135816
0.00138048
0.0014368
0.00152712
0.00165437
0.00181535
0.00200531
0.00221884
0.00245419
0.00271395
0.00301183
0.00336606
0.00379872
0.00434358
0.00504102
0.00594886
0.00713291
0.00865588
0.0105428
0.0124308
0.0141268
0.0153402
0.0159049
0.0149934
0.0114152
0.00619019
0.00136323
5.45036e-05
3.47415e-06
2.76524e-06
3.00803e-06
3.20956e-06
3.27048e-06
3.3585e-06
3.3393e-06
3.40045e-06
3.4801e-06
8.64857e-06
0.000106606
0.0335948
0.0296618
0.0306856
0.0241498
0.0218696
0.0189222
0.0171441
0.0153425
0.0138447
0.0126389
0.0119074
0.0113668
0.011035
0.0107382
0.0104628
0.0102726
0.0100337
0.00969869
0.00919358
0.00848143
0.00756884
0.00659394
0.00565854
0.00482191
0.00409568
0.00350999
0.00307948
0.00278505
0.00259859
0.00248889
0.00243305
0.00241555
0.00242191
0.00243424
0.00244589
0.00245588
0.0024752
0.00251759
0.00259492
0.00269998
0.00282492
0.00297567
0.00312502
0.00323262
0.00318571
0.00245872
0.00124363
0.000210152
2.64758e-05
2.49206e-05
2.77195e-05
2.93063e-05
3.07816e-05
3.1166e-05
3.19852e-05
3.18269e-05
3.24631e-05
3.21655e-05
3.76206e-05
0.000127322
0.0690167
0.102068
0.150745
0.162606
0.177206
0.182364
0.185761
0.184749
0.181102
0.175838
0.168963
0.161933
0.153867
0.146095
0.137644
0.129724
0.121513
0.113497
0.105173
0.0967593
0.087909
0.0789676
0.070017
0.0614315
0.0532928
0.0458217
0.0391239
0.0333158
0.0283615
0.0242075
0.0207441
0.0178677
0.0154583
0.013409
0.0116254
0.0100419
0.00861569
0.0073026
0.00606773
0.00490578
0.00381804
0.00284499
0.00203847
0.00142112
0.000992549
0.000664058
0.000399176
0.000244088
0.000203279
0.000187765
0.000179591
0.000172344
0.000171508
0.000167349
0.000169555
0.000166425
0.000169763
0.000166842
0.000172315
0.000195184
0.065878
0.0853812
0.135186
0.148304
0.161063
0.164858
0.166941
0.165956
0.162634
0.158087
0.151824
0.145294
0.137891
0.130798
0.123248
0.116276
0.109062
0.102151
0.0949618
0.0877223
0.0801894
0.0726441
0.065055
0.0577476
0.0508296
0.0445281
0.0389474
0.0341615
0.0300932
0.0266513
0.0237466
0.0213316
0.0192984
0.0175309
0.0159092
0.0143224
0.0126966
0.0109819
0.00918843
0.00739555
0.00569409
0.0041783
0.00292027
0.00195884
0.00127894
0.000816389
0.000454778
0.00022875
0.000189187
0.000179599
0.000175911
0.000169149
0.000169367
0.000164388