/*--------------------------------*- C++ -*----------------------------------*\
| =========                 |                                                 |
| \\      /  F ield         | OpenFOAM: The Open Source CFD Toolbox           |
|  \\    /   O peration     | Version:  2.1.1                                 |
|   \\  /    A nd           | Web:      www.OpenFOAM.org                      |
|    \\/     M anipulation  |                                                 |
\*---------------------------------------------------------------------------*/
FoamFile
{
    version     2.0;
    format      ascii;
    class       volScalarField;
    location    "0.00105";
    object      Lzero;
}
// * * * * * * * * * * * * * * * * * * * * * * * * * * * * * * * * * * * * * //

dimensions      [0 1 0 0 0 0 0];

internalField   nonuniform List<scalar> 
36520
(
9.27116e-05
9.2829e-05
9.28869e-05
9.29063e-05
9.29261e-05
9.29483e-05
9.29774e-05
9.30027e-05
9.30299e-05
9.30501e-05
9.30657e-05
9.30715e-05
9.30764e-05
9.30723e-05
9.30716e-05
9.30713e-05
9.30766e-05
9.30906e-05
9.31141e-05
9.31477e-05
9.31893e-05
9.32355e-05
9.32823e-05
9.33264e-05
9.33654e-05
9.3399e-05
9.34278e-05
9.34526e-05
9.34729e-05
9.34888e-05
9.35007e-05
9.35099e-05
9.35184e-05
9.35295e-05
9.35473e-05
9.35778e-05
9.36273e-05
9.37031e-05
9.38137e-05
9.3969e-05
9.41788e-05
9.44177e-05
9.47489e-05
9.49381e-05
9.49534e-05
9.56082e-05
9.70073e-05
9.48246e-05
9.29121e-05
9.26406e-05
9.24308e-05
9.2289e-05
9.22067e-05
9.21363e-05
9.21261e-05
9.20937e-05
9.21044e-05
9.20883e-05
9.21006e-05
9.21323e-05
0.000194907
5.79309e-05
5.46242e-05
5.03241e-05
4.73302e-05
4.51182e-05
4.39083e-05
4.30493e-05
4.26164e-05
4.23885e-05
4.24708e-05
4.26145e-05
4.28011e-05
4.28621e-05
4.28214e-05
4.26372e-05
4.23032e-05
4.1826e-05
4.11727e-05
4.03343e-05
3.93073e-05
3.81102e-05
3.6726e-05
3.51722e-05
3.34728e-05
3.15787e-05
2.94156e-05
2.70273e-05
2.46322e-05
2.23911e-05
2.04135e-05
1.87607e-05
1.74112e-05
1.62077e-05
1.50062e-05
1.3735e-05
1.23762e-05
1.09912e-05
9.69002e-06
8.58793e-06
7.7755e-06
7.2705e-06
6.95346e-06
6.79883e-06
6.67563e-06
6.02327e-06
4.79128e-06
2.51868e-06
3.65918e-06
9.44189e-06
1.01223e-05
1.03116e-05
1.0568e-05
1.05549e-05
1.07333e-05
1.05999e-05
1.07924e-05
1.05786e-05
1.20916e-05
0.000193744
0.000195219
3.42914e-05
3.0006e-05
2.57432e-05
2.30561e-05
2.1215e-05
2.02961e-05
1.97065e-05
1.9395e-05
1.92267e-05
1.91553e-05
1.9065e-05
1.89825e-05
1.88383e-05
1.86934e-05
1.84649e-05
1.81074e-05
1.75756e-05
1.68334e-05
1.58345e-05
1.45868e-05
1.31775e-05
1.17109e-05
1.03883e-05
9.39006e-06
8.73138e-06
8.32338e-06
8.09069e-06
7.99679e-06
7.98859e-06
8.02818e-06
8.10032e-06
8.20213e-06
8.33653e-06
8.51639e-06
8.75501e-06
9.07141e-06
9.48595e-06
1.00264e-05
1.072e-05
1.15761e-05
1.25506e-05
1.34601e-05
1.39558e-05
1.38425e-05
1.22964e-05
9.69338e-06
5.42892e-06
1.35653e-06
1.23813e-06
2.21177e-06
2.1692e-06
2.14068e-06
2.09063e-06
2.09446e-06
2.04245e-06
2.07044e-06
2.04745e-06
4.318e-06
0.000193704
0.000195177
2.10988e-05
1.67311e-05
1.33703e-05
1.14405e-05
1.00815e-05
9.32033e-06
8.69207e-06
8.20348e-06
7.83927e-06
7.60416e-06
7.52781e-06
7.57854e-06
7.68207e-06
7.85406e-06
8.01354e-06
8.14342e-06
8.24975e-06
8.34905e-06
8.46694e-06
8.63417e-06
8.8783e-06
9.19495e-06
9.5696e-06
9.9641e-06
1.03468e-05
1.0703e-05
1.10368e-05
1.13469e-05
1.16444e-05
1.19446e-05
1.22134e-05
1.24342e-05
1.26294e-05
1.28612e-05
1.32012e-05
1.3723e-05
1.44756e-05
1.54959e-05
1.68103e-05
1.84323e-05
2.03047e-05
2.21076e-05
2.3064e-05
2.29051e-05
2.13522e-05
1.70402e-05
1.05424e-05
3.01288e-06
6.25686e-07
3.67982e-07
5.20761e-07
4.63243e-07
4.24281e-07
4.04955e-07
3.87274e-07
3.86367e-07
5.0668e-07
4.15115e-06
0.000193686
0.00019534
1.15177e-05
7.53187e-06
4.84081e-06
3.81682e-06
3.48648e-06
3.61488e-06
3.88333e-06
4.27004e-06
4.71773e-06
5.20825e-06
5.72758e-06
6.28318e-06
6.8398e-06
7.37374e-06
7.90125e-06
8.44096e-06
9.02025e-06
9.65086e-06
1.03622e-05
1.11598e-05
1.20301e-05
1.29532e-05
1.38908e-05
1.47756e-05
1.55742e-05
1.62969e-05
1.69792e-05
1.75603e-05
1.7931e-05
1.81202e-05
1.82409e-05
1.84686e-05
1.8846e-05
1.91329e-05
1.93325e-05
1.978e-05
2.0591e-05
2.18385e-05
2.35858e-05
2.58726e-05
2.87051e-05
3.15715e-05
3.28323e-05
3.21642e-05
3.03097e-05
2.65594e-05
1.78151e-05
6.25946e-06
1.45314e-06
2.65907e-07
9.82467e-08
1.1241e-07
8.97135e-08
7.45749e-08
6.70174e-08
6.9796e-08
3.44584e-07
4.37627e-06
0.000193679
0.00019535
2.27589e-06
1.60241e-06
1.52959e-06
1.6943e-06
1.94422e-06
2.2661e-06
2.66547e-06
3.15655e-06
3.7398e-06
4.39332e-06
5.10612e-06
6.08353e-06
7.17176e-06
8.28106e-06
9.39575e-06
1.05279e-05
1.17704e-05
1.31749e-05
1.48119e-05
1.67283e-05
1.89326e-05
2.14816e-05
2.4331e-05
2.7238e-05
2.9991e-05
3.26415e-05
3.53703e-05
3.72822e-05
3.77834e-05
3.71682e-05
3.57199e-05
3.37362e-05
3.17405e-05
3.02043e-05
2.91417e-05
2.87601e-05
2.9094e-05
3.03e-05
3.2429e-05
3.52901e-05
3.87369e-05
4.18138e-05
4.26518e-05
4.13035e-05
3.89798e-05
3.48895e-05
2.63466e-05
1.15111e-05
3.20308e-06
6.89314e-07
1.1561e-07
2.49252e-08
2.01798e-08
1.89122e-08
1.81702e-08
2.90265e-08
3.45157e-07
4.40284e-06
0.000193677
0.000195121
2.23927e-06
2.75949e-06
3.32063e-06
3.82812e-06
4.27724e-06
4.73226e-06
5.28299e-06
5.91763e-06
6.70608e-06
7.65542e-06
8.75641e-06
1.01406e-05
1.20383e-05
1.37786e-05
1.54697e-05
1.76326e-05
2.00738e-05
2.28231e-05
2.60654e-05
2.98786e-05
3.39672e-05
3.86333e-05
4.41286e-05
4.94909e-05
5.32375e-05
5.58267e-05
5.80459e-05
5.98013e-05
6.07502e-05
6.06566e-05
5.93088e-05
5.6527e-05
5.25807e-05
4.81973e-05
4.42013e-05
4.13529e-05
4.02509e-05
4.05296e-05
4.1838e-05
4.39725e-05
4.65365e-05
4.85829e-05
4.8725e-05
4.712e-05
4.49917e-05
4.19844e-05
3.45175e-05
1.88234e-05
6.36556e-06
1.56198e-06
2.89428e-07
4.42483e-08
1.62923e-08
1.59207e-08
1.57464e-08
2.72686e-08
3.45043e-07
4.39992e-06
0.000193673
0.000194425
6.63124e-06
8.58745e-06
1.10911e-05
1.36326e-05
1.55803e-05
1.72937e-05
1.93009e-05
2.12369e-05
2.34225e-05
2.58507e-05
2.82755e-05
3.06781e-05
3.3607e-05
3.55897e-05
3.74372e-05
4.09968e-05
4.48494e-05
4.82503e-05
5.21004e-05
5.66727e-05
6.11271e-05
6.5111e-05
6.87426e-05
7.18331e-05
7.39149e-05
7.50495e-05
7.56027e-05
7.57327e-05
7.54392e-05
7.46764e-05
7.33964e-05
7.1426e-05
6.86117e-05
6.50529e-05
6.10143e-05
5.68601e-05
5.31321e-05
5.08744e-05
5.04777e-05
5.10971e-05
5.18093e-05
5.19116e-05
5.10556e-05
4.9652e-05
4.85911e-05
4.74557e-05
4.22648e-05
2.72593e-05
1.09379e-05
3.06263e-06
6.36555e-07
1.02833e-07
2.00412e-08
1.58939e-08
1.56819e-08
2.71729e-08
3.44293e-07
4.39471e-06
0.000193653
0.000193862
1.27262e-05
1.76272e-05
2.30451e-05
2.73429e-05
3.19048e-05
3.573e-05
4.06534e-05
4.46888e-05
4.856e-05
5.29014e-05
5.68958e-05
5.958e-05
6.13252e-05
6.22102e-05
6.2393e-05
6.27772e-05
6.36865e-05
6.48213e-05
6.60916e-05
6.76864e-05
6.95235e-05
7.1426e-05
7.32153e-05
7.47444e-05
7.58806e-05
7.65089e-05
7.66201e-05
7.62592e-05
7.54584e-05
7.4212e-05
7.25335e-05
7.0514e-05
6.83415e-05
6.61446e-05
6.3903e-05
6.16036e-05
5.91236e-05
5.62054e-05
5.34565e-05
5.15892e-05
5.02528e-05
4.89845e-05
4.8289e-05
4.927e-05
5.26454e-05
5.69591e-05
5.59433e-05
4.07497e-05
1.89039e-05
6.00517e-06
1.39143e-06
2.44677e-07
3.68666e-08
1.62475e-08
1.56568e-08
2.71365e-08
3.43064e-07
4.39226e-06
0.000193636
0.000194105
1.33469e-05
1.93533e-05
2.50437e-05
3.07014e-05
3.48529e-05
3.83296e-05
4.19764e-05
4.5986e-05
5.01279e-05
5.43831e-05
5.88771e-05
6.33498e-05
6.75168e-05
7.05376e-05
7.24404e-05
7.42444e-05
7.57064e-05
7.64524e-05
7.67715e-05
7.73315e-05
7.84889e-05
8.03051e-05
8.24513e-05
8.44717e-05
8.59782e-05
8.67103e-05
8.65812e-05
8.56229e-05
8.4005e-05
8.18363e-05
7.91104e-05
7.58941e-05
7.20824e-05
6.74335e-05
6.19904e-05
5.6556e-05
5.20324e-05
4.88588e-05
4.67448e-05
4.54537e-05
4.50259e-05
4.59468e-05
4.8865e-05
5.41224e-05
6.10055e-05
6.59779e-05
6.3274e-05
4.52183e-05
2.11658e-05
6.85607e-06
1.61698e-06
2.87458e-07
4.23793e-08
1.63914e-08
1.56174e-08
2.7144e-08
3.4288e-07
4.39419e-06
0.000193632
0.000194167
1.50453e-05
3.27115e-05
4.24058e-05
4.90387e-05
5.42376e-05
5.87141e-05
6.37269e-05
6.9243e-05
7.50988e-05
8.15522e-05
8.83007e-05
9.45632e-05
0.000100187
0.000104816
0.000108386
0.000110341
0.000110557
0.000110189
0.000110281
0.000111295
0.000113531
0.000116651
0.000119972
0.000122949
0.000125067
0.000125948
0.000125524
0.000123965
0.000121381
0.000117877
0.000113359
0.00010745
9.96432e-05
8.96751e-05
7.74372e-05
6.51937e-05
5.53424e-05
4.86448e-05
4.53585e-05
4.43006e-05
4.42713e-05
4.49384e-05
4.66575e-05
4.9329e-05
5.27537e-05
5.56644e-05
5.40014e-05
4.04174e-05
1.99047e-05
6.66989e-06
1.60541e-06
2.88461e-07
4.26173e-08
1.63773e-08
1.56044e-08
2.71412e-08
3.4342e-07
4.39932e-06
0.000193646
0.000193504
1.98607e-05
3.57671e-05
3.77523e-05
4.11129e-05
4.98909e-05
6.0001e-05
7.17139e-05
8.39199e-05
9.55087e-05
0.000106332
0.000115521
0.000121824
0.000125811
0.000128064
0.000129035
0.0001291
0.000127693
0.000124181
0.000120905
0.000120551
0.00012301
0.000127527
0.000132735
0.000137438
0.000140494
0.000141515
0.000140901
0.000139547
0.000137817
0.000135837
0.000132857
0.000127331
0.000119084
0.000108044
9.4685e-05
7.89495e-05
6.33791e-05
5.18186e-05
4.6909e-05
4.75979e-05
5.03787e-05
5.24773e-05
5.26906e-05
5.13077e-05
4.86805e-05
4.5235e-05
3.99216e-05
2.91991e-05
1.40818e-05
4.4915e-06
1.02862e-06
1.76843e-07
2.6871e-08
1.58055e-08
1.56257e-08
2.71448e-08
3.44725e-07
4.40813e-06
0.000193678
0.000193756
2.46337e-05
3.58649e-05
3.80538e-05
4.32868e-05
5.52074e-05
6.62135e-05
7.77693e-05
8.94743e-05
0.000100895
0.000111499
0.000120283
0.00012619
0.000129625
0.000131588
0.000132187
0.000131261
0.000128667
0.000124744
0.000120863
0.000119846
0.000121954
0.000126069
0.000129998
0.000132995
0.000135322
0.000136767
0.000137148
0.000136648
0.000135228
0.00013259
0.000128553
0.00012236
0.000113911
0.000103353
9.01635e-05
7.49654e-05
6.09704e-05
5.13199e-05
4.83543e-05
5.15895e-05
5.74873e-05
5.9922e-05
5.85207e-05
5.50653e-05
5.05403e-05
4.58343e-05
3.9841e-05
2.88142e-05
1.3783e-05
4.38318e-06
1.00301e-06
1.72479e-07
2.63114e-08
1.57807e-08
1.56202e-08
2.71379e-08
3.44519e-07
4.40511e-06
0.000193678
0.000193216
2.32551e-05
3.89338e-05
4.92848e-05
5.68486e-05
6.44619e-05
7.14345e-05
7.79126e-05
8.40684e-05
8.98992e-05
9.55028e-05
0.000100853
0.000105583
0.000109313
0.000112052
0.000113582
0.00011341
0.000111328
0.000108486
0.000106409
0.000105597
0.000106402
0.00010874
0.000111839
0.000114478
0.00011639
0.000117278
0.000117019
0.000115846
0.000114011
0.000111044
0.000106378
9.97938e-05
9.11781e-05
8.10126e-05
7.02325e-05
6.00262e-05
5.14622e-05
4.5719e-05
4.39878e-05
4.57725e-05
4.89428e-05
5.00917e-05
5.04116e-05
5.12529e-05
5.28488e-05
5.40935e-05
5.11356e-05
3.69163e-05
1.78198e-05
5.92208e-06
1.42027e-06
2.54678e-07
3.82104e-08
1.62385e-08
1.5662e-08
2.71358e-08
3.44596e-07
4.3975e-06
0.00019367
0.000192325
2.71267e-05
3.01379e-05
3.8494e-05
4.87326e-05
6.01287e-05
6.53297e-05
7.01453e-05
7.43934e-05
7.82607e-05
8.18437e-05
8.48915e-05
8.74413e-05
8.94821e-05
9.10416e-05
9.14303e-05
9.02779e-05
8.79016e-05
8.53095e-05
8.36257e-05
8.31436e-05
8.34699e-05
8.39538e-05
8.47209e-05
8.61284e-05
8.69079e-05
8.66237e-05
8.56351e-05
8.4183e-05
8.22398e-05
7.94685e-05
7.5682e-05
7.09144e-05
6.52386e-05
5.90748e-05
5.28984e-05
4.71919e-05
4.25623e-05
3.9633e-05
3.86758e-05
3.95181e-05
4.18289e-05
4.43757e-05
4.73174e-05
5.12067e-05
5.57397e-05
5.8563e-05
5.39213e-05
3.54769e-05
1.59023e-05
5.03558e-06
1.16971e-06
2.05428e-07
3.18428e-08
1.60989e-08
1.56986e-08
2.71434e-08
3.44896e-07
4.39531e-06
0.000193691
0.000193903
1.6443e-05
2.27219e-05
2.86741e-05
3.45477e-05
4.26071e-05
4.83159e-05
5.51883e-05
6.07106e-05
6.58865e-05
7.07275e-05
7.46496e-05
7.73512e-05
7.91204e-05
8.01023e-05
8.02547e-05
7.96845e-05
7.86887e-05
7.75965e-05
7.67009e-05
7.62358e-05
7.59477e-05
7.55447e-05
7.51338e-05
7.47403e-05
7.4218e-05
7.33634e-05
7.20975e-05
7.05373e-05
6.87585e-05
6.66972e-05
6.42381e-05
6.12736e-05
5.79419e-05
5.44779e-05
5.11154e-05
4.81492e-05
4.59586e-05
4.48979e-05
4.5041e-05
4.60118e-05
4.72532e-05
4.76366e-05
4.79302e-05
4.92834e-05
5.21499e-05
5.44891e-05
5.01926e-05
3.27232e-05
1.4227e-05
4.36208e-06
9.8866e-07
1.71126e-07
2.76994e-08
1.60186e-08
1.56735e-08
2.71327e-08
3.43847e-07
4.39077e-06
0.000193692
0.000193662
6.55507e-06
8.20386e-06
1.01111e-05
1.2205e-05
1.44303e-05
1.66568e-05
1.92495e-05
2.18948e-05
2.496e-05
2.86054e-05
3.2789e-05
3.73329e-05
4.11151e-05
4.46144e-05
4.7495e-05
4.85002e-05
4.90414e-05
4.96862e-05
5.16229e-05
5.5006e-05
5.78153e-05
5.95662e-05
6.12526e-05
6.34107e-05
6.55443e-05
6.67447e-05
6.67798e-05
6.606e-05
6.48545e-05
6.30309e-05
6.04223e-05
5.70199e-05
5.31356e-05
4.94342e-05
4.66963e-05
4.50224e-05
4.45212e-05
4.52858e-05
4.70685e-05
4.88333e-05
4.95232e-05
4.92803e-05
4.83031e-05
4.70481e-05
4.62461e-05
4.53172e-05
3.96104e-05
2.39171e-05
9.17582e-06
2.49868e-06
5.11217e-07
8.22435e-08
1.82228e-08
1.57588e-08
1.55136e-08
2.70945e-08
3.43003e-07
4.39374e-06
0.000193667
0.000194796
2.17628e-06
2.61531e-06
3.06895e-06
3.53878e-06
4.02056e-06
4.56175e-06
5.1949e-06
5.94988e-06
6.87786e-06
8.00882e-06
9.34606e-06
1.09134e-05
1.29164e-05
1.48985e-05
1.61994e-05
1.67744e-05
1.74085e-05
1.86175e-05
2.01728e-05
2.18875e-05
2.35016e-05
2.5037e-05
2.66892e-05
2.84976e-05
3.03109e-05
3.17673e-05
3.25167e-05
3.26995e-05
3.23445e-05
3.12234e-05
2.96862e-05
2.83976e-05
2.80139e-05
2.83924e-05
2.92252e-05
3.06764e-05
3.29046e-05
3.57878e-05
3.95545e-05
4.38597e-05
4.68637e-05
4.78057e-05
4.66169e-05
4.39355e-05
4.11422e-05
3.82405e-05
3.1317e-05
1.62701e-05
5.36834e-06
1.29381e-06
2.37391e-07
3.92187e-08
2.12426e-08
1.90578e-08
1.77134e-08
2.82167e-08
3.44635e-07
4.40275e-06
0.000193675
0.000195676
2.41748e-06
1.57277e-06
1.60857e-06
1.85027e-06
2.16769e-06
2.55258e-06
2.99292e-06
3.51734e-06
4.11878e-06
4.78993e-06
5.51557e-06
6.25958e-06
6.97087e-06
7.66301e-06
8.36552e-06
9.08872e-06
9.79205e-06
1.04971e-05
1.12632e-05
1.21044e-05
1.30113e-05
1.39791e-05
1.49996e-05
1.60284e-05
1.70009e-05
1.78403e-05
1.85503e-05
1.9165e-05
1.97398e-05
2.03074e-05
2.07981e-05
2.12151e-05
2.16542e-05
2.225e-05
2.30769e-05
2.42421e-05
2.58414e-05
2.79367e-05
3.06081e-05
3.40171e-05
3.74354e-05
3.92277e-05
3.93437e-05
3.81135e-05
3.59714e-05
3.21713e-05
2.4167e-05
1.01948e-05
2.79276e-06
5.96038e-07
1.04724e-07
4.74437e-08
4.42655e-08
3.43223e-08
2.86573e-08
3.45472e-08
3.4531e-07
4.40903e-06
0.00019368
0.000195656
1.10671e-05
5.78487e-06
3.55259e-06
3.24921e-06
3.38842e-06
3.78875e-06
4.26273e-06
4.80768e-06
5.38681e-06
5.99349e-06
6.60968e-06
7.22587e-06
7.83237e-06
8.42479e-06
9.00701e-06
9.57811e-06
1.01666e-05
1.07846e-05
1.14693e-05
1.22201e-05
1.30308e-05
1.38797e-05
1.47542e-05
1.56184e-05
1.64285e-05
1.71189e-05
1.76666e-05
1.80825e-05
1.83771e-05
1.85554e-05
1.8663e-05
1.8789e-05
1.90202e-05
1.94316e-05
2.00598e-05
2.09854e-05
2.22663e-05
2.38757e-05
2.57849e-05
2.78262e-05
2.96925e-05
3.07477e-05
3.10128e-05
3.04065e-05
2.88379e-05
2.53674e-05
1.71804e-05
6.02195e-06
1.40419e-06
2.53923e-07
1.04702e-07
1.34401e-07
1.18614e-07
1.01815e-07
9.06034e-08
8.76084e-08
3.48142e-07
4.38069e-06
0.000193688
0.000195321
2.10919e-05
1.40741e-05
9.59379e-06
7.77781e-06
6.48244e-06
6.06472e-06
5.8385e-06
5.83451e-06
5.98218e-06
6.2316e-06
6.55006e-06
6.92811e-06
7.33767e-06
7.75277e-06
8.16932e-06
8.58003e-06
9.00745e-06
9.43874e-06
9.89842e-06
1.03872e-05
1.0919e-05
1.14753e-05
1.20452e-05
1.26016e-05
1.31134e-05
1.35327e-05
1.38477e-05
1.40658e-05
1.42026e-05
1.42752e-05
1.43199e-05
1.44001e-05
1.45815e-05
1.4916e-05
1.54334e-05
1.61741e-05
1.71576e-05
1.83543e-05
1.96695e-05
2.08845e-05
2.20113e-05
2.29541e-05
2.34501e-05
2.31369e-05
2.13888e-05
1.73654e-05
1.12068e-05
3.41524e-06
7.05989e-07
2.40465e-07
4.14384e-07
4.30878e-07
4.25821e-07
4.24764e-07
4.16358e-07
4.19254e-07
5.38801e-07
4.1686e-06
0.000193693
0.000195146
3.50833e-05
2.73086e-05
2.10079e-05
1.83132e-05
1.62971e-05
1.54582e-05
1.48937e-05
1.45506e-05
1.43345e-05
1.41639e-05
1.39732e-05
1.38645e-05
1.38135e-05
1.3812e-05
1.38314e-05
1.38716e-05
1.38831e-05
1.37733e-05
1.34878e-05
1.30679e-05
1.26098e-05
1.21357e-05
1.16816e-05
1.12768e-05
1.09734e-05
1.07795e-05
1.067e-05
1.06116e-05
1.05858e-05
1.05796e-05
1.05851e-05
1.05948e-05
1.06122e-05
1.06547e-05
1.07388e-05
1.08858e-05
1.11091e-05
1.13958e-05
1.17277e-05
1.21234e-05
1.25132e-05
1.27936e-05
1.28099e-05
1.24054e-05
1.1222e-05
9.2449e-06
5.41991e-06
1.39026e-06
8.30595e-07
1.79675e-06
1.92711e-06
2.00322e-06
2.02003e-06
2.05348e-06
2.03756e-06
2.06574e-06
2.07006e-06
4.39868e-06
0.000193703
0.000194947
5.95804e-05
5.31218e-05
4.68448e-05
4.37901e-05
4.12973e-05
4.01473e-05
3.93513e-05
3.89883e-05
3.88532e-05
3.89954e-05
3.92079e-05
3.9505e-05
3.969e-05
3.98505e-05
3.99378e-05
3.99562e-05
3.98885e-05
3.97574e-05
3.95222e-05
3.91819e-05
3.87119e-05
3.80257e-05
3.70072e-05
3.55597e-05
3.37013e-05
3.15756e-05
2.93226e-05
2.70723e-05
2.49316e-05
2.30171e-05
2.13075e-05
1.96317e-05
1.78395e-05
1.59152e-05
1.39534e-05
1.20766e-05
1.04415e-05
9.10167e-06
8.07868e-06
7.30751e-06
6.69415e-06
6.1274e-06
5.53369e-06
5.12636e-06
4.7293e-06
3.92008e-06
2.18373e-06
3.97078e-06
9.13475e-06
9.85626e-06
1.01168e-05
1.03935e-05
1.04162e-05
1.05707e-05
1.04804e-05
1.06263e-05
1.04698e-05
1.19349e-05
0.000193722
9.70547e-05
9.71711e-05
9.72129e-05
9.72319e-05
9.72482e-05
9.72713e-05
9.73002e-05
9.73262e-05
9.73541e-05
9.73755e-05
9.73939e-05
9.7403e-05
9.74101e-05
9.74067e-05
9.74026e-05
9.73992e-05
9.74077e-05
9.74232e-05
9.7451e-05
9.74906e-05
9.75373e-05
9.7587e-05
9.76353e-05
9.76795e-05
9.77176e-05
9.77496e-05
9.77762e-05
9.77993e-05
9.78188e-05
9.78353e-05
9.78498e-05
9.7865e-05
9.78856e-05
9.79182e-05
9.79704e-05
9.80506e-05
9.81626e-05
9.83023e-05
9.85211e-05
9.87541e-05
9.89872e-05
9.92126e-05
9.93952e-05
9.9503e-05
9.94567e-05
9.96767e-05
0.000100139
9.81333e-05
9.7089e-05
9.6902e-05
9.67536e-05
9.66569e-05
9.65905e-05
9.65294e-05
9.6517e-05
9.64843e-05
9.64918e-05
9.64751e-05
9.64857e-05
9.65008e-05
9.73502e-05
9.74869e-05
9.75568e-05
9.75857e-05
9.76064e-05
9.76301e-05
9.76552e-05
9.76757e-05
9.76982e-05
9.77154e-05
9.77305e-05
9.77403e-05
9.77492e-05
9.77534e-05
9.77592e-05
9.77618e-05
9.77694e-05
9.7786e-05
9.78148e-05
9.78567e-05
9.79064e-05
9.79584e-05
9.80073e-05
9.80491e-05
9.80829e-05
9.81088e-05
9.81291e-05
9.81461e-05
9.81605e-05
9.81729e-05
9.81845e-05
9.81971e-05
9.82145e-05
9.8243e-05
9.82907e-05
9.83694e-05
9.84828e-05
9.86283e-05
9.88271e-05
9.907e-05
9.92906e-05
9.95024e-05
9.9692e-05
9.98378e-05
9.99117e-05
0.000100208
0.000100868
9.89279e-05
9.74765e-05
9.72447e-05
9.70891e-05
9.69954e-05
9.69351e-05
9.68794e-05
9.68708e-05
9.68411e-05
9.68503e-05
9.68352e-05
9.68463e-05
9.68564e-05
0.00019501
5.93872e-05
5.46007e-05
4.90255e-05
4.60431e-05
4.34429e-05
4.19205e-05
4.07334e-05
3.99598e-05
3.93789e-05
3.91379e-05
3.89544e-05
3.89556e-05
3.89736e-05
3.90249e-05
3.89755e-05
3.88381e-05
3.86086e-05
3.82828e-05
3.77967e-05
3.71251e-05
3.62365e-05
3.50793e-05
3.35869e-05
3.16939e-05
2.95081e-05
2.71615e-05
2.47653e-05
2.24426e-05
2.03464e-05
1.85485e-05
1.69854e-05
1.55535e-05
1.41611e-05
1.27439e-05
1.13234e-05
9.98338e-06
8.8148e-06
7.8564e-06
7.1239e-06
6.57073e-06
6.11227e-06
5.64151e-06
5.07435e-06
4.52852e-06
4.01522e-06
3.38686e-06
2.092e-06
3.27553e-06
8.7914e-06
9.58038e-06
9.84057e-06
1.01574e-05
1.01676e-05
1.03801e-05
1.02557e-05
1.04666e-05
1.02635e-05
1.18519e-05
0.00019372
0.00019507
3.50891e-05
2.88123e-05
2.30057e-05
2.02626e-05
1.79572e-05
1.67433e-05
1.5783e-05
1.51378e-05
1.46221e-05
1.4269e-05
1.38483e-05
1.35554e-05
1.32641e-05
1.30628e-05
1.28943e-05
1.27502e-05
1.2561e-05
1.22727e-05
1.1792e-05
1.11597e-05
1.04843e-05
9.85257e-06
9.3337e-06
8.94076e-06
8.69131e-06
8.54632e-06
8.46887e-06
8.43317e-06
8.42962e-06
8.45049e-06
8.48955e-06
8.54242e-06
8.61254e-06
8.71416e-06
8.86862e-06
9.10911e-06
9.45541e-06
9.89754e-06
1.03097e-05
1.06521e-05
1.08292e-05
1.07482e-05
1.03807e-05
9.63947e-06
8.70046e-06
7.47823e-06
4.91145e-06
1.37179e-06
7.54269e-07
1.66136e-06
1.78424e-06
1.86639e-06
1.88351e-06
1.93175e-06
1.91599e-06
1.95679e-06
1.96063e-06
4.36705e-06
0.000193699
0.000195147
2.11862e-05
1.52276e-05
1.0665e-05
8.74384e-06
7.11342e-06
6.4324e-06
5.99916e-06
5.88662e-06
5.9468e-06
6.14018e-06
6.38286e-06
6.67776e-06
6.99342e-06
7.32017e-06
7.63861e-06
7.94179e-06
8.22923e-06
8.49799e-06
8.77291e-06
9.05997e-06
9.37101e-06
9.69436e-06
1.00185e-05
1.03182e-05
1.05771e-05
1.07891e-05
1.09697e-05
1.11239e-05
1.12546e-05
1.1364e-05
1.14664e-05
1.15785e-05
1.17335e-05
1.19762e-05
1.23547e-05
1.29324e-05
1.37515e-05
1.47721e-05
1.59336e-05
1.69915e-05
1.77243e-05
1.79216e-05
1.77726e-05
1.75054e-05
1.69188e-05
1.47368e-05
1.0484e-05
3.56162e-06
7.02979e-07
1.87156e-07
3.13347e-07
3.4565e-07
3.51697e-07
3.62859e-07
3.60551e-07
3.70958e-07
5.05378e-07
4.20415e-06
0.000193686
0.000195203
1.20652e-05
7.00596e-06
4.27954e-06
3.89664e-06
3.93274e-06
4.26847e-06
4.6737e-06
5.145e-06
5.64549e-06
6.17359e-06
6.71842e-06
7.27611e-06
7.83381e-06
8.38479e-06
8.96711e-06
9.5441e-06
1.00852e-05
1.06031e-05
1.11665e-05
1.17881e-05
1.24593e-05
1.31481e-05
1.38141e-05
1.44024e-05
1.48682e-05
1.51985e-05
1.54244e-05
1.55782e-05
1.56599e-05
1.5677e-05
1.56786e-05
1.57112e-05
1.58384e-05
1.61341e-05
1.66931e-05
1.76281e-05
1.90064e-05
2.07973e-05
2.2813e-05
2.47344e-05
2.55984e-05
2.54329e-05
2.5528e-05
2.61918e-05
2.63921e-05
2.46803e-05
1.8826e-05
7.76366e-06
1.81801e-06
3.29432e-07
6.13168e-08
5.63294e-08
5.99204e-08
6.195e-08
6.18132e-08
6.97917e-08
3.48501e-07
4.38541e-06
0.000193686
0.000195244
3.72444e-06
2.22954e-06
2.07348e-06
2.36003e-06
2.70648e-06
3.09038e-06
3.49135e-06
3.92173e-06
4.3752e-06
4.8587e-06
5.37127e-06
5.90334e-06
6.44612e-06
7.01366e-06
7.69244e-06
8.49701e-06
9.31636e-06
1.00185e-05
1.07709e-05
1.16349e-05
1.2603e-05
1.36472e-05
1.47141e-05
1.57353e-05
1.66602e-05
1.7457e-05
1.81153e-05
1.86344e-05
1.90025e-05
1.92107e-05
1.93158e-05
1.93944e-05
1.95599e-05
1.99511e-05
2.07237e-05
2.20771e-05
2.42115e-05
2.72458e-05
3.10514e-05
3.49431e-05
3.69874e-05
3.64922e-05
3.60761e-05
3.61213e-05
3.52181e-05
3.23819e-05
2.57665e-05
1.3142e-05
3.60281e-06
7.72264e-07
1.25115e-07
2.26936e-08
1.85533e-08
1.87507e-08
1.86024e-08
2.96511e-08
3.47373e-07
4.41158e-06
0.000193685
0.000195307
1.67406e-06
1.86711e-06
2.19169e-06
2.59387e-06
3.06307e-06
3.60214e-06
4.2178e-06
4.9201e-06
5.67858e-06
6.50448e-06
7.40335e-06
8.33497e-06
9.30995e-06
1.02425e-05
1.11501e-05
1.22585e-05
1.35689e-05
1.4957e-05
1.66205e-05
1.86557e-05
2.09694e-05
2.34207e-05
2.569e-05
2.74315e-05
2.83966e-05
2.87994e-05
2.90682e-05
2.92973e-05
2.92599e-05
2.8791e-05
2.80206e-05
2.74214e-05
2.71983e-05
2.73526e-05
2.8071e-05
2.96538e-05
3.25292e-05
3.6903e-05
4.23246e-05
4.78794e-05
5.03967e-05
4.92953e-05
4.6658e-05
4.36738e-05
4.00175e-05
3.59593e-05
2.97938e-05
1.77247e-05
5.9213e-06
1.39391e-06
2.43766e-07
3.56592e-08
1.59453e-08
1.5992e-08
1.58398e-08
2.73232e-08
3.46568e-07
4.40676e-06
0.000193681
0.000194883
3.32434e-06
4.18921e-06
5.07424e-06
5.95925e-06
7.07499e-06
8.47041e-06
1.02254e-05
1.23694e-05
1.47716e-05
1.74563e-05
2.04801e-05
2.3572e-05
2.70609e-05
2.97487e-05
3.10871e-05
3.33522e-05
3.65143e-05
3.97948e-05
4.3808e-05
4.89334e-05
5.46987e-05
6.07206e-05
6.62496e-05
7.06816e-05
7.31759e-05
7.38233e-05
7.38602e-05
7.40442e-05
7.38228e-05
7.1548e-05
6.71949e-05
6.15398e-05
5.51098e-05
4.88809e-05
4.46531e-05
4.35395e-05
4.51874e-05
4.87553e-05
5.33009e-05
5.73423e-05
5.84572e-05
5.67886e-05
5.33411e-05
4.86044e-05
4.35402e-05
3.94269e-05
3.43399e-05
2.27697e-05
9.06338e-06
2.41764e-06
4.72787e-07
7.21803e-08
1.7064e-08
1.5855e-08
1.56718e-08
2.71942e-08
3.44718e-07
4.39974e-06
0.000193655
0.000194389
8.71057e-06
1.11985e-05
1.46503e-05
1.73328e-05
2.04186e-05
2.38424e-05
2.81254e-05
3.30123e-05
3.80361e-05
4.34356e-05
5.04387e-05
5.66859e-05
6.21574e-05
6.52266e-05
6.63711e-05
6.84335e-05
7.1766e-05
7.459e-05
7.76258e-05
8.20021e-05
8.73394e-05
9.29822e-05
9.80519e-05
0.000101833
0.000104114
0.000105225
0.000105462
0.000104688
0.000102718
9.96553e-05
9.55393e-05
9.06021e-05
8.50246e-05
7.86446e-05
7.16038e-05
6.53166e-05
6.08205e-05
5.84514e-05
5.8182e-05
5.90046e-05
5.8396e-05
5.53864e-05
5.11922e-05
4.72342e-05
4.47683e-05
4.42196e-05
4.16484e-05
2.9312e-05
1.29735e-05
3.87629e-06
8.46302e-07
1.41295e-07
2.36602e-08
1.59229e-08
1.56188e-08
2.7134e-08
3.4319e-07
4.39379e-06
0.00019364
0.000194292
1.68484e-05
2.33422e-05
3.27336e-05
3.83474e-05
4.32146e-05
4.72205e-05
5.15618e-05
5.63044e-05
6.03823e-05
6.37824e-05
6.70231e-05
7.00027e-05
7.25575e-05
7.47064e-05
7.6231e-05
7.70461e-05
7.77104e-05
7.87446e-05
8.02587e-05
8.20951e-05
8.40513e-05
8.58503e-05
8.72781e-05
8.83202e-05
8.89447e-05
8.90115e-05
8.84767e-05
8.73198e-05
8.5563e-05
8.32702e-05
8.04036e-05
7.69768e-05
7.30312e-05
6.86583e-05
6.41094e-05
5.9599e-05
5.56196e-05
5.28358e-05
5.16975e-05
5.19492e-05
5.20712e-05
5.0825e-05
4.91275e-05
4.86472e-05
5.1221e-05
5.59965e-05
5.57706e-05
4.03963e-05
1.90847e-05
6.21564e-06
1.47649e-06
2.652e-07
3.99981e-08
1.63344e-08
1.56413e-08
2.71028e-08
3.43151e-07
4.39265e-06
0.000193673
0.000194128
1.39526e-05
2.63397e-05
4.06323e-05
4.51959e-05
4.95485e-05
5.34999e-05
5.675e-05
5.92889e-05
6.16711e-05
6.41389e-05
6.62103e-05
6.75775e-05
6.8514e-05
6.89803e-05
6.88406e-05
6.82282e-05
6.72668e-05
6.64141e-05
6.61091e-05
6.64287e-05
6.75024e-05
6.93445e-05
7.16645e-05
7.40165e-05
7.60284e-05
7.75553e-05
7.86017e-05
7.90225e-05
7.85812e-05
7.70578e-05
7.43764e-05
7.0562e-05
6.57382e-05
6.0234e-05
5.46463e-05
4.93909e-05
4.4954e-05
4.19142e-05
4.0516e-05
4.0566e-05
4.15452e-05
4.34266e-05
4.74216e-05
5.39575e-05
6.17814e-05
6.70042e-05
6.33028e-05
4.30713e-05
1.97397e-05
6.39233e-06
1.52158e-06
2.73658e-07
4.09944e-08
1.63458e-08
1.56615e-08
2.71205e-08
3.44171e-07
4.39628e-06
0.000193683
0.000193415
1.14768e-05
2.9877e-05
4.7674e-05
5.65715e-05
6.32928e-05
6.77226e-05
7.11747e-05
7.41876e-05
7.65927e-05
7.83188e-05
7.96029e-05
8.05584e-05
8.12374e-05
8.15506e-05
8.09674e-05
7.97381e-05
7.84052e-05
7.74159e-05
7.705e-05
7.73777e-05
7.85925e-05
8.05359e-05
8.26712e-05
8.46313e-05
8.63669e-05
8.77787e-05
8.86647e-05
8.87102e-05
8.76118e-05
8.50543e-05
8.07776e-05
7.49568e-05
6.8012e-05
6.04089e-05
5.29264e-05
4.62398e-05
4.09938e-05
3.77481e-05
3.65431e-05
3.70309e-05
3.88634e-05
4.19465e-05
4.68848e-05
5.36554e-05
6.13328e-05
6.61526e-05
6.06518e-05
3.9785e-05
1.8217e-05
5.94728e-06
1.42494e-06
2.57071e-07
3.88435e-08
1.62696e-08
1.5646e-08
2.71127e-08
3.44069e-07
4.39667e-06
0.000193695
0.000193488
2.74254e-05
3.45427e-05
5.11862e-05
5.974e-05
6.51896e-05
6.79652e-05
7.03504e-05
7.29446e-05
7.52922e-05
7.74378e-05
7.9729e-05
8.19767e-05
8.38154e-05
8.51548e-05
8.56964e-05
8.5335e-05
8.43615e-05
8.33506e-05
8.29066e-05
8.33867e-05
8.47686e-05
8.68601e-05
8.93345e-05
9.18617e-05
9.42805e-05
9.63055e-05
9.76428e-05
9.82547e-05
9.79984e-05
9.60089e-05
9.18354e-05
8.55197e-05
7.72408e-05
6.75848e-05
5.78037e-05
4.91652e-05
4.24924e-05
3.85348e-05
3.68962e-05
3.70482e-05
3.86717e-05
4.14186e-05
4.58836e-05
5.21246e-05
5.94267e-05
6.43199e-05
6.00909e-05
4.02113e-05
1.84971e-05
6.03896e-06
1.44487e-06
2.60158e-07
3.91821e-08
1.62742e-08
1.56348e-08
2.71085e-08
3.43831e-07
4.39707e-06
0.00019369
0.000195044
1.48929e-05
2.5121e-05
3.65792e-05
4.06959e-05
4.41033e-05
4.70752e-05
5.06668e-05
5.43048e-05
5.75734e-05
6.06196e-05
6.42607e-05
6.86593e-05
7.32262e-05
7.73165e-05
7.99776e-05
8.09071e-05
8.09031e-05
8.08443e-05
8.12076e-05
8.2413e-05
8.4607e-05
8.76164e-05
9.10527e-05
9.44852e-05
9.76467e-05
0.000100271
0.000102185
0.000103219
0.000103443
0.000103666
0.000103563
0.00010128
9.61467e-05
8.78924e-05
7.71445e-05
6.56583e-05
5.54501e-05
4.77843e-05
4.36629e-05
4.31845e-05
4.49203e-05
4.70262e-05
4.959e-05
5.31257e-05
5.73626e-05
6.03759e-05
5.73922e-05
4.12833e-05
1.95386e-05
6.41353e-06
1.5317e-06
2.75048e-07
4.10399e-08
1.63323e-08
1.56344e-08
2.71138e-08
3.43633e-07
4.39677e-06
0.000193676
0.000195143
2.22979e-05
3.62262e-05
3.80042e-05
4.17722e-05
4.65308e-05
5.0813e-05
5.49458e-05
5.91921e-05
6.3795e-05
6.89243e-05
7.44433e-05
8.04003e-05
8.65332e-05
9.15268e-05
9.45618e-05
9.52918e-05
9.44965e-05
9.40828e-05
9.45313e-05
9.59212e-05
9.85403e-05
0.000102134
0.000105933
0.000109451
0.000112395
0.000114312
0.000114973
0.000113939
0.000109908
0.000102139
9.21308e-05
8.27365e-05
7.46479e-05
6.64669e-05
5.77512e-05
4.96033e-05
4.3531e-05
4.07613e-05
4.16082e-05
4.47229e-05
4.81649e-05
5.04042e-05
5.13821e-05
5.19818e-05
5.25123e-05
5.24185e-05
4.8762e-05
3.60525e-05
1.73555e-05
5.65082e-06
1.32912e-06
2.35458e-07
3.55222e-08
1.61582e-08
1.56773e-08
2.71491e-08
3.44406e-07
4.3951e-06
0.000193654
0.000193694
2.5195e-05
2.81356e-05
3.0146e-05
3.61357e-05
4.2907e-05
5.2206e-05
6.05689e-05
7.17528e-05
8.16079e-05
8.90514e-05
9.47186e-05
9.88683e-05
0.000101119
0.000101331
9.97065e-05
9.71751e-05
9.51276e-05
9.48543e-05
9.65471e-05
9.98113e-05
0.000104618
0.0001098
0.000113971
0.000116755
0.000117412
0.000115359
0.000110481
0.000102617
9.1816e-05
7.95351e-05
6.80268e-05
5.8758e-05
5.17385e-05
4.62231e-05
4.2001e-05
3.94324e-05
3.8935e-05
4.07061e-05
4.46964e-05
5.08012e-05
5.71705e-05
5.84802e-05
5.62923e-05
5.33035e-05
5.00659e-05
4.62903e-05
3.98519e-05
2.6941e-05
1.14244e-05
3.28051e-06
6.92785e-07
1.12362e-07
1.97067e-08
1.58256e-08
1.56871e-08
2.71796e-08
3.45583e-07
4.40003e-06
0.000193689
0.000195139
1.78629e-05
2.34403e-05
3.11004e-05
3.92289e-05
4.97642e-05
5.9733e-05
7.02774e-05
8.08409e-05
9.12265e-05
9.96633e-05
0.000106563
0.000111328
0.000113542
0.0001141
0.000113499
0.000112098
0.000110891
0.000111262
0.000113491
0.000117559
0.00012293
0.000127595
0.000130623
0.000131837
0.000131297
0.000128957
0.000124281
0.000116441
0.000105816
9.28737e-05
7.72151e-05
6.05963e-05
4.97102e-05
4.59887e-05
4.44191e-05
4.41789e-05
4.52137e-05
4.76846e-05
5.1384e-05
5.51089e-05
5.82395e-05
5.90996e-05
5.78377e-05
5.50922e-05
5.10961e-05
4.58471e-05
3.79311e-05
2.46408e-05
1.00763e-05
2.83223e-06