/*--------------------------------*- C++ -*----------------------------------*\
| =========                 |                                                 |
| \\      /  F ield         | OpenFOAM: The Open Source CFD Toolbox           |
|  \\    /   O peration     | Version:  2.1.1                                 |
|   \\  /    A nd           | Web:      www.OpenFOAM.org                      |
|    \\/     M anipulation  |                                                 |
\*---------------------------------------------------------------------------*/
FoamFile
{
    version     2.0;
    format      ascii;
    class       volScalarField;
    location    "0.00105";
    object      nut;
}
// * * * * * * * * * * * * * * * * * * * * * * * * * * * * * * * * * * * * * //

dimensions      [0 2 -1 0 0 0 0];

internalField   nonuniform List<scalar> 
36520
(
6.26928e-06
8.33323e-06
1.05901e-05
1.1074e-05
1.16877e-05
1.18793e-05
1.20693e-05
1.21136e-05
1.20713e-05
1.19614e-05
1.17679e-05
1.15483e-05
1.128e-05
1.1008e-05
1.07047e-05
1.04103e-05
1.00919e-05
9.76912e-06
9.41983e-06
9.05198e-06
8.65113e-06
8.22634e-06
7.77265e-06
7.30165e-06
6.8186e-06
6.33769e-06
5.86432e-06
5.40755e-06
4.97266e-06
4.56593e-06
4.1893e-06
3.84635e-06
3.53805e-06
3.26442e-06
3.02312e-06
2.81013e-06
2.6194e-06
2.44271e-06
2.2711e-06
2.09603e-06
1.9102e-06
1.71069e-06
1.48325e-06
1.2484e-06
1.03908e-06
8.53359e-07
6.4898e-07
4.5342e-07
3.93967e-07
3.73081e-07
3.61726e-07
3.52254e-07
3.50896e-07
3.46236e-07
3.48772e-07
3.45622e-07
3.49369e-07
3.46488e-07
3.51723e-07
3.68036e-07
9.4561e-06
2.67479e-06
2.75712e-06
2.40198e-06
2.18279e-06
1.96943e-06
1.86591e-06
1.76611e-06
1.69303e-06
1.62491e-06
1.57847e-06
1.54602e-06
1.5254e-06
1.51083e-06
1.49736e-06
1.4786e-06
1.44509e-06
1.39681e-06
1.32884e-06
1.24238e-06
1.13883e-06
1.02592e-06
9.06864e-07
7.89674e-07
6.81976e-07
5.85965e-07
4.99148e-07
4.2209e-07
3.58603e-07
3.08644e-07
2.70777e-07
2.43446e-07
2.24405e-07
2.09709e-07
1.9626e-07
1.82378e-07
1.6731e-07
1.51682e-07
1.37085e-07
1.25386e-07
1.18218e-07
1.16182e-07
1.16109e-07
1.17878e-07
1.18255e-07
9.82032e-08
5.75266e-08
1.21942e-08
5.92066e-09
1.46568e-08
1.63961e-08
1.70413e-08
1.77769e-08
1.77927e-08
1.82562e-08
1.79519e-08
1.84188e-08
1.79558e-08
2.20453e-08
6.32906e-07
6.06097e-06
7.63951e-07
6.58979e-07
4.88349e-07
3.9217e-07
3.22137e-07
2.89534e-07
2.64769e-07
2.47566e-07
2.34879e-07
2.26818e-07
2.22529e-07
2.21891e-07
2.22225e-07
2.24564e-07
2.2517e-07
2.22235e-07
2.14647e-07
2.01974e-07
1.84176e-07
1.62731e-07
1.40595e-07
1.19803e-07
1.0315e-07
9.22906e-08
8.66016e-08
8.44434e-08
8.47413e-08
8.70304e-08
9.06612e-08
9.52178e-08
1.00662e-07
1.07183e-07
1.15178e-07
1.2534e-07
1.38459e-07
1.5565e-07
1.78262e-07
2.08105e-07
2.47321e-07
2.9773e-07
3.58779e-07
4.21846e-07
4.62655e-07
4.65681e-07
3.80268e-07
2.29673e-07
6.06628e-08
2.89117e-09
7.89996e-10
1.26739e-09
1.23747e-09
1.21738e-09
1.17743e-09
1.17669e-09
1.13553e-09
1.15304e-09
1.14854e-09
3.7287e-09
5.7978e-07
4.0116e-06
2.43456e-07
1.69159e-07
1.07731e-07
7.90371e-08
6.12642e-08
5.37561e-08
4.8552e-08
4.55258e-08
4.41349e-08
4.42313e-08
4.59875e-08
4.91594e-08
5.30965e-08
5.80555e-08
6.32901e-08
6.85666e-08
7.40306e-08
7.98922e-08
8.66705e-08
9.49568e-08
1.05398e-07
1.18168e-07
1.33221e-07
1.49772e-07
1.67086e-07
1.84704e-07
2.02615e-07
2.20003e-07
2.3637e-07
2.51997e-07
2.66887e-07
2.81471e-07
2.97393e-07
3.17521e-07
3.45315e-07
3.85648e-07
4.43702e-07
5.25375e-07
6.37481e-07
7.87043e-07
9.76806e-07
1.18202e-06
1.30777e-06
1.27894e-06
1.07495e-06
6.68448e-07
2.24465e-07
1.49778e-08
5.48825e-10
8.32364e-11
9.2632e-11
7.64145e-11
6.66503e-11
6.15634e-11
5.74081e-11
5.68769e-11
9.04338e-11
2.82086e-09
5.70885e-07
2.69362e-06
7.40425e-08
3.93058e-08
2.04885e-08
1.53434e-08
1.43485e-08
1.62182e-08
1.92944e-08
2.37665e-08
2.94722e-08
3.65474e-08
4.498e-08
5.50072e-08
6.6593e-08
7.95981e-08
9.45494e-08
1.1216e-07
1.33684e-07
1.60148e-07
1.93616e-07
2.35902e-07
2.88397e-07
3.52109e-07
4.26644e-07
5.08272e-07
5.94388e-07
6.85969e-07
7.86193e-07
8.83533e-07
9.6524e-07
9.9566e-07
9.81113e-07
9.43803e-07
9.12123e-07
9.04517e-07
9.30653e-07
9.87001e-07
1.08793e-06
1.24887e-06
1.48921e-06
1.82957e-06
2.29549e-06
2.8234e-06
3.03717e-06
2.77896e-06
2.28051e-06
1.56594e-06
6.1862e-07
6.43532e-08
3.07341e-09
9.65663e-11
7.79529e-12
5.62689e-12
3.91116e-12
2.94282e-12
2.50264e-12
2.68947e-12
3.81198e-11
2.91079e-09
5.69782e-07
2.13601e-06
1.07887e-08
7.91893e-09
8.63082e-09
1.11898e-08
1.46105e-08
1.92076e-08
2.54767e-08
3.40116e-08
4.5523e-08
6.0601e-08
7.96605e-08
1.05876e-07
1.39896e-07
1.81221e-07
2.31701e-07
2.95117e-07
3.78236e-07
4.89285e-07
6.41813e-07
8.52006e-07
1.13649e-06
1.5264e-06
2.0498e-06
2.68999e-06
3.4048e-06
4.21175e-06
5.19464e-06
6.00572e-06
6.30827e-06
6.14465e-06
5.61824e-06
4.84738e-06
4.04588e-06
3.41818e-06
3.03455e-06
2.91201e-06
2.95237e-06
3.17853e-06
3.62007e-06
4.25997e-06
5.09874e-06
5.88196e-06
5.89705e-06
5.09424e-06
4.05775e-06
2.86604e-06
1.34556e-06
2.15791e-07
1.49006e-08
6.63084e-10
1.80367e-11
6.77465e-13
3.52807e-13
3.18057e-13
2.99983e-13
6.18e-13
3.65965e-11
2.92515e-09
5.6978e-07
2.55754e-06
2.31505e-08
4.01732e-08
6.19902e-08
8.59576e-08
1.07519e-07
1.30174e-07
1.59397e-07
1.9539e-07
2.43436e-07
3.07665e-07
3.90667e-07
4.97571e-07
6.8028e-07
8.63056e-07
1.01941e-06
1.28468e-06
1.67012e-06
2.18443e-06
2.89958e-06
3.90383e-06
5.17559e-06
6.84849e-06
9.19684e-06
1.20188e-05
1.4342e-05
1.60479e-05
1.75324e-05
1.87618e-05
1.9448e-05
1.94051e-05
1.84888e-05
1.65922e-05
1.40037e-05
1.1287e-05
8.93403e-06
7.254e-06
6.45835e-06
6.30072e-06
6.5267e-06
7.05823e-06
7.79184e-06
8.31967e-06
7.9697e-06
6.86117e-06
5.5911e-06
4.32687e-06
2.4331e-06
5.83934e-07
5.86734e-08
3.31803e-09
1.09498e-10
2.44971e-12
2.66294e-13
2.43096e-13
2.39276e-13
5.55907e-13
3.64783e-11
2.92155e-09
5.69718e-07
7.54048e-06
2.1406e-07
4.17203e-07
7.14988e-07
1.13929e-06
1.51759e-06
1.88833e-06
2.3669e-06
2.87329e-06
3.48182e-06
4.2256e-06
5.20361e-06
6.11546e-06
6.99992e-06
7.65533e-06
8.19787e-06
9.57565e-06
1.14857e-05
1.35126e-05
1.61106e-05
1.95997e-05
2.34107e-05
2.70036e-05
3.03117e-05
3.31436e-05
3.49827e-05
3.57342e-05
3.58034e-05
3.54661e-05
3.47194e-05
3.34957e-05
3.18206e-05
2.96194e-05
2.68118e-05
2.35513e-05
2.00879e-05
1.671e-05
1.37176e-05
1.16531e-05
1.06619e-05
1.01776e-05
9.73206e-06
9.11897e-06
8.22825e-06
7.11586e-06
6.07849e-06
5.14374e-06
3.45632e-06
1.17936e-06
1.63849e-07
1.18485e-08
4.87111e-10
1.22885e-11
4.2207e-13
2.42991e-13
2.37759e-13
5.5276e-13
3.63359e-11
2.91596e-09
5.6954e-07
1.28682e-05
8.61939e-07
1.93773e-06
3.57778e-06
5.23042e-06
7.38384e-06
9.41168e-06
1.24953e-05
1.54169e-05
1.83339e-05
2.18482e-05
2.54199e-05
2.77271e-05
2.9046e-05
2.96252e-05
2.92369e-05
2.88023e-05
2.90185e-05
2.96934e-05
3.0483e-05
3.14845e-05
3.27292e-05
3.40014e-05
3.51221e-05
3.59863e-05
3.65058e-05
3.65174e-05
3.59713e-05
3.49824e-05
3.36605e-05
3.20299e-05
3.00846e-05
2.78394e-05
2.55057e-05
2.33635e-05
2.14449e-05
1.96719e-05
1.78324e-05
1.5615e-05
1.3353e-05
1.15514e-05
1.0089e-05
8.67069e-06
7.41558e-06
6.56314e-06
6.17255e-06
6.00056e-06
4.7521e-06
2.09255e-06
4.01489e-07
3.80695e-08
1.96207e-09
5.90199e-11
1.31371e-12
2.5349e-13
2.37333e-13
5.51497e-13
3.616e-11
2.91194e-09
5.69152e-07
1.3091e-05
9.32778e-07
2.28532e-06
4.03227e-06
6.13839e-06
7.93594e-06
9.57893e-06
1.14272e-05
1.36084e-05
1.6086e-05
1.88472e-05
2.19461e-05
2.52073e-05
2.84105e-05
3.10262e-05
3.26728e-05
3.41871e-05
3.52483e-05
3.53776e-05
3.49622e-05
3.47564e-05
3.50941e-05
3.60749e-05
3.74264e-05
3.87887e-05
3.97211e-05
3.98589e-05
3.91405e-05
3.76151e-05
3.5513e-05
3.3067e-05
3.03191e-05
2.74443e-05
2.44697e-05
2.11393e-05
1.73962e-05
1.3838e-05
1.10129e-05
9.18468e-06
7.94581e-06
6.93267e-06
6.17281e-06
5.75741e-06
5.65871e-06
5.84002e-06
6.26773e-06
6.52358e-06
5.27803e-06
2.34766e-06
4.69572e-07
4.68813e-08
2.52316e-09
7.799e-11
1.67795e-12
2.5729e-13
2.36553e-13
5.51502e-13
3.61489e-11
2.91336e-09
5.69074e-07
1.14171e-05
9.73562e-07
5.4053e-06
1.09165e-05
1.54497e-05
1.95338e-05
2.30398e-05
2.71455e-05
3.20983e-05
3.78589e-05
4.47255e-05
5.26193e-05
6.04857e-05
6.80938e-05
7.52476e-05
8.17093e-05
8.54137e-05
8.50692e-05
8.2996e-05
8.15104e-05
8.16871e-05
8.40621e-05
8.81694e-05
9.28646e-05
9.70404e-05
9.97569e-05
0.000100215
9.82994e-05
9.44845e-05
8.9097e-05
8.24543e-05
7.46724e-05
6.57475e-05
5.57585e-05
4.48149e-05
3.27634e-05
2.22198e-05
1.49988e-05
1.06249e-05
8.39024e-06
7.32465e-06
6.70131e-06
6.24593e-06
5.99106e-06
5.85116e-06
5.82211e-06
5.7731e-06
4.78792e-06
2.3209e-06
5.02231e-07
5.23381e-08
2.87696e-09
8.9469e-11
1.88268e-12
2.58853e-13
2.36121e-13
5.511e-13
3.62019e-11
2.91584e-09
5.68804e-07
1.17509e-05
1.59112e-06
6.04467e-06
8.37381e-06
1.03138e-05
1.64026e-05
2.50694e-05
3.78391e-05
5.38436e-05
7.12542e-05
8.95234e-05
0.00010694
0.000119791
0.000127969
0.000131918
0.000132287
0.000129715
0.000122563
0.000110366
0.000100868
9.9639e-05
0.000105083
0.000115249
0.000127001
0.000137567
0.000144129
0.000145627
0.000142966
0.000137962
0.000131586
0.000124429
0.000115655
0.000103233
8.75965e-05
6.94641e-05
5.11478e-05
3.41099e-05
2.09724e-05
1.31412e-05
9.92534e-06
9.45087e-06
9.97898e-06
1.02317e-05
9.67075e-06
8.57444e-06
7.15107e-06
5.68637e-06
4.05225e-06
1.90922e-06
3.93349e-07
3.62716e-08
1.76242e-09
4.91179e-11
1.02456e-12
2.46091e-13
2.36199e-13
5.50844e-13
3.63427e-11
2.92064e-09
5.68476e-07
1.43522e-05
2.72726e-06
6.60002e-06
8.24461e-06
1.12882e-05
1.99567e-05
3.06451e-05
4.47719e-05
6.16048e-05
8.03709e-05
0.000100073
0.000117992
0.000130668
0.000138021
0.000141579
0.000141192
0.000136099
0.000125675
0.000112356
0.000102436
0.000100105
0.000104653
0.000114001
0.000123213
0.000129656
0.000133242
0.000133851
0.000131915
0.000128537
0.00012382
0.000116938
0.000107165
9.36942e-05
7.8057e-05
6.19469e-05
4.55916e-05
3.03415e-05
1.90842e-05
1.25756e-05
1.02803e-05
1.10067e-05
1.3293e-05
1.38461e-05
1.24316e-05
1.02963e-05
8.01165e-06
6.0173e-06
4.12619e-06
1.9064e-06
3.86041e-07
3.53279e-08
1.71104e-09
4.76433e-11
9.98142e-13
2.45568e-13
2.36054e-13
5.50565e-13
3.63118e-11
2.91794e-09
5.68339e-07
1.31641e-05
2.36457e-06
8.38932e-06
1.51505e-05
2.07538e-05
2.70754e-05
3.36099e-05
4.03681e-05
4.72482e-05
5.41158e-05
6.08801e-05
6.77514e-05
7.43382e-05
8.00637e-05
8.49322e-05
8.80925e-05
8.7428e-05
8.2153e-05
7.52657e-05
7.00252e-05
6.70174e-05
6.64665e-05
6.86242e-05
7.291e-05
7.71333e-05
8.00009e-05
8.08323e-05
7.97818e-05
7.72796e-05
7.37957e-05
6.90772e-05
6.26451e-05
5.4685e-05
4.51295e-05
3.49159e-05
2.5479e-05
1.78531e-05
1.23919e-05
9.01727e-06
7.57649e-06
7.52368e-06
7.97405e-06
7.68437e-06
7.04161e-06
6.4866e-06
6.145e-06
5.85439e-06
4.59495e-06
2.04764e-06
4.21762e-07
4.28958e-08
2.3294e-09
7.19142e-11
1.54897e-12
2.54865e-13
2.37042e-13
5.51e-13
3.63304e-11
2.91448e-09
5.68803e-07
1.40303e-05
3.14032e-06
5.91424e-06
1.00921e-05
1.62222e-05
2.54204e-05
2.99148e-05
3.42686e-05
3.83866e-05
4.22021e-05
4.60265e-05
4.93068e-05
5.18129e-05
5.34281e-05
5.46091e-05
5.46263e-05
5.27488e-05
4.93931e-05
4.59616e-05
4.36922e-05
4.28335e-05
4.28428e-05
4.27813e-05
4.26895e-05
4.33072e-05
4.35563e-05
4.27928e-05
4.13052e-05
3.93837e-05
3.70374e-05
3.3993e-05
3.0218e-05
2.59466e-05
2.14304e-05
1.70896e-05
1.32228e-05
1.00148e-05
7.60349e-06
6.02951e-06
5.18264e-06
4.88577e-06
4.96002e-06
5.04532e-06
5.13725e-06
5.33136e-06
5.63087e-06
5.7184e-06
4.24934e-06
1.60508e-06
2.92974e-07
2.76925e-08
1.4368e-09
4.31486e-11
1.00873e-12
2.49334e-13
2.37893e-13
5.5165e-13
3.63782e-11
2.91485e-09
5.69321e-07
1.3566e-05
1.40143e-06
3.03813e-06
5.10916e-06
7.5863e-06
1.19153e-05
1.56713e-05
2.10301e-05
2.58554e-05
3.07288e-05
3.55706e-05
3.95135e-05
4.20674e-05
4.3618e-05
4.42891e-05
4.39819e-05
4.2988e-05
4.1698e-05
4.04051e-05
3.91154e-05
3.81112e-05
3.72872e-05
3.61886e-05
3.49021e-05
3.3642e-05
3.24299e-05
3.10461e-05
2.92445e-05
2.717e-05
2.51045e-05
2.30891e-05
2.10233e-05
1.87934e-05
1.64824e-05
1.42466e-05
1.22099e-05
1.04881e-05
9.16942e-06
8.29481e-06
7.85984e-06
7.72972e-06
7.55945e-06
6.94038e-06
6.2079e-06
5.69606e-06
5.52758e-06
5.42176e-06
4.00345e-06
1.47612e-06
2.51704e-07
2.21155e-08
1.08443e-09
3.14413e-11
7.87083e-13
2.46982e-13
2.37533e-13
5.51378e-13
3.62465e-11
2.91118e-09
5.69361e-07
7.32646e-06
1.83611e-07
3.26514e-07
5.21043e-07
7.81161e-07
1.10581e-06
1.4893e-06
2.01308e-06
2.61384e-06
3.38992e-06
4.43223e-06
5.8319e-06
7.67944e-06
9.50929e-06
1.1213e-05
1.26403e-05
1.3166e-05
1.34241e-05
1.37329e-05
1.48089e-05
1.69517e-05
1.89018e-05
2.01397e-05
2.13233e-05
2.28997e-05
2.45202e-05
2.53504e-05
2.51737e-05
2.45119e-05
2.36312e-05
2.23364e-05
2.04275e-05
1.79388e-05
1.5181e-05
1.27056e-05
1.09476e-05
9.79485e-06
9.15518e-06
9.00969e-06
9.25974e-06
9.46818e-06
9.08332e-06
8.29401e-06
7.33652e-06
6.31564e-06
5.43015e-06
4.67479e-06
3.07435e-06
9.54253e-07
1.24125e-07
8.50712e-09
3.37362e-10
8.37024e-12
3.54162e-13
2.39484e-13
2.34175e-13
5.49898e-13
3.61728e-11
2.91329e-09
5.69182e-07
2.55513e-06
2.00894e-08
3.30503e-08
4.79924e-08
6.52869e-08
8.40261e-08
1.07067e-07
1.37159e-07
1.75876e-07
2.27972e-07
2.99499e-07
3.97124e-07
5.31859e-07
7.5112e-07
1.01824e-06
1.2038e-06
1.25449e-06
1.29385e-06
1.46398e-06
1.73546e-06
2.07691e-06
2.43415e-06
2.80052e-06
3.22718e-06
3.74228e-06
4.31842e-06
4.83725e-06
5.14034e-06
5.24067e-06
5.12312e-06
4.68737e-06
4.07302e-06
3.51557e-06
3.27585e-06
3.32644e-06
3.52553e-06
3.92364e-06
4.56172e-06
5.44132e-06
6.71937e-06
8.3653e-06
9.45707e-06
9.57325e-06
8.62887e-06
7.00456e-06
5.3829e-06
3.98711e-06
2.14105e-06
4.60639e-07
4.38932e-08
2.36954e-09
7.57681e-11
1.87621e-12
3.8772e-13
3.17585e-13
2.85364e-13
5.86034e-13
3.6454e-11
2.92302e-09
5.69595e-07
2.36976e-06
1.03654e-08
6.72192e-09
7.87765e-09
1.06366e-08
1.43376e-08
1.93656e-08
2.58564e-08
3.44778e-08
4.55797e-08
5.97084e-08
7.72529e-08
9.79591e-08
1.21585e-07
1.47503e-07
1.75992e-07
2.06667e-07
2.41136e-07
2.80715e-07
3.28603e-07
3.85948e-07
4.52288e-07
5.2774e-07
6.14018e-07
7.09259e-07
8.06998e-07
8.94444e-07
9.65267e-07
1.02142e-06
1.06822e-06
1.10981e-06
1.15207e-06
1.20746e-06
1.29065e-06
1.41634e-06
1.59788e-06
1.86196e-06
2.23932e-06
2.76682e-06
3.48988e-06
4.52288e-06
5.59141e-06
6.06578e-06
5.83107e-06
5.01478e-06
3.96095e-06
2.71957e-06
1.21388e-06
1.75606e-07
1.16184e-08
4.99777e-10
1.42566e-11
1.62279e-12
1.16565e-12
7.84347e-13
5.97615e-13
8.11125e-13
3.67381e-11
2.92892e-09
5.69523e-07
3.20498e-06
6.84434e-08
2.44476e-08
1.20427e-08
1.14771e-08
1.32187e-08
1.68775e-08
2.16377e-08
2.78108e-08
3.52747e-08
4.42367e-08
5.46337e-08
6.64449e-08
7.96033e-08
9.4016e-08
1.09762e-07
1.26857e-07
1.46261e-07
1.68531e-07
1.95378e-07
2.27514e-07
2.65499e-07
3.09149e-07
3.58769e-07
4.13175e-07
4.70147e-07
5.24991e-07
5.75081e-07
6.20484e-07
6.61918e-07
6.99674e-07
7.37096e-07
7.81442e-07
8.40917e-07
9.25136e-07
1.04235e-06
1.20904e-06
1.44551e-06
1.76818e-06
2.15794e-06
2.57405e-06
2.94114e-06
3.09777e-06
3.03805e-06
2.76628e-06
2.29656e-06
1.56415e-06
6.0834e-07
6.06511e-08
2.87889e-09
8.69574e-11
8.2627e-12
7.84679e-12
6.34712e-12
4.96827e-12
4.1362e-12
3.95006e-12
3.92767e-11
2.91447e-09
5.69351e-07
4.86592e-06
2.51402e-07
1.20766e-07
5.45443e-08
3.77018e-08
2.79112e-08
2.63679e-08
2.62813e-08
2.80116e-08
3.1088e-08
3.5345e-08
4.06327e-08
4.70236e-08
5.43363e-08
6.23907e-08
7.12359e-08
8.07763e-08
9.15437e-08
1.03508e-07
1.17446e-07
1.33586e-07
1.52525e-07
1.74067e-07
1.9819e-07
2.24199e-07
2.51018e-07
2.76557e-07
2.99911e-07
3.20915e-07
3.40022e-07
3.57932e-07
3.76376e-07
3.98867e-07
4.29791e-07
4.73941e-07
5.3583e-07
6.21979e-07
7.39558e-07
8.93564e-07
1.08301e-06
1.28163e-06
1.46391e-06
1.58119e-06
1.59032e-06
1.48027e-06
1.20958e-06
7.51731e-07
2.58472e-07
1.86031e-08
6.81179e-10
4.67671e-11
6.17194e-11
6.54702e-11
6.5017e-11
6.52123e-11
6.35678e-11
6.44357e-11
9.95149e-11
2.83806e-09
5.70047e-07
6.77376e-06
8.13177e-07
5.36526e-07
3.01603e-07
2.28844e-07
1.72404e-07
1.53011e-07
1.38017e-07
1.28158e-07
1.21958e-07
1.18427e-07
1.16088e-07
1.16823e-07
1.19652e-07
1.23817e-07
1.28573e-07
1.33991e-07
1.39365e-07
1.42747e-07
1.43231e-07
1.41591e-07
1.39684e-07
1.37801e-07
1.36486e-07
1.36088e-07
1.37486e-07
1.40801e-07
1.45747e-07
1.51865e-07
1.59059e-07
1.67309e-07
1.76804e-07
1.87789e-07
2.00912e-07
2.17312e-07
2.38172e-07
2.65127e-07
2.9974e-07
3.42779e-07
3.88115e-07
4.32052e-07
4.63721e-07
4.72469e-07
4.56494e-07
4.21704e-07
3.45256e-07
2.16532e-07
5.89679e-08
2.90931e-09
4.28984e-10
8.3909e-10
9.48574e-10
1.02605e-09
1.05153e-09
1.08688e-09
1.08036e-09
1.10624e-09
1.12498e-09
3.7486e-09
5.77811e-07
9.80435e-06
2.79663e-06
2.50678e-06
1.92237e-06
1.70783e-06
1.48387e-06
1.39614e-06
1.31194e-06
1.25247e-06
1.19973e-06
1.16783e-06
1.1373e-06
1.12109e-06
1.10841e-06
1.10092e-06
1.09284e-06
1.08576e-06
1.07336e-06
1.05149e-06
1.01595e-06
9.68645e-07
9.13943e-07
8.51597e-07
7.81644e-07
7.0468e-07
6.26694e-07
5.54678e-07
4.91536e-07
4.37772e-07
3.93282e-07
3.58449e-07
3.311e-07
3.06256e-07
2.80082e-07
2.5185e-07
2.23026e-07
1.95692e-07
1.7189e-07
1.5149e-07
1.35233e-07
1.21895e-07
1.09712e-07
9.69983e-08
8.36726e-08
7.38957e-08
6.20372e-08
3.75838e-08
8.37571e-09
5.67197e-09
1.29062e-08
1.47115e-08
1.55579e-08
1.64018e-08
1.65778e-08
1.7047e-08
1.6902e-08
1.72907e-08
1.70039e-08
2.08915e-08
6.21977e-07
7.67856e-06
9.01584e-06
1.10033e-05
1.13586e-05
1.17828e-05
1.19127e-05
1.20018e-05
1.1986e-05
1.18875e-05
1.17419e-05
1.15233e-05
1.12857e-05
1.09984e-05
1.07079e-05
1.03884e-05
1.0079e-05
9.74762e-06
9.41709e-06
9.06325e-06
8.69641e-06
8.30067e-06
7.88672e-06
7.4487e-06
6.99905e-06
6.54028e-06
6.0858e-06
5.64443e-06
5.22819e-06
4.84015e-06
4.48277e-06
4.15648e-06
3.86336e-06
3.59987e-06
3.36041e-06
3.13748e-06
2.92532e-06
2.71849e-06
2.50984e-06
2.29026e-06
2.04887e-06
1.79447e-06
1.53601e-06
1.2852e-06
1.05554e-06
8.59515e-07
7.02169e-07
5.56948e-07
4.41509e-07
4.04167e-07
3.88115e-07
3.78697e-07
3.69919e-07
3.67975e-07
3.62602e-07
3.64368e-07
3.6042e-07
3.63793e-07
3.60223e-07
3.6518e-07
3.76485e-07
6.93236e-06
8.44935e-06
1.04888e-05
1.10017e-05
1.1558e-05
1.1763e-05
1.19117e-05
1.19355e-05
1.18541e-05
1.17237e-05
1.15064e-05
1.12709e-05
1.09756e-05
1.06768e-05
1.03438e-05
1.00164e-05
9.66636e-06
9.31692e-06
8.94605e-06
8.56146e-06
8.14736e-06
7.71322e-06
7.25578e-06
6.78878e-06
6.31931e-06
5.86426e-06
5.43013e-06
5.02405e-06
4.64724e-06
4.3021e-06
3.98872e-06
3.70802e-06
3.45678e-06
3.23127e-06
3.02565e-06
2.83373e-06
2.64856e-06
2.46232e-06
2.26832e-06
2.05089e-06
1.81517e-06
1.57223e-06
1.33228e-06
1.10743e-06
9.09209e-07
7.40643e-07
5.83252e-07
4.48576e-07
4.0285e-07
3.86448e-07
3.77454e-07
3.69374e-07
3.67862e-07
3.62943e-07
3.64856e-07
3.61153e-07
3.64508e-07
3.61132e-07
3.66922e-07
3.89423e-07
9.16776e-06
2.59367e-06
2.51652e-06
2.05114e-06
1.8607e-06
1.63911e-06
1.52293e-06
1.41548e-06
1.33363e-06
1.25648e-06
1.20839e-06
1.15291e-06
1.11861e-06
1.08904e-06
1.06643e-06
1.04657e-06
1.02778e-06
1.00484e-06
9.73944e-07
9.28432e-07
8.68956e-07
7.99539e-07
7.23541e-07
6.4522e-07
5.66463e-07
4.94241e-07
4.31039e-07
3.76638e-07
3.30664e-07
2.93959e-07
2.65982e-07
2.4418e-07
2.25684e-07
2.08312e-07
1.90714e-07
1.72862e-07
1.56034e-07
1.41402e-07
1.29076e-07
1.19677e-07
1.12227e-07
1.04752e-07
9.48009e-08
8.13039e-08
6.72562e-08
5.27231e-08
3.30054e-08
8.87149e-09
4.85128e-09
1.24976e-08
1.43269e-08
1.51132e-08
1.59769e-08
1.60922e-08
1.66449e-08
1.64138e-08
1.69167e-08
1.65261e-08
2.06836e-08
6.29792e-07
5.77867e-06
7.57251e-07
5.67866e-07
3.54015e-07
2.77591e-07
2.10405e-07
1.80731e-07
1.56703e-07
1.41231e-07
1.29296e-07
1.22927e-07
1.15973e-07
1.13215e-07
1.11476e-07
1.12004e-07
1.13577e-07
1.159e-07
1.1771e-07
1.18011e-07
1.15367e-07
1.10492e-07
1.05198e-07
1.00706e-07
9.797e-08
9.7102e-08
9.84489e-08
1.01532e-07
1.05966e-07
1.11472e-07
1.18028e-07
1.25662e-07
1.34564e-07
1.44938e-07
1.57351e-07
1.72856e-07
1.92943e-07
2.19958e-07
2.56278e-07
3.03584e-07
3.50517e-07
3.89732e-07
4.08991e-07
3.9751e-07
3.59597e-07
3.05736e-07
2.4743e-07
1.65927e-07
5.46721e-08
3.09532e-09
3.89605e-10
7.52403e-10
8.44138e-10
9.16027e-10
9.37135e-10
9.7857e-10
9.71404e-10
1.00396e-09
1.02194e-09
3.67083e-09
5.7919e-07
4.20228e-06
2.38097e-07
1.35268e-07
6.56645e-08
4.6684e-08
3.32708e-08
2.9895e-08
2.85695e-08
2.98689e-08
3.26558e-08
3.6873e-08
4.19387e-08
4.79894e-08
5.48216e-08
6.23661e-08
7.04632e-08
7.90456e-08
8.82882e-08
9.80665e-08
1.09064e-07
1.21493e-07
1.35758e-07
1.51653e-07
1.68903e-07
1.86651e-07
2.04195e-07
2.21101e-07
2.37894e-07
2.54748e-07
2.71867e-07
2.89646e-07
3.09442e-07
3.33046e-07
3.63609e-07
4.05682e-07
4.65555e-07
5.5345e-07
6.82596e-07
8.62922e-07
1.10138e-06
1.3627e-06
1.50725e-06
1.46552e-06
1.29748e-06
1.09942e-06
9.12981e-07
6.30652e-07
2.53467e-07
2.20175e-08
7.11739e-10
3.39692e-11
3.87702e-11
4.45239e-11
4.62491e-11
4.88337e-11
4.86784e-11
5.10218e-11
8.7029e-11
2.85159e-09
5.70548e-07
3.18131e-06
7.65604e-08
3.3118e-08
1.63308e-08
1.59072e-08
1.81131e-08
2.29182e-08
2.9138e-08
3.71555e-08
4.6759e-08
5.81737e-08
7.139e-08
8.64846e-08
1.03329e-07
1.21841e-07
1.42393e-07
1.64879e-07
1.89394e-07
2.16251e-07
2.48437e-07
2.87176e-07
3.3289e-07
3.84421e-07
4.39449e-07
4.94003e-07
5.44384e-07
5.88786e-07
6.28484e-07
6.65325e-07
6.98128e-07
7.26794e-07
7.57057e-07
7.9604e-07
8.54808e-07
9.46997e-07
1.093e-06
1.32438e-06
1.68002e-06
2.19551e-06
2.86759e-06
3.67301e-06
4.01213e-06
3.63448e-06
3.12332e-06
2.76166e-06
2.41267e-06
1.78878e-06
8.17857e-07
1.10009e-07
5.0019e-09
1.52286e-10
4.53726e-12
1.95365e-12
2.06521e-12
2.18201e-12
2.183e-12
2.67011e-12
3.8621e-11
2.91691e-09
5.69464e-07
2.56674e-06
1.62208e-08
9.08646e-09
9.42833e-09
1.28807e-08
1.77064e-08
2.41206e-08
3.22027e-08
4.25012e-08
5.4989e-08
7.02083e-08
8.8428e-08
1.09515e-07
1.33417e-07
1.59722e-07
1.89558e-07
2.24964e-07
2.66074e-07
3.10734e-07
3.6536e-07
4.33828e-07
5.17188e-07
6.14074e-07
7.18973e-07
8.21789e-07
9.13269e-07
9.92608e-07
1.06466e-06
1.13152e-06
1.18904e-06
1.23381e-06
1.27441e-06
1.32826e-06
1.41901e-06
1.57288e-06
1.82941e-06
2.258e-06
2.97039e-06
4.11087e-06
5.77811e-06
7.85696e-06
9.0016e-06
7.94478e-06
6.61945e-06
5.59743e-06
4.60759e-06
3.35147e-06
1.67812e-06
3.41559e-07
2.15838e-08
9.21918e-10
2.28459e-11
6.29745e-13
3.12191e-13
3.14653e-13
3.10868e-13
6.39521e-13
3.68541e-11
2.92865e-09
5.68979e-07
2.34014e-06
1.01665e-08
1.47772e-08
2.19047e-08
3.12494e-08
4.41824e-08
6.21094e-08
8.6881e-08
1.20991e-07
1.64402e-07
2.1915e-07
2.87088e-07
3.66315e-07
4.59436e-07
5.54698e-07
6.44803e-07
7.56286e-07
9.04785e-07
1.09738e-06
1.36781e-06
1.74749e-06
2.24357e-06
2.84634e-06
3.48002e-06
4.01836e-06
4.32855e-06
4.43886e-06
4.48988e-06
4.52841e-06
4.47815e-06
4.27677e-06
3.97875e-06
3.61458e-06
3.45043e-06
3.49632e-06
3.79238e-06
4.45042e-06
5.70472e-06
7.8163e-06
1.07838e-05
1.4216e-05
1.5571e-05
1.40003e-05
1.14122e-05
8.94067e-06
6.54117e-06
4.47338e-06
2.49274e-06
6.97117e-07
6.49679e-08
3.26032e-09
9.3081e-11
1.83974e-12
2.56476e-13
2.44631e-13
2.41037e-13
5.57173e-13
3.664e-11
2.92361e-09
5.6893e-07
3.28318e-06
5.40743e-08
9.85059e-08
1.56971e-07
2.15958e-07
3.0094e-07
4.26171e-07
6.16286e-07
9.03384e-07
1.29561e-06
1.82151e-06
2.52945e-06
3.37545e-06
4.51459e-06
5.51131e-06
5.90307e-06
6.6419e-06
7.92086e-06
9.50189e-06
1.17545e-05
1.50887e-05
1.9484e-05
2.48354e-05
3.05022e-05
3.56721e-05
3.90524e-05
4.03549e-05
4.0805e-05
4.13357e-05
4.1323e-05
3.86973e-05
3.3697e-05
2.76534e-05
2.14693e-05
1.61013e-05
1.26734e-05
1.15135e-05
1.21421e-05
1.39804e-05
1.64866e-05
1.8639e-05
1.84829e-05
1.62465e-05
1.31711e-05
9.92548e-06
7.04665e-06
4.92844e-06
3.06533e-06
1.09742e-06
1.4827e-07
9.4914e-09
3.36419e-10
7.37843e-12
3.24326e-13
2.41695e-13
2.37326e-13
5.52859e-13
3.63872e-11
2.91752e-09
5.68915e-07
9.00776e-06
3.79831e-07
7.27569e-07
1.37621e-06
1.97933e-06
2.79395e-06
3.8526e-06
5.45196e-06
7.65333e-06
1.02802e-05
1.35399e-05
1.85776e-05
2.37085e-05
2.87156e-05
3.18817e-05
3.29269e-05
3.48361e-05
3.83116e-05
4.16187e-05
4.59512e-05
5.24568e-05
6.08528e-05
7.02799e-05
7.92527e-05
8.59282e-05
8.94623e-05
9.04883e-05
8.98362e-05
8.74562e-05
8.32181e-05
7.75086e-05
7.04543e-05
6.26145e-05
5.44269e-05
4.5662e-05
3.65793e-05
2.89665e-05
2.36623e-05
2.04324e-05
1.88904e-05
1.82633e-05
1.6746e-05
1.38059e-05
1.05955e-05
7.95822e-06
6.12782e-06
4.99736e-06
3.6283e-06
1.49739e-06
2.55566e-07
2.08234e-08
9.31582e-10
2.48042e-11
6.31735e-13
2.44581e-13
2.36468e-13
5.51135e-13
3.61636e-11
2.91187e-09
5.68876e-07
1.41706e-05
1.78764e-06
3.9025e-06
8.28793e-06
1.20484e-05
1.55639e-05
1.86364e-05
2.21444e-05
2.64832e-05
3.05689e-05
3.36795e-05
3.67092e-05
3.99091e-05
4.27043e-05
4.51887e-05
4.69937e-05
4.75545e-05
4.74851e-05
4.77512e-05
4.87015e-05
5.01143e-05
5.16238e-05
5.27271e-05
5.30774e-05
5.27255e-05
5.18771e-05
5.03411e-05
4.80921e-05
4.52384e-05
4.19306e-05
3.84043e-05
3.47247e-05
3.09721e-05
2.71913e-05
2.34515e-05
1.99158e-05
1.66582e-05
1.39058e-05
1.19513e-05
1.08956e-05
1.05313e-05
1.00679e-05
8.95398e-06
7.58579e-06
6.43634e-06
5.88621e-06
5.78372e-06
4.72671e-06
2.12151e-06
4.26694e-07
4.24292e-08
2.29059e-09
7.16575e-11
1.58697e-12
2.56628e-13
2.36946e-13
5.50303e-13
3.61318e-11
2.91053e-09
5.69044e-07
1.32256e-05
1.04599e-06
4.73963e-06
1.22409e-05
1.49031e-05
1.7612e-05
2.00258e-05
2.20027e-05
2.37046e-05
2.53863e-05
2.71799e-05
2.85651e-05
2.92504e-05
2.96244e-05
2.96795e-05
2.95441e-05
2.90767e-05
2.79477e-05
2.65904e-05
2.55066e-05
2.47687e-05
2.45636e-05
2.50283e-05
2.60284e-05
2.72242e-05
2.82942e-05
2.9032e-05
2.94344e-05
2.94278e-05
2.88305e-05
2.75392e-05
2.55047e-05
2.2751e-05
1.94627e-05
1.59896e-05
1.27798e-05
1.00402e-05
7.87121e-06
6.36412e-06
5.46616e-06
5.03038e-06
4.85847e-06
4.79861e-06
4.9133e-06
5.34093e-06
6.01288e-06
6.44606e-06
5.09419e-06
2.09467e-06
4.07047e-07
4.07573e-08
2.24005e-09
7.10056e-11
1.57848e-12
2.56131e-13
2.37182e-13
5.50781e-13
3.62668e-11
2.91401e-09
5.69076e-07
1.2677e-05
5.77739e-07
5.73447e-06
1.79683e-05
2.4939e-05
3.10784e-05
3.54881e-05
3.88885e-05
4.18796e-05
4.4185e-05
4.55343e-05
4.61709e-05
4.62797e-05
4.60594e-05
4.53939e-05
4.37301e-05
4.16e-05
3.94771e-05
3.76074e-05
3.62463e-05
3.55283e-05
3.57134e-05
3.67618e-05
3.81428e-05
3.9399e-05
4.04501e-05
4.11815e-05
4.14236e-05
4.09266e-05
3.94826e-05
3.69468e-05
3.31013e-05
2.822e-05
2.29057e-05
1.76989e-05
1.31697e-05
9.58588e-06
7.01255e-06
5.39846e-06
4.53258e-06
4.18641e-06
4.15617e-06
4.29499e-06
4.66051e-06
5.25147e-06
6.08825e-06
6.50011e-06
4.71528e-06
1.7613e-06
3.40868e-07
3.47743e-08
1.94327e-09
6.21871e-11
1.41259e-12
2.53763e-13
2.36763e-13
5.50305e-13
3.62442e-11
2.91317e-09
5.68862e-07
1.26446e-05
1.99252e-06
8.11923e-06
2.14115e-05
2.84759e-05
3.32633e-05
3.55487e-05
3.73851e-05
3.96425e-05
4.16701e-05
4.33917e-05
4.53139e-05
4.71742e-05
4.84678e-05
4.92121e-05
4.91596e-05
4.81026e-05
4.62658e-05
4.42677e-05
4.27536e-05
4.217e-05
4.24811e-05
4.35117e-05
4.50965e-05
4.69714e-05
4.89043e-05
5.04153e-05
5.10686e-05
5.09499e-05
5.02144e-05
4.80665e-05
4.40729e-05
3.82809e-05
3.10689e-05
2.34106e-05
1.66434e-05
1.1511e-05
8.02242e-06
6.01591e-06
4.9617e-06
4.49636e-06
4.39821e-06
4.47031e-06
4.75065e-06
5.22503e-06
5.91693e-06
6.33044e-06
4.81624e-06
1.87796e-06
3.65211e-07
3.71325e-08
2.06381e-09
6.56525e-11
1.47177e-12
2.54248e-13
2.36491e-13
5.50015e-13
3.62085e-11
2.91242e-09
5.68602e-07
1.32053e-05
1.27966e-06
4.13605e-06
9.59238e-06
1.15774e-05
1.33611e-05
1.49655e-05
1.70326e-05
1.92465e-05
2.11953e-05
2.29168e-05
2.51365e-05
2.81349e-05
3.15362e-05
3.47947e-05
3.69403e-05
3.74241e-05
3.68404e-05
3.59962e-05
3.53689e-05
3.54542e-05
3.65211e-05
3.84434e-05
4.10605e-05
4.40022e-05
4.69076e-05
4.94534e-05
5.15191e-05
5.31075e-05
5.41234e-05
5.42365e-05
5.35091e-05
5.1228e-05
4.66699e-05
3.93032e-05
3.01033e-05
2.13626e-05
1.46909e-05
1.02841e-05
7.82801e-06
6.78698e-06
6.47622e-06
6.22591e-06
6.01639e-06
5.97526e-06
6.08218e-06
6.10936e-06
4.91106e-06
2.22142e-06
4.50078e-07
4.5617e-08
2.49689e-09
7.82636e-11
1.69631e-12
2.56908e-13
2.36551e-13
5.50224e-13
3.61918e-11
2.91224e-09
5.68582e-07
1.54911e-05
2.32732e-06
6.7355e-06
8.77964e-06
9.90301e-06
1.23497e-05
1.47013e-05
1.71936e-05
2.00353e-05
2.35612e-05
2.78799e-05
3.28431e-05
3.86865e-05
4.53814e-05
5.15416e-05
5.57719e-05
5.68982e-05
5.56875e-05
5.47318e-05
5.47189e-05
5.59311e-05
5.89548e-05
6.38312e-05
6.99045e-05
7.64144e-05
8.25937e-05
8.76756e-05
9.13769e-05
9.28243e-05
8.85014e-05
7.61293e-05
5.94301e-05
4.45331e-05
3.33053e-05
2.45073e-05
1.73666e-05
1.19716e-05
8.40658e-06
6.46869e-06
5.83367e-06
6.11867e-06
6.76505e-06
7.05963e-06
6.85502e-06
6.49018e-06
6.07541e-06
5.59374e-06
4.43441e-06
2.15284e-06
4.45307e-07
4.348e-08
2.26217e-09
6.78076e-11
1.45338e-12
2.53992e-13
2.37512e-13
5.51754e-13
3.63258e-11
2.91458e-09
5.69103e-07
1.76281e-05
2.42861e-06
3.11702e-06
3.84159e-06
5.95541e-06
9.01586e-06
1.42464e-05
2.03429e-05
3.01098e-05
4.07688e-05
5.0184e-05
5.81599e-05
6.45037e-05
6.81628e-05
6.82096e-05
6.45151e-05
5.85145e-05
5.35823e-05
5.28951e-05
5.55305e-05
6.08382e-05
6.86997e-05
7.74973e-05
8.4744e-05
8.96772e-05
9.13449e-05
8.8522e-05
8.10234e-05
6.91976e-05
5.42062e-05
3.91551e-05
2.71135e-05
1.895e-05
1.37238e-05
1.02367e-05
7.86423e-06
6.36832e-06
5.63167e-06
5.65217e-06
6.60997e-06
8.79831e-06
1.14642e-05
1.16545e-05
1.01145e-05
8.44852e-06
6.91525e-06
5.52484e-06
3.82209e-06
1.56618e-06
2.50406e-07
1.88744e-08
7.86184e-10
1.96023e-11
5.11403e-13
2.42753e-13
2.37622e-13
5.52732e-13
3.64907e-11
2.92008e-09
5.69501e-07
9.64009e-06
1.21655e-06
2.30616e-06
4.43519e-06
7.6229e-06
1.3171e-05
2.02783e-05
2.96255e-05
4.13169e-05
5.49076e-05
6.76503e-05
7.90035e-05
8.73558e-05
9.09902e-05
9.10815e-05
8.83296e-05
8.32159e-05
7.81886e-05
7.76693e-05
8.15501e-05
8.9042e-05
9.96833e-05
0.000109536
0.000116202
0.000119013
0.000117907
0.000112952
0.000104058
9.04953e-05
7.37255e-05
5.58178e-05
3.73281e-05
2.11918e-05
1.22279e-05
9.52851e-06
8.59901e-06
8.48683e-06
8.98966e-06
1.01012e-05
1.16107e-05
1.27602e-05
1.32084e-05
1.25708e-05
1.12571e-05
9.62918e-06
7.81508e-06
5.9708e-06
3.81584e-06
1.42058e-06
2.08496e-07