/*--------------------------------*- C++ -*----------------------------------*\
| =========                 |                                                 |
| \\      /  F ield         | OpenFOAM: The Open Source CFD Toolbox           |
|  \\    /   O peration     | Version:  2.1.1                                 |
|   \\  /    A nd           | Web:      www.OpenFOAM.org                      |
|    \\/     M anipulation  |                                                 |
\*---------------------------------------------------------------------------*/
FoamFile
{
    version     2.0;
    format      ascii;
    class       volScalarField;
    location    "0.00105";
    object      p;
}
// * * * * * * * * * * * * * * * * * * * * * * * * * * * * * * * * * * * * * //

dimensions      [1 -1 -2 0 0 0 0];

internalField   nonuniform List<scalar> 
36520
(
10.4221
8.75779
9.10276
8.24017
6.48723
4.35356
1.76689
-0.886886
-3.24337
-4.80317
-5.21995
-4.42705
-2.75672
-0.646116
1.58949
3.43824
4.53952
4.41188
2.67993
-0.836582
-5.9682
-12.2651
-18.9951
-25.3317
-30.6373
-34.6404
-37.4283
-39.2454
-40.342
-40.9626
-41.2907
-41.5398
-42.0868
-43.4413
-46.2763
-51.4497
-60.0097
-73.127
-92.1364
-118.174
-152.085
-192.101
-228.397
-248.232
-241.404
-195.777
-89.5885
52.0734
162.007
224.987
258.437
275.761
284.273
287.692
289.243
289.235
289.267
288.587
288.584
288.232
11.3175
9.26668
9.37033
8.40822
6.62728
4.45771
1.80403
-0.943987
-3.40484
-5.04915
-5.47681
-4.6148
-2.83759
-0.602713
1.74653
3.69985
4.89402
4.82567
3.11403
-0.439673
-5.66616
-12.105
-19.0044
-25.4853
-30.8609
-34.8633
-37.6103
-39.3875
-40.441
-41.0139
-41.2701
-41.3797
-41.716
-42.801
-45.3437
-50.2129
-58.4751
-71.3701
-90.3743
-116.811
-151.722
-194.61
-234.191
-256.583
-252.18
-210.379
-103.427
47.0817
165.901
228.257
260.969
277.469
285.319
288.397
289.663
289.5
289.439
288.697
288.667
288.299
12.0561
10.0021
9.81119
8.69753
6.88006
4.61393
1.857
-1.09094
-3.75788
-5.57079
-6.03233
-5.05864
-3.06144
-0.544428
2.03646
4.20859
5.56854
5.62184
3.95618
0.328849
-5.08984
-11.819
-19.0793
-25.8795
-31.4209
-35.4138
-38.0661
-39.7451
-40.713
-41.1936
-41.3227
-41.1903
-41.1282
-41.6524
-43.555
-47.7408
-55.4026
-67.9607
-87.1279
-114.419
-151.315
-199.269
-245.987
-273.464
-274.875
-240.386
-135.43
34.341
173.909
234.711
266.019
280.843
287.373
289.746
290.485
290.017
289.774
288.915
288.825
288.43
11.742
10.3981
10.2321
9.14523
7.2822
4.88601
1.93899
-1.3153
-4.30787
-6.37528
-6.89188
-5.75557
-3.43578
-0.469152
2.47288
5.00938
6.62596
6.8644
5.26387
1.51225
-4.20945
-11.3891
-19.2133
-26.5206
-32.3352
-36.3143
-38.801
-40.3123
-41.1402
-41.4897
-41.4256
-40.966
-40.3319
-40.0627
-41.1305
-44.392
-51.3196
-63.5295
-83.1197
-111.75
-151.523
-207.034
-262.715
-296.331
-303.969
-281.573
-181.79
11.3027
187.411
244.274
273.55
285.725
290.55
291.741
291.721
290.805
290.282
289.262
289.08
288.645
10.9922
10.4585
10.6443
9.75638
7.8717
5.26106
2.06993
-1.62657
-5.08232
-7.52804
-8.15056
-6.81602
-4.12866
-0.575981
2.95025
6.00212
7.98042
8.4631
6.94354
2.99766
-3.14928
-10.9115
-19.5192
-27.587
-33.7926
-37.6894
-39.8996
-41.197
-41.8304
-42.0588
-41.7801
-40.9113
-39.5294
-38.2399
-38.3041
-40.234
-46.103
-57.6897
-77.5364
-107.678
-150.165
-213.409
-279.337
-317.637
-327.593
-326.662
-241.176
-21.4517
208.873
256.748
283.399
291.943
294.547
294.255
293.281
291.797
290.917
289.695
289.398
288.911
7.78614
9.73092
10.7348
10.4884
8.55998
5.78563
2.26473
-2.0402
-6.12271
-9.06783
-9.84112
-8.16211
-4.84976
-0.545504
3.71626
7.37169
9.86321
10.6632
9.2894
5.11515
-1.56404
-10.1092
-19.8214
-29.0102
-35.8224
-39.7392
-41.5333
-42.5884
-43.04
-43.1246
-42.6545
-41.3773
-39.2489
-36.7071
-34.8111
-35.6736
-40.3858
-50.9601
-70.9312
-102.212
-146.476
-216.085
-295.083
-336.192
-349.215
-380.616
-325.943
-57.9249
243.262
272.829
295.015
299.36
299.247
297.211
295.123
292.975
291.673
290.216
289.784
289.235
6.30039
8.71479
10.7279
11.5579
9.54303
6.67991
2.73484
-2.38862
-7.44321
-11.1917
-12.1489
-9.96438
-6.01009
-1.05699
3.84048
8.34132
11.7676
13.2723
12.1265
7.44
-0.147744
-9.65731
-20.5518
-30.8572
-38.1434
-41.9046
-42.9643
-43.5163
-43.8485
-43.9483
-43.583
-42.1949
-39.6672
-36.5296
-33.8452
-32.982
-35.4951
-43.5823
-63.3429
-94.8825
-139.74
-216.567
-315.671
-346.708
-388.974
-479.676
-477.547
-48.8393
288.506
294.211
308.387
307.816
304.558
300.564
297.228
294.33
292.548
290.823
290.237
289.619
-5.69265
4.79858
9.72744
12.5987
10.791
7.94242
3.54034
-2.77817
-9.35837
-14.2984
-15.5572
-12.8125
-7.93774
-1.93229
3.71725
9.6834
14.8474
17.5826
16.1848
10.6962
2.3615
-7.85626
-19.8123
-31.2556
-39.3785
-42.8999
-43.9677
-44.1487
-44.3294
-44.3866
-44.0265
-42.6801
-39.8418
-36.2227
-32.8328
-31.13
-32.847
-40.6287
-59.7657
-90.3966
-130.296
-194.634
-310.219
-439.478
-544.489
-591.176
-472.749
50.5226
330.195
320.083
323.982
317.674
310.792
304.554
299.781
296.005
293.658
291.612
290.843
290.138
11.3601
1.15642
6.85733
13.7131
12.4851
9.76096
4.80057
-3.09117
-12.0335
-19.2549
-19.8928
-14.3188
-7.66188
-1.83033
3.59546
10.117
16.737
20.188
19.3994
12.9612
3.40167
-7.90207
-20.7992
-33.6027
-42.4174
-45.2898
-44.6437
-43.8471
-43.9978
-44.2634
-44.5569
-42.9926
-40.0594
-37.7606
-33.9103
-30.6914
-30.0402
-34.4838
-48.5185
-81.9462
-128.409
-184.228
-235.675
-292.676
-605.331
-525.706
-311.664
118.999
354.161
337.783
335.279
324.495
314.868
306.998
301.231
296.868
294.158
291.92
291.042
290.291
21.3486
0.571448
7.38073
15.0615
14.4657
12.0957
6.69312
-3.65267
-15.1652
-21.0914
-20.5425
-15.8728
-10.1374
-5.10366
1.35259
10.8914
20.4144
25.5044
24.2526
14.9445
4.27527
-6.97874
-19.8831
-32.8946
-41.7332
-44.4725
-43.6251
-42.6265
-42.9254
-43.3416
-43.2332
-42.1447
-39.7747
-35.7991
-31.3529
-27.3661
-27.0703
-33.2474
-53.5672
-90.057
-131.786
-189.242
-232.755
-95.4218
-611.285
-592.3
-231.948
153.758
365.3
344.707
338.679
326.189
315.569
307.174
301.137
296.654
293.892
291.648
290.769
290.023
-35.3994
-14.3999
10.6107
22.1564
21.6739
18.7824
12.1218
-1.42603
-14.759
-21.2618
-21.2014
-16.9938
-11.434
-7.11575
-2.52752
7.00242
20.6361
32.8218
30.0114
18.1327
5.65658
-7.43636
-20.5264
-32.7862
-41.4051
-43.6585
-42.2892
-40.8182
-40.3918
-40.7402
-41.2997
-41.1017
-40.1176
-38.1652
-30.4583
-20.2168
-23.4699
-29.2931
-49.2587
-90.04
-134.181
-178.343
-225.532
-137.679
-596.745
-650.17
-225.325
200.803
373.091
351.596
340.974
327.283
315.995
307.279
301.082
296.527
293.736
291.487
290.608
289.866
-84.2943
-12.59
26.5337
34.4064
25.9451
21.3479
14.6915
1.24151
-11.5105
-19.4845
-21.8347
-18.9568
-13.1686
-8.18803
-2.92573
5.37622
15.2188
23.2354
23.9251
16.8394
6.46325
-5.64894
-18.5799
-29.4412
-37.2489
-40.4799
-40.661
-39.7735
-39.4762
-40.2783
-41.3384
-40.6374
-38.4542
-35.399
-29.6405
-24.4868
-26.3588
-32.4257
-48.5167
-88.9726
-137.451
-177.104
-230.474
-219.491
-608.912
-668.26
-359.675
238.249
373.746
354.714
340.153
326.078
314.965
306.473
300.459
296.042
293.355
291.177
290.337
289.618
-124.519
-26.3445
41.3705
46.9841
31.2569
25.9362
16.9957
3.233
-9.37387
-17.5387
-21.254
-18.9949
-13.7208
-8.53914
-3.45352
4.26019
12.8737
21.6105
23.42
16.9457
7.90158
-3.37935
-16.2072
-26.0033
-34.1607
-39.1798
-40.6677
-40.7739
-40.2333
-40.6465
-40.1486
-37.6067
-34.5689
-32.5008
-27.7794
-25.4004
-26.7111
-34.7504
-52.5215
-93.26
-143.099
-179.928
-227.099
-243.244
-612.434
-737.456
-333.122
242.859
372.383
355.669
340.341
326.134
315.004
306.505
300.486
296.067
293.378
291.198
290.357
289.638
-103.956
-56.2261
32.1949
61.6926
45.9351
29.3883
16.1314
1.49015
-11.5507
-20.1203
-24.1307
-22.0454
-16.2897
-11.3022
-5.03511
5.49788
19.2228
30.3422
27.56
16.8604
6.09047
-4.96157
-17.6382
-29.4835
-38.4584
-42.7005
-42.4824
-40.5487
-40.5091
-42.2426
-42.8921
-42.3894
-37.1882
-29.9392
-26.7443
-25.0161
-27.8136
-36.38
-55.1098
-94.7655
-144.514
-185.569
-228.353
-285.584
-680.04
-751.142
-96.3554
221.32
371.526
353.904
340.966
327.166
315.945
307.267
301.091
296.552
293.768
291.525
290.645
289.904
-206.716
-98.5369
129.912
129.615
47.4534
26.7412
14.2523
2.54569
-8.35634
-16.9477
-21.7418
-19.7446
-13.6029
-7.87732
-2.72038
5.19256
14.368
20.6919
19.0949
12.8765
5.07932
-4.43817
-14.5457
-25.9414
-36.9352
-42.4975
-42.3348
-40.8815
-40.8597
-41.9026
-41.6231
-39.0775
-36.0276
-31.9378
-30.0723
-29.8192
-33.0288
-43.596
-64.8133
-101.391
-151.13
-198.634
-258.032
-320.373
-642.662
-755.464
-25.6722
209.936
361.16
348.34
337.998
325.645
315.234
306.976
301.025
296.602
293.874
291.651
290.78
290.04
-66.4407
-27.4183
14.9806
39.6064
30.6824
21.1058
11.5027
1.54747
-8.57995
-15.5812
-19.6231
-20.4222
-16.1077
-8.70781
-1.47804
6.45368
13.6789
18.0697
16.5753
10.6785
2.98174
-5.79355
-15.5964
-25.4114
-34.3538
-40.3056
-41.1284
-40.1851
-40.7885
-42.2607
-42.123
-39.171
-34.6523
-31.1205
-30.5805
-32.4659
-38.4094
-51.2531
-73.7999
-111.199
-156.709
-194.03
-232.28
-277.158
-626.611
-664.551
-73.8246
189.64
356.013
341.35
334.176
323.668
314.327
306.66
301.033
296.758
294.108
291.908
291.045
290.304
-62.1921
-20.9755
16.2958
25.1572
18.6365
13.881
7.44444
-0.320621
-8.09108
-13.8308
-16.918
-16.7324
-13.3501
-8.40784
-1.66598
6.57903
14.1114
18.1996
17.0438
11.0141
2.96013
-6.06177
-16.1313
-26.4521
-35.3637
-40.4531
-41.5979
-41.3077
-41.6826
-42.3749
-41.0934
-37.112
-31.9835
-27.7087
-28.2992
-31.6378
-40.6733
-57.4192
-85.1039
-125.168
-168.951
-213.563
-274.87
-298.74
-414.831
-578.382
-388.669
78.0476
332.472
322.733
323.661
317.289
310.532
304.432
299.753
296.033
293.717
291.691
290.927
290.227
-28.9473
-13.3996
4.96181
13.7235
12.3309
8.90578
4.27808
-1.55365
-7.37719
-11.7255
-13.9985
-13.7576
-11.0893
-6.84105
-1.3061
5.12405
10.6155
13.9907
13.2556
8.83665
1.58626
-6.70826
-15.8575
-25.2527
-33.4501
-38.5096
-39.959
-40.1098
-40.6868
-41.5136
-40.8142
-37.6048
-33.7419
-32.1216
-32.4014
-36.9804
-47.1655
-65.9589
-96.1061
-136.069
-180.131
-227.181
-267.216
-284.938
-310.076
-385.803
-392.536
-25.1091
290.316
295.099
307.635
307.306
304.223
300.419
297.2
294.372
292.627
290.927
290.346
289.734
-14.1197
-7.54684
2.10987
7.53264
7.61269
5.45134
2.08625
-2.34432
-6.7604
-10.0714
-11.7428
-11.4256
-9.21734
-5.39944
-0.305376
5.25433
9.68199
11.7117
10.7854
6.77303
0.147593
-7.78732
-16.4942
-25.159
-32.4868
-37.2428
-39.3107
-40.0606
-40.7489
-41.3212
-40.7666
-38.4816
-35.9355
-35.4141
-37.4593
-43.8247
-56.2509
-76.5969
-105.992
-143.379
-186.115
-228.184
-259.889
-276.014
-286.719
-307.869
-259.776
-31.1279
245.83
272.267
293.654
298.45
298.597
296.841
294.929
292.892
291.655
290.243
289.825
289.291
-4.70721
-3.71961
1.27704
4.38269
4.70408
3.22562
0.654499
-2.79793
-6.26883
-8.88341
-10.1683
-9.83744
-7.99426
-4.82594
-0.670257
3.78963
7.83887
9.8305
8.8865
5.12808
-0.992842
-8.45455
-16.6271
-24.682
-31.4719
-36.0708
-38.4794
-39.6921
-40.6337
-41.2727
-41.0002
-39.593
-38.2207
-38.6741
-41.958
-49.4907
-62.6578
-82.9647
-110.753
-144.701
-182.784
-219.621
-246.628
-260.879
-268.96
-260.648
-182.959
1.59616
209.507
255.742
281.874
290.822
293.744
293.744
292.967
291.615
290.816
289.655
289.379
288.911
-0.105762
-1.5206
0.776186
2.3368
2.57798
1.57552
-0.412434
-3.1412
-5.91992
-8.03035
-9.05415
-8.70205
-7.04241
-4.11445
-0.239069
3.75921
6.95908
8.40641
7.32043
3.72647
-2.02051
-9.09398
-16.8144
-24.3477
-30.7163
-35.2207
-37.8839
-39.4047
-40.5036
-41.2539
-41.3538
-40.8725
-40.7457
-42.3839
-46.8513
-55.2691
-68.7994
-88.4619
-114.131
-144.884
-178.447
-209.217
-231.535
-243.398
-245.547
-220.49
-130.917
32.3669
189.465
244.025
272.72
284.926
289.975
291.389
291.519
290.703
290.24
289.268
289.099
288.68
2.89424
-0.0497341
0.745956
1.44698
1.42467
0.529644
-1.16966
-3.43369
-5.73347
-7.48754
-8.30781
-7.92372
-6.41392
-3.93845
-0.64634
2.88304
5.78372
7.10336
6.03495
2.63234
-2.79078
-9.5476
-16.9255
-24.0848
-30.1664
-34.6168
-37.4601
-39.2023
-40.4173
-41.2594
-41.6772
-41.8897
-42.6959
-45.1772
-50.3383
-59.2117
-72.7583
-91.53
-115.752
-143.494
-172.722
-198.66
-216.863
-225.136
-216.96
-181.983
-89.8848
54.9892
177.826
235.743
266.226
280.756
287.303
289.817
290.617
290.18
289.946
289.1
288.999
288.61
3.34733
0.444009
0.803925
1.03961
0.743616
-0.111934
-1.67072
-3.6408
-5.63176
-7.14062
-7.81233
-7.3796
-5.91898
-3.53054
-0.47788
2.67491
5.24495
6.20536
5.10641
1.82271
-3.37295
-9.88676
-17.0048
-23.8981
-29.7902
-34.213
-37.1866
-39.0986
-40.4448
-41.4089
-42.0802
-42.778
-44.2159
-47.3054
-52.9615
-62.1015
-75.5179
-93.5972
-116.267
-142.223
-168.866
-192.001
-207.818
-213.197
-201.098
-156.652
-62.2906
65.7898
170.915
229.936
261.695
277.814
285.648
288.758
290.027
289.847
289.756
289.003
288.947
288.578
2.79741
0.452936
0.806869
0.882417
0.455103
-0.405572
-1.90771
-3.75638
-5.60569
-6.99875
-7.59582
-7.15233
-5.74089
-3.51089
-0.574828
2.46228
4.87705
5.76583
4.65325
1.42428
-3.65938
-10.0435
-17.0225
-23.7699
-29.5574
-33.9593
-36.9893
-38.9752
-40.3792
-41.4103
-42.2221
-43.1514
-44.8548
-48.2006
-54.0207
-63.2003
-76.4718
-94.2631
-116.103
-141.203
-166.746
-188.731
-203.539
-207.247
-191.62
-143.861
-49.3818
70.3983
168.051
227.166
259.584
276.467
284.9
288.298
289.801
289.742
289.718
289.007
288.966
288.607
4.03465
-0.704369
-2.57888
-4.32427
-5.76059
-6.71148
-7.57719
-8.38296
-9.10441
-9.45695
-9.25823
-8.43907
-7.13574
-5.44521
-3.44719
-1.385
0.484064
1.50814
0.919285
-1.76971
-6.5152
-12.7278
-19.567
-26.0802
-31.4529
-35.3502
-37.9218
-39.545
-40.5479
-41.1609
-41.6177
-42.2303
-43.5493
-46.3888
-51.762
-60.7581
-74.4233
-93.1533
-116.401
-142.352
-167.795
-189.387
-204.3
-209.242
-196.552
-154.478
-65.9266
56.6798
162.968
225.231
259.592
277.145
285.73
289.08
290.507
290.362
290.287
289.511
289.439
289.062
5.02187
-0.50346
-2.78987
-4.57522
-5.94436
-6.83056
-7.6491
-8.45857
-9.21929
-9.61401
-9.42848
-8.59947
-7.27832
-5.54744
-3.53117
-1.4349
0.570278
1.79667
1.33485
-1.34605
-6.19567
-12.6015
-19.6442
-26.3134
-31.7613
-35.6325
-38.1223
-39.6659
-40.6029
-41.1264
-41.4624
-41.9149
-43.0545
-45.6525
-50.8316
-59.8103
-73.5992
-92.7953
-116.94
-143.946
-170.39
-192.724
-208.235
-214.563
-205.084
-166.949
-79.9443
50.1368
166.276
228.413
262.251
278.898
286.783
289.762
290.893
290.586
290.424
289.587
289.487
289.097
6.10236
-0.447744
-3.3261
-5.10748
-6.28705
-7.06433
-7.75607
-8.57656
-9.42232
-9.90479
-9.74647
-8.89579
-7.52523
-5.72314
-3.63048
-1.35932
0.925339
2.44813
2.24081
-0.438205
-5.52393
-12.3142
-19.7486
-26.7205
-32.3044
-36.1182
-38.4378
-39.8222
-40.6388
-40.9904
-41.0559
-41.1044
-41.6975
-43.7227
-48.3572
-57.0263
-71.171
-91.5383
-117.512
-146.754
-175.231
-198.955
-215.847
-225.243
-222.447
-192.671
-110.357
35.0294
173.935
234.855
267.624
282.356
288.834
291.062
291.649
291.036
290.689
289.752
289.598
289.182
5.82693
-1.00666
-4.11089
-5.77223
-6.69612
-7.32047
-7.86702
-8.7177
-9.72146
-10.3429
-10.217
-9.3313
-7.93103
-6.10767
-3.93092
-1.47966
1.08589
3.24815
3.51349
0.850207
-4.58088
-11.923
-19.9227
-27.3303
-33.0999
-36.8029
-38.8574
-40.0035
-40.6467
-40.7757
-40.4443
-39.889
-39.7084
-40.8721
-44.6857
-52.8945
-67.3863
-89.2517
-117.907
-150.424
-182.438
-208.146
-226.606
-240.108
-246.263
-230.054
-155.976
7.32555
187.184
244.459
275.418
287.129
291.805
292.829
292.671
291.629
291.026
289.954
289.722
289.272
5.47808
-2.09436
-5.17123
-6.58968
-7.17355
-7.62569
-7.963
-8.87752
-10.1066
-10.8671
-10.7587
-9.83836
-8.40484
-6.5158
-4.19467
-1.46576
1.67661
4.49715
5.24059
2.54277
-3.36631
-11.4292
-20.1459
-28.07
-34.0162
-37.5279
-39.2215
-40.1153
-40.6187
-40.5214
-39.7408
-38.4164
-37.2018
-37.1728
-39.8231
-47.2678
-61.9422
-85.5946
-117.323
-154.279
-188.959
-216.868
-236.398
-255.497
-274.054
-280.685
-216.573
-30.7862
206.889
257.386
285.027
292.849
295.28
294.89
293.857
292.328
291.421
290.191
289.871
289.383
5.0272
-3.40688
-6.29637
-7.08837
-7.42664
-7.74522
-7.9743
-9.07573
-10.5308
-11.4352
-11.3688
-10.3985
-8.92383
-7.03243
-4.57493
-1.53733
2.01623
5.61569
7.19769
4.50819
-2.00079
-10.9227
-20.5121
-28.9809
-35.0266
-38.2095
-39.4907
-40.1556
-40.5703
-40.2891
-39.0004
-36.8244
-34.4217
-32.8841
-33.6899
-39.5381
-53.4445
-77.9701
-112.812
-154.601
-193.12
-223.906
-244.896
-268.09
-293.692
-315.021
-286.32
-67.2547
231.002
273.951
295.697
299.201
299.062
297.147
295.173
293.113
291.873
290.466
290.047
289.515
-0.65601
-5.72855
-7.22588
-7.2933
-7.56636
-7.76874
-7.9815
-9.4343
-11.2454
-12.208
-12.1044
-11.0674
-9.53241
-7.58982
-4.92233
-1.58435
2.66545
7.3216
9.69094
6.79595
-0.510066
-10.543
-21.2664
-30.4472
-36.6471
-39.5654
-40.5632
-41.2179
-41.7177
-41.2576
-39.448
-36.4517
-32.7341
-29.4411
-28.177
-32.2803
-44.8972
-68.9339
-105.118
-150.578
-192.556
-225.663
-251.52
-280.317
-312.151
-350.955
-382.08
-72.0532
263.399
295.545
307.877
306.625
303.584
299.938
296.886
294.193
292.551
290.919
290.376
289.785
-4.25347
-7.51206
-8.26715
-6.96179
-7.26342
-7.55877
-8.06624
-10.285
-12.4857
-13.3243
-13.0521
-11.8225
-10.1627
-8.06087
-4.79038
-0.215204
4.81626
9.94648
12.611
9.41031
1.05972
-10.2395
-22.3395
-32.3885
-38.7385
-41.1954
-41.486
-41.9606
-42.3846
-42.2536
-40.2189
-36.5455
-32.2339
-27.5798
-24.4192
-26.6465
-37.4405
-60.048
-95.7261
-142.745
-184.492
-220.124
-249.893
-282.475
-326.83
-434.262
-557.179
-20.6367
310.697
319.02
321.522
315.189
308.951
303.353
299.065
295.617
293.491
291.579
290.881
290.215
-22.3893
-12.6664
-9.58526
-6.08757
-6.20343
-6.73694
-7.40079
-10.4355
-13.7417
-14.6363
-13.7611
-12.443
-10.8288
-8.91267
-5.35768
-0.187192
5.66853
11.1598
16.3993
13.0355
2.90974
-9.87735
-23.4109
-34.2362
-40.6631
-42.9997
-43.6217
-44.5687
-45.7284
-45.4887
-43.2438
-39.1298
-33.8559
-27.6054
-21.7112
-21.6262
-30.6361
-50.9873
-82.9292
-124.899
-173.426
-212.905
-264.041
-308.494
-418.799
-523.268
-490.742
147.067
357.867
342.112
335.465
324.439
314.927
307.229
301.583
297.285
294.609
292.377
291.501
290.748
-9.61697
-8.28384
-8.39225
-4.64107
-3.87884
-4.91177
-6.56473
-12.6971
-17.5736
-17.0518
-15.2377
-13.5578
-10.8478
-8.50258
-4.87892
1.62138
9.95669
17.0628
21.102
13.9754
1.90132
-10.7664
-24.7404
-36.2513
-42.6098
-43.5339
-43.061
-43.3659
-43.9902
-43.7541
-41.791
-37.9966
-33.1142
-27.5894
-23.5814
-23.8983
-30.9999
-49.8022
-80.9886
-122.948
-170.572
-209.586
-260.273
-307.807
-717.436
-586.747
-158.811
225.945
377.801
355.385
343.15
329.44
318.063
309.145
302.728
297.963
294.997
292.609
291.647
290.855
12.2774
-17.6958
3.88535
8.9276
1.46718
-3.73764
-8.72423
-15.7193
-19.0139
-17.3574
-13.3316
-10.0383
-8.93866
-8.13286
-5.09315
0.934458
9.16451
16.6459
19.5151
12.8741
2.26296
-10.7498
-25.6692
-39.0938
-46.124
-46.5498
-44.977
-43.9893
-43.3355
-41.8193
-37.8446
-32.0732
-25.3407
-18.5456
-14.8487
-15.1773
-20.2806
-38.5833
-69.2446
-112.229
-163.09
-211.294
-258.811
-144.244
-830.471
-706.986
40.186
234.956
368.464
355.952
343.375
329.539
317.987
308.921
302.427
297.64
294.679
292.312
291.362
290.582
15.3147
-37.201
-10.7971
13.3769
5.52982
-1.7679
-5.47955
-10.0795
-14.0491
-14.4528
-12.3342
-9.7538
-8.26549
-7.24658
-4.79132
1.11757
9.20955
16.1622
17.4732
11.62
1.38733
-12.4851
-27.0907
-39.2174
-45.4342
-45.9044
-43.5016
-42.1525
-41.4385
-39.7807
-35.5158
-28.8534
-21.9159
-15.618
-12.0074
-13.4173
-19.1861
-34.5897
-63.6747
-105.712
-155.192
-199.39
-251.644
-177.729
-846.431
-681.68
119.076
254.475
359.002
355.385
343.576
329.731
318.067
308.897
302.342
297.528
294.558
292.192
291.244
290.467
-36.5612
-45.9596
25.1891
37.0803
19.7474
6.22595
-2.57056
-9.47884
-14.3808
-15.9469
-14.9179
-12.4765
-10.486
-8.11283
-4.70938
1.82588
10.617
17.5985
18.1972
12.1292
2.05374
-11.3925
-26.7806
-39.8065
-46.8201
-46.9626
-44.2707
-42.5385
-42.3822
-39.5544
-33.7126
-26.498
-19.1481
-14.3614
-12.0757
-13.9131
-19.8278
-34.0731
-62.0625
-104.808
-153.078
-208.41
-254.77
-188.962
-809.901
-710.242
81.8309
248.414
359.746
354.403
343.215
329.446
317.856
308.744
302.231
297.445
294.493
292.139
291.198
290.424
-44.3064
-18.3035
1.77865
13.7685
7.61503
2.02319
-1.42318
-5.90754
-11.6627
-15.912
-16.2442
-14.2586
-12.3483
-9.50296
-5.18693
1.68815
11.523
19.355
19.7723
11.3416
1.08909
-12.0505
-27.1558
-39.3456
-45.9119
-46.739
-44.8381
-43.455
-42.6963
-39.6583
-34.665
-29.6392
-25.0268
-19.0034
-14.6401
-14.8269
-22.0509
-36.7767
-62.5327
-100.591
-147.074
-203.718
-257.505
-354.371
-828.66
-510.981
-61.6943
214.768
360.791
351.746
341.465
328.152
316.988
308.205
301.908
297.254
294.382
292.072
291.154
290.39
-51.9543
-24.8243
-2.56194
12.1528
10.2584
5.39046
0.230665
-6.58835
-13.2206
-16.8463
-16.4293
-14.983
-13.9217
-11.4333
-8.59723
-0.146695
12.2041
21.3305
21.1839
13.7768
2.45491
-11.8725
-27.7047
-41.914
-49.6228
-49.3913
-46.7719
-45.8696
-45.3549
-38.6212
-28.0514
-22.3213
-18.9892
-17.1749
-16.7822
-17.9084
-23.2918
-37.2122
-62.4579
-100.632
-137.291
-213.566
-346.106
-311.686
-625.84
-446.842
-229.748
186.917
350.74
345.787
337.023
325.101
315.015
306.981
301.168
296.807
294.118
291.906
291.045
290.306
-37.4189
-17.1374
-2.75796
4.24806
5.86565
5.18131
0.974328
-4.60529
-10.3337
-13.848
-14.4997
-13.9487
-12.84
-10.7297
-8.42846
-2.75777
7.18905
14.1865
16.0301
11.0968
1.77037
-11.5645
-25.0387
-35.5192
-42.1048
-44.8183
-43.8891
-42.388
-41.7441
-39.7244
-35.4099
-30.8678
-23.9082
-18.7365
-18.1594
-21.1754
-30.2395
-47.6687
-78.4494
-124.375
-185.533
-230.509
-291.784
-311.923
-567.387
-503.992
-375.491
132.919
333.301
331.522
327.646
319.044
311.188
304.557
299.63
295.816
293.475
291.457
290.71
290.023
-28.683
-12.1596
-2.23648
5.26854
5.66906
5.04651
0.544989
-5.27953
-10.6193
-13.8367
-14.3265
-13.4133
-11.6711
-9.2823
-6.61976
-2.47137
5.79037
12.7209
13.3583
8.65579
-0.995241
-13.2357
-26.1119
-37.0437
-43.7206
-46.1347
-45.6759
-44.1173
-41.3641
-38.9438
-34.3252
-27.8751
-22.2017
-18.9674
-20.525
-25.1393
-35.3845
-54.0492
-83.5362
-121.459
-155.561
-214.554
-301.131
-407.795
-492.999
-435.158
-442.036
0.811165
307.822
318.197
321.554
315.502
309.258
303.551
299.164
295.637
293.462
291.522
290.812
290.136
-6.70412
-4.68875
-0.179269
3.16575
3.48606
2.4112
-1.17294
-5.63363
-9.62671
-11.6907
-11.6025
-10.832
-9.377
-7.33707
-4.51589
-0.207866
5.78271
10.5656
10.8061
6.33156
-2.14139
-13.7695
-25.6198
-35.5792
-41.865
-43.9352
-43.5205
-41.3032
-38.1703
-35.5604
-32.1634
-27.6055
-23.4016
-21.5364
-23.2469
-29.0281
-40.7958
-62.0425
-95.9417
-137.864
-183.186
-241.46
-291.191
-336.441
-375.792
-383.996
-346.036
-51.8379
279.375
296.035
311.066
309.896
306.197
301.865
298.274
295.191
293.273
291.457
290.811
290.166
2.09184
-2.04812
-0.405149
1.70115
2.09063
1.0291
-1.72041
-5.13283
-8.13397
-9.8126
-9.96458
-9.18307
-7.81393
-5.94437
-3.51384
0.052953
4.2898
7.29827
7.00889
3.0566
-4.3125
-14.0757
-24.1319
-32.9126
-39.0841
-42.06
-42.5466
-41.4332
-39.0262
-36.4534
-33.4004
-29.7745
-27.2082
-26.8201
-29.789
-36.6176
-49.4539
-71.0703
-103.745
-141.852
-182.768
-229.813
-265.869
-293.397
-312.86
-313.681
-248.297
-43.4584
233.336
271.631
295.11
299.889
299.941
297.909
295.777
293.573
292.22
290.72
290.258
289.696
6.07523
1.72417
1.13358
1.47778
1.48037
0.307476
-1.9551
-4.71114
-7.07679
-8.40348
-8.57946
-7.87342
-6.64502
-4.99608
-2.8466
-0.0135806
3.04033
4.92655
4.27784
0.60377
-5.9001
-14.288
-23.0404
-30.7839
-36.44
-39.4404
-40.2024
-39.3485
-37.9465
-36.4963
-34.6174
-32.5907
-31.1326
-31.6249
-35.1874
-42.7837
-55.9443
-76.7067
-107.243
-144.205
-184.455
-224.169
-253.484
-273.728
-283.019
-268.305
-190.24
-11.2251
201.863
253.765
282.252
291.576
294.653
294.555
293.661
292.201
291.324
290.092
289.788
289.296
8.22532
3.19111
1.95905
1.59862
1.17245
-0.0592052
-2.06942
-4.40362
-6.38788
-7.51088
-7.66584
-7.01612
-5.90996
-4.41817
-2.43176
-0.0516348
2.2214
3.34829
2.38
-1.15734
-7.09504
-14.6161
-22.4833
-29.5582
-34.9587
-38.2003
-39.5256
-39.4067
-38.4444
-37.0976
-35.6361
-34.3844
-34.05
-35.5281
-39.8743
-48.0966
-61.4024
-81.2804
-108.907
-141.879
-177.595
-212.43
-237.956
-254.053
-255.354
-227.125
-140.365
19.1059
182.835
241.114
272.156
285.034
290.45
291.898
292.008
291.148
290.649
289.628
289.448
289.011
9.15555
4.44339
2.73108
1.90434
1.10946
-0.201259
-2.0881
-4.1449
-5.88872
-6.89613
-7.0666
-6.50166
-5.51519
-4.15233
-2.33579
-0.330492
1.46578
2.16035
0.983494
-2.45251
-7.97379
-14.8827
-22.1299
-28.7294
-33.9031
-37.2365
-38.8625
-39.176
-38.6789
-37.7525
-36.7146
-36.0215
-36.3145
-38.482
-43.4124
-52.0278
-65.3563
-84.5476
-110.099
-140.182
-171.781
-200.824
-221.824
-231.409
-226.435
-191.233
-101.756
41.1128
171.306
232.099
264.811
280.126
287.353
289.935
290.808
290.397
290.176
289.313
289.224
288.824
8.64209
4.52708
3.25019
2.26098
1.15957
-0.208391
-2.04573
-3.94616
-5.55147
-6.4928
-6.67711
-6.16926
-5.24269
-3.92195
-2.17246
-0.346913
1.125
1.50168
0.15618
-3.23858
-8.50874
-15.0337
-21.8904
-28.1931
-33.2267
-36.6139
-38.4227
-38.9786
-38.7217
-38.0347
-37.2983
-36.9677
-37.7214
-40.3557
-45.6935
-54.5561
-67.8426
-86.4811
-110.699
-138.86
-167.689
-193.681
-212.676
-220.428
-209.594
-167.529
-75.8484
52.9226
164.445
226.108
259.897
276.933
285.327
288.64
290.049
289.936
289.894
289.14
289.11
288.735
7.73086
4.27364
3.38496
2.37395
1.14601
-0.252234
-2.04864
-3.87536
-5.4095
-6.32502
-6.52443
-6.06738
-5.16629
-3.86606
-2.1931
-0.481381
0.843821
1.09611
-0.308327
-3.66608
-8.80491
-15.1429
-21.8133
-27.9754
-32.9454
-36.3594
-38.2609
-38.9476
-38.817
-38.2507
-37.6467
-37.5026
-38.4786
-41.3295
-46.8495
-55.821
-69.0871
-87.4354
-110.881
-138.02
-165.566
-190.203
-208.059
-214.394
-201.135
-156.061
-64.6882
57.9354
161.242
223.148
257.492
275.35
284.351
287.98
289.68
289.717
289.76
289.062
289.056
288.695
1.10489
-0.65999
-0.186429
0.124104
-0.341411
-1.19743
-2.6862
-4.56497
-6.45701
-7.86477
-8.43168
-7.88387
-6.30085
-3.77248
-0.440489
3.09492
5.98986
7.18574
6.1312
2.69904
-2.81023
-9.76226
-17.3583
-24.6465
-30.7894
-35.3004
-38.2312
-39.9837
-41.1647
-42.0147
-42.6514
-43.4157
-45.0282
-48.4731
-54.5417
-64.2582
-78.375
-97.1602
-120.667
-147.617
-174.968
-198.116
-214.07
-220.47
-208.533
-161.724
-59.1869
75.4298
182.03
241.443
271.623
285.957
292.196
293.917
294.044
293.001
292.268
291.056
290.725
290.212
0.700012
-1.25271
-0.945163
-0.801255
-1.32383
-2.1607
-3.59127
-5.46161
-7.35687
-8.73213
-9.24152
-8.5932
-6.8491
-4.02428
-0.302797
3.71963
7.10431
8.61986
7.65807
4.0303
-1.91311
-9.45289
-17.6982
-25.5655
-32.0642
-36.6432
-39.4251
-40.797
-41.7649
-42.4118
-42.9474
-43.7052
-45.4186
-49.0464
-55.6634
-66.0114
-81.0619
-101.23
-126.047
-154.596
-183.132
-206.596
-222.87
-231.619
-224.036
-178.488
-67.2162
83.1435
198.244
256.556
283.797
295.156
299.281
299.274
298.048
296.057
294.64
292.962
292.358
291.699
-1.03625
-2.40621
-2.03122
-1.86913
-2.41317
-3.21465
-4.56102
-6.39552
-8.26631
-9.57022
-9.99693
-9.26311
-7.3553
-4.27411
-0.233679
4.24062
8.08124
9.88593
9.08752
5.23255
-1.17775
-9.34244
-18.2869
-26.7588
-33.6301
-38.2988
-40.9952
-42.4506
-43.0611
-43.6167
-44.1875
-45.0079
-46.7999
-50.6519
-57.5557
-68.3408
-84.1155
-105.305
-131.002
-160.272
-189.246
-212.556
-229.028
-240.349
-238.194
-194.244
-73.645
93.5806
216.746
272.089
295.535
304.113
305.92
304.231
301.72
298.835
296.784
294.681
293.829
293.038
-1.75337
-3.38823
-3.03457
-3.01625
-3.56477
-4.35883
-5.6095
-7.40617
-9.23165
-10.4349
-10.7417
-9.92212
-7.89885
-4.65506
-0.346819
4.49621
8.76981
10.9186
10.416
6.33369
-0.525264
-9.26326
-18.8497
-27.8476
-34.9787
-39.5481
-41.9337
-42.8741
-43.2151
-43.5061
-43.9108
-44.7179
-46.8016
-51.085
-58.2575
-69.1459
-85.07
-106.563
-132.388
-161.776
-191.054
-215.223
-232.805
-247.414
-252.657
-209.857
-77.2895
106.219
237.11
287.369
306.485
312.313
311.878
308.621
304.953
301.259
298.645
296.17
295.101
294.195
-3.19071
-4.53953
-4.08121
-4.13299
-4.67997
-5.51865
-6.6826
-8.38844
-10.1161
-11.1535
-11.2961
-10.3593
-8.19735
-4.79567
-0.248039
4.97726
9.58125
11.6672
11.4297
7.14395
-0.0433747
-9.26743
-19.4073
-28.8494
-36.2322
-41.0897
-43.2357
-43.9433
-44.1144
-44.4484
-45.1369
-46.2857
-48.4128
-52.4554
-59.3663
-70.0605
-85.9705
-107.552
-133.917
-163.465
-192.682
-217.875
-237.046
-257.382
-268.815
-224.392
-79.7403
118.778
257.318
300.462
316.189
319.178
316.775
312.18
307.569
303.209
300.137
297.366
296.123
295.124
-1.19825
-4.75064
-4.71332
-5.0168
-5.61297
-6.43679
-7.52668
-9.12203
-10.7556
-11.6517
-11.6259
-10.5669
-8.30575
-4.87153
-0.378695
4.76938
9.32451
11.5214
11.4247
7.2278
-0.0442255
-9.44484
-19.8018
-29.4202
-36.7001
-41.0755
-43.3181
-44.028
-44.0959
-44.3239
-45.0332
-46.2871
-48.5388
-52.6993
-59.6444
-70.2052
-86.0925
-107.695
-133.686
-162.229
-189.821
-213.236
-232.621
-258.154
-270.573
-231.188
-80.1292
126.299
271.173
309.563
322.885
323.879
320.123
314.597
309.356
304.538
301.157
298.185
296.825
295.764
-2.5661
-5.26695
-5.03435
-5.30333
-5.93057
-6.93104
-8.06439
-9.60243
-11.1208
-11.8592
-11.6366
-10.4157
-8.02876
-4.70051
-0.370717
4.5705
8.97002
11.4296
11.1311
7.16427
0.0440449
-9.34251
-19.7985
-29.6151
-37.0839
-41.5781
-43.6318
-44.2355
-44.4584
-44.7171
-45.3374
-46.4875
-48.6177
-52.7183
-59.6747
-70.2714
-85.8465
-106.873
-132.789
-161.291
-191.775
-223.053
-248.712
-272.662
-279.818
-242.273
-86.056
130.386
280.774
314.563
326.307
326.237
321.795
315.801
310.253
305.208
301.674
298.603
297.184
296.094
-1.11659
-4.79817
-5.1421
-5.69278
-6.73031
-7.58323
-8.60407
-10.003
-11.4028
-12.0501
-11.6928
-10.3339
-7.89996
-4.60977
-0.534922
4.08091
8.33132
10.7977
10.3865
6.50188
-0.65063
-10.1924
-20.7948
-30.5774
-37.9229
-42.0849
-44.1496
-44.7576
-44.8277
-44.9703
-45.4797
-46.5061
-48.6099
-52.8006
-59.8844
-70.4258
-85.7695
-106.654
-131.892
-159.457
-189.296
-215.221
-232.912
-255.502
-268.84
-232.867
-90.8282
124.365
277.216
312.729
325.51
325.873
321.613
315.71
310.209
305.189
301.669
298.605
297.187
296.097
-1.90396
-4.72487
-5.26222
-5.9099
-6.87873
-7.74655
-8.70732
-9.96027
-11.2363
-11.832
-11.4526
-10.015
-7.62897
-4.4915
-0.737896
3.53153
7.51663
9.99254
9.7475
6.11411
-0.727579
-9.97503
-20.2917
-29.9456
-37.2477
-41.6255
-43.668
-44.3836
-44.6248
-44.7789
-45.2109
-46.0439
-47.867
-51.8718
-58.936
-69.8451
-85.7228
-107.176
-133.526
-163.232