/*--------------------------------*- C++ -*----------------------------------*\
| =========                 |                                                 |
| \\      /  F ield         | OpenFOAM: The Open Source CFD Toolbox           |
|  \\    /   O peration     | Version:  2.1.1                                 |
|   \\  /    A nd           | Web:      www.OpenFOAM.org                      |
|    \\/     M anipulation  |                                                 |
\*---------------------------------------------------------------------------*/
FoamFile
{
    version     2.0;
    format      ascii;
    class       volScalarField;
    location    "0.00105";
    object      p_rgh;
}
// * * * * * * * * * * * * * * * * * * * * * * * * * * * * * * * * * * * * * //

dimensions      [1 -1 -2 0 0 0 0];

internalField   nonuniform List<scalar> 
36520
(
10.4589
8.79455
9.13952
8.27693
6.52399
4.39032
1.80365
-0.850126
-3.20661
-4.76641
-5.18319
-4.39029
-2.71996
-0.609355
1.62625
3.475
4.57628
4.44864
2.71669
-0.799822
-5.93144
-12.2284
-18.9583
-25.2949
-30.6005
-34.6037
-37.3916
-39.2086
-40.3052
-40.9259
-41.254
-41.503
-42.0501
-43.4046
-46.2396
-51.4129
-59.973
-73.0902
-92.0996
-118.138
-152.048
-192.064
-228.36
-248.195
-241.367
-195.74
-89.5517
52.1102
162.043
225.024
258.473
275.798
284.31
287.728
289.279
289.272
289.304
288.624
288.62
288.269
11.3543
9.30346
9.40711
8.44499
6.66406
4.49448
1.84081
-0.907211
-3.36806
-5.01237
-5.44004
-4.57802
-2.80081
-0.565936
1.78331
3.73662
4.9308
4.86245
3.15081
-0.402896
-5.62939
-12.0682
-18.9676
-25.4486
-30.8241
-34.8265
-37.5736
-39.3508
-40.4042
-40.9771
-41.2333
-41.3429
-41.6792
-42.7642
-45.3069
-50.1761
-58.4384
-71.3333
-90.3375
-116.774
-151.686
-194.573
-234.154
-256.546
-252.143
-210.342
-103.391
47.1185
165.938
228.294
261.006
277.505
285.356
288.434
289.699
289.536
289.476
288.734
288.703
288.336
12.0929
10.039
9.84804
8.73438
6.91691
4.65078
1.89385
-1.05409
-3.72104
-5.53394
-5.99548
-5.02179
-3.02459
-0.507579
2.07331
4.24543
5.60539
5.65869
3.99303
0.365698
-5.05299
-11.7822
-19.0425
-25.8426
-31.384
-35.377
-38.0292
-39.7082
-40.6762
-41.1568
-41.2858
-41.1535
-41.0913
-41.6156
-43.5182
-47.704
-55.3657
-67.9239
-87.0911
-114.382
-151.279
-199.232
-245.95
-273.427
-274.838
-240.349
-135.393
34.3779
173.946
234.748
266.056
280.88
287.41
289.782
290.522
290.054
289.81
288.952
288.862
288.467
11.779
10.435
10.269
9.1822
7.31917
4.92299
1.97597
-1.27833
-4.27089
-6.3383
-6.8549
-5.71859
-3.39881
-0.432175
2.50986
5.04635
6.66293
6.90137
5.30085
1.54923
-4.17247
-11.3521
-19.1763
-26.4836
-32.2983
-36.2773
-38.764
-40.2753
-41.1032
-41.4527
-41.3886
-40.929
-40.2949
-40.0257
-41.0935
-44.355
-51.2826
-63.4925
-83.0828
-111.713
-151.486
-206.997
-262.677
-296.293
-303.932
-281.536
-181.753
11.3397
187.448
244.311
273.587
285.762
290.587
291.778
291.758
290.842
290.319
289.299
289.117
288.681
11.0293
10.4956
10.6814
9.79353
7.90885
5.29821
2.10708
-1.58942
-5.04517
-7.49089
-8.1134
-6.77886
-4.09151
-0.538829
2.9874
6.03927
8.01757
8.50025
6.9807
3.03482
-3.11213
-10.8743
-19.4821
-27.5498
-33.7554
-37.6523
-39.8625
-41.1598
-41.7932
-42.0216
-41.7429
-40.8741
-39.4922
-38.2027
-38.2669
-40.1968
-46.0658
-57.6524
-77.4991
-107.641
-150.127
-213.37
-279.294
-317.59
-327.546
-326.617
-241.135
-21.414
208.91
256.785
283.437
291.98
294.585
294.292
293.318
291.834
290.954
289.733
289.435
288.949
7.82351
9.76829
10.7721
10.5258
8.59735
5.823
2.3021
-2.00283
-6.08533
-9.03046
-9.80375
-8.12473
-4.81239
-0.508131
3.75363
7.40906
9.90059
10.7006
9.32678
5.15253
-1.52665
-10.0718
-19.784
-28.9727
-35.7848
-39.7015
-41.4955
-42.5506
-43.0022
-43.0868
-42.6166
-41.3395
-39.211
-36.6693
-34.7732
-35.6357
-40.3478
-50.9219
-70.8924
-102.172
-146.432
-216.03
-295
-336.077
-349.089
-380.491
-325.842
-57.8778
243.3
272.867
295.052
299.398
299.285
297.248
295.161
293.013
291.71
290.254
289.821
289.273
6.33805
8.75245
10.7655
11.5955
9.58069
6.71757
2.7725
-2.35095
-7.40555
-11.1541
-12.1112
-9.92671
-5.97241
-1.0193
3.87817
8.37902
11.8053
13.3101
12.1643
7.47783
-0.109834
-9.61929
-20.5137
-30.819
-38.105
-41.8661
-42.9256
-43.4774
-43.8095
-43.9092
-43.5436
-42.1556
-39.6281
-36.4905
-33.8058
-32.9422
-35.4547
-43.5403
-63.2972
-94.8277
-139.658
-216.401
-315.361
-346.197
-388.269
-478.916
-477.029
-48.75
288.544
294.248
308.425
307.854
304.596
300.602
297.266
294.367
292.585
290.86
290.275
289.656
-5.65456
4.83667
9.76553
12.6368
10.8291
7.98054
3.57845
-2.74004
-9.32023
-14.2603
-15.5189
-12.7742
-7.89941
-1.89391
3.75568
9.7219
14.886
17.6213
16.2236
10.7352
2.40064
-7.81697
-19.7728
-31.216
-39.3387
-42.8597
-43.927
-44.1075
-44.2877
-44.3441
-43.9833
-42.6367
-39.7987
-36.1804
-32.791
-31.0884
-32.8055
-40.5872
-59.7242
-90.3523
-130.242
-194.523
-309.513
-436.661
-539.947
-587.111
-471.232
50.6452
330.233
320.122
324.02
317.712
310.83
304.592
299.819
296.044
293.696
291.65
290.881
290.176
11.398
1.19434
6.89525
13.751
12.523
9.79889
4.83877
-3.0526
-11.9949
-19.2162
-19.8536
-14.2794
-7.62264
-1.79103
3.6347
10.1561
16.7762
20.2274
19.4392
13.0014
3.44241
-7.86055
-20.7566
-33.5582
-42.3705
-45.2402
-44.5922
-43.7942
-43.9435
-44.2066
-44.4974
-42.9322
-39.9988
-37.6995
-33.8485
-30.63
-29.9829
-34.4345
-48.4738
-81.9005
-128.361
-184.17
-235.372
-288.394
-591.623
-515.26
-309.369
119.115
354.199
337.821
335.317
324.533
314.906
307.036
301.269
296.906
294.196
291.958
291.08
290.329
21.3858
0.608665
7.41795
15.0987
14.5029
12.1329
6.73038
-3.61493
-15.1264
-21.0515
-20.5029
-15.8334
-10.0979
-5.06356
1.39264
10.9308
20.4539
25.5441
24.293
14.986
4.3181
-6.93415
-19.8361
-32.844
-41.6776
-44.4125
-43.5641
-42.5663
-42.8647
-43.2796
-43.1701
-42.081
-39.71
-35.7339
-31.2874
-27.3004
-27.0052
-33.1827
-53.5017
-89.9909
-131.723
-189.173
-232.454
-91.4263
-597.834
-582.496
-230.007
153.855
365.338
344.745
338.716
326.226
315.606
307.211
301.174
296.691
293.929
291.685
290.806
290.061
-35.3625
-14.3631
10.6475
22.1932
21.7107
18.8193
12.1587
-1.38903
-14.7219
-21.2245
-21.1638
-16.9561
-11.3962
-7.07798
-2.48962
7.04062
20.6748
32.8609
30.051
18.1737
5.69848
-7.39472
-20.4847
-32.7438
-41.3618
-43.6143
-42.2446
-40.7738
-40.3474
-40.6954
-41.2542
-41.0554
-40.0712
-38.1188
-30.4121
-20.1711
-23.4254
-29.2494
-49.215
-89.9951
-134.137
-178.293
-225.327
-134.328
-581.221
-637.629
-222.666
200.928
373.128
351.633
341.011
327.32
316.032
307.316
301.119
296.564
293.773
291.524
290.645
289.902
-84.2579
-12.5536
26.5701
34.4428
25.9816
21.3845
14.7282
1.27825
-11.4737
-19.4476
-21.7977
-18.9198
-13.1315
-8.15084
-2.88833
5.41386
15.2564
23.2728
23.9632
16.8803
6.50589
-5.60774
-18.5388
-29.3973
-37.2009
-40.4338
-40.6192
-39.7332
-39.4355
-40.2247
-41.2814
-40.5804
-38.4024
-35.356
-29.5974
-24.4426
-26.3157
-32.3844
-48.4757
-88.9319
-137.41
-177.06
-230.322
-217.693
-596.055
-653.074
-354.065
238.628
373.785
354.75
340.19
326.114
315.001
306.509
300.495
296.079
293.391
291.213
290.374
289.655
-124.482
-26.308
41.4069
47.0206
31.2935
25.9728
17.0323
3.26976
-9.33699
-17.5018
-21.2171
-18.9581
-13.6839
-8.50217
-3.41654
4.29718
12.9108
21.6483
23.459
16.985
7.94113
-3.33906
-16.1672
-25.9641
-34.1201
-39.1236
-40.6103
-40.7288
-40.192
-40.6051
-40.1072
-37.557
-34.5136
-32.4456
-27.7281
-25.3574
-26.6688
-34.7076
-52.4784
-93.2186
-143.058
-179.882
-226.934
-241.443
-600.462
-723.387
-327.68
243.25
372.421
355.705
340.377
326.17
315.041
306.541
300.522
296.104
293.414
291.235
290.394
289.675
-103.919
-56.1885
32.232
61.7295
45.9721
29.4253
16.1684
1.52704
-11.5138
-20.0833
-24.0934
-22.0075
-16.2513
-11.264
-4.99701
5.53585
19.2607
30.3804
27.5986
16.8996
6.13041
-4.92165
-17.5981
-29.443
-38.4173
-42.6582
-42.4392
-40.5048
-40.4646
-42.1977
-42.8467
-42.3431
-37.1403
-29.8901
-26.6954
-24.9688
-27.7682
-36.3354
-55.0649
-94.7194
-144.468
-185.512
-228.057
-281.485
-665.823
-740.987
-94.5457
221.407
371.563
353.941
341.003
327.202
315.982
307.303
301.128
296.588
293.805
291.562
290.681
289.941
-206.679
-98.4694
129.957
129.653
47.4909
26.7788
14.29
2.58343
-8.31854
-16.9098
-21.7031
-19.7044
-13.5613
-7.83557
-2.67951
5.23135
14.4063
20.7305
19.1352
12.9158
5.11719
-4.40039
-14.5072
-25.8952
-36.8729
-42.436
-42.2826
-40.8384
-40.8197
-41.8629
-41.5833
-39.0353
-35.965
-31.8722
-30.0087
-29.7667
-32.9808
-43.5482
-64.7653
-101.342
-151.083
-198.579
-257.754
-316.321
-630.161
-747.584
-24.6078
209.99
361.197
348.378
338.035
325.682
315.271
307.014
301.062
296.639
293.911
291.688
290.817
290.078
-66.4028
-27.3805
15.0185
39.6442
30.7203
21.1437
11.5408
1.58575
-8.54146
-15.5424
-19.5838
-20.3824
-16.0673
-8.66759
-1.43795
6.49423
13.7201
18.111
16.6165
10.7175
3.02113
-5.75205
-15.543
-25.3538
-34.2983
-40.2566
-41.0845
-40.1423
-40.741
-42.1963
-42.0476
-39.0956
-34.5865
-31.0686
-30.5343
-32.4208
-38.3648
-51.2093
-73.7571
-111.158
-156.668
-193.976
-231.901
-272.084
-613.949
-656.307
-72.5591
189.701
356.051
341.388
334.214
323.705
314.365
306.698
301.071
296.796
294.145
291.945
291.083
290.341
-62.1541
-20.9375
16.3338
25.1952
18.6745
13.919
7.48249
-0.282543
-8.05297
-13.7926
-16.8798
-16.6941
-13.3117
-8.36943
-1.62743
6.61775
14.1502
18.2384
17.0825
11.053
2.99989
-6.02094
-16.09
-26.4115
-35.3244
-40.4141
-41.5572
-41.2586
-41.6303
-42.3226
-41.0431
-37.0658
-31.9417
-27.6693
-28.2602
-31.5985
-40.634
-57.3799
-85.0642
-125.128
-168.907
-213.483
-274.263
-295.809
-410.547
-575.002
-387.607
78.1334
332.51
322.771
323.699
317.327
310.57
304.47
299.791
296.071
293.755
291.729
290.965
290.265
-28.9099
-13.3621
4.99926
13.7609
12.3683
8.94323
4.31553
-1.5162
-7.33974
-11.688
-13.961
-13.7202
-11.0518
-6.80359
-1.26865
5.16151
10.6529
14.0282
13.293
8.87411
1.62373
-6.67078
-15.82
-25.2152
-33.4125
-38.472
-39.9212
-40.072
-40.649
-41.4758
-40.7766
-37.5672
-33.7044
-32.084
-32.3638
-36.9427
-47.1277
-65.9208
-96.0675
-136.029
-180.082
-227.08
-266.959
-284.456
-309.449
-385.16
-392.115
-25.037
290.354
295.136
307.672
307.343
304.26
300.457
297.238
294.409
292.665
290.964
290.383
289.771
-14.0827
-7.50985
2.14686
7.56963
7.64968
5.48833
2.12324
-2.30733
-6.72341
-10.0344
-11.7058
-11.3886
-9.18035
-5.36245
-0.268387
5.29132
9.71898
11.7486
10.8224
6.81002
0.184581
-7.75033
-16.4572
-25.122
-32.4499
-37.2058
-39.2737
-40.0236
-40.7119
-41.2842
-40.7297
-38.4446
-35.8986
-35.3771
-37.4223
-43.7877
-56.2139
-76.5599
-105.955
-143.342
-186.078
-228.145
-259.841
-275.95
-286.641
-307.776
-259.683
-31.0819
245.867
272.304
293.691
298.487
298.634
296.878
294.966
292.929
291.692
290.28
289.862
289.328
-4.67061
-3.68302
1.31364
4.41929
4.74067
3.26221
0.691095
-2.76134
-6.23224
-8.84682
-10.1317
-9.80084
-7.95767
-4.78935
-0.633662
3.82623
7.87546
9.86709
8.9231
5.16467
-0.956248
-8.41796
-16.5905
-24.6454
-31.4353
-36.0342
-38.4428
-39.6555
-40.5971
-41.2362
-40.9636
-39.5564
-38.1841
-38.6375
-41.9214
-49.4541
-62.6212
-82.9281
-110.716
-144.664
-182.747
-219.585
-246.591
-260.843
-268.923
-260.61
-182.92
1.63322
209.543
255.779
281.911
290.859
293.78
293.78
293.004
291.651
290.853
289.692
289.416
288.948
-0.069331
-1.48417
0.812617
2.37323
2.61441
1.61195
-0.376004
-3.10477
-5.88349
-7.99392
-9.01772
-8.66562
-7.00598
-4.07803
-0.20264
3.79563
6.99551
8.44284
7.35686
3.7629
-1.98408
-9.05755
-16.7779
-24.3112
-30.6798
-35.1842
-37.8475
-39.3683
-40.4671
-41.2175
-41.3173
-40.8361
-40.7093
-42.3474
-46.8148
-55.2327
-68.763
-88.4255
-114.095
-144.847
-178.411
-209.181
-231.499
-243.361
-245.511
-220.453
-130.881
32.4033
189.501
244.062
272.757
284.962
290.011
291.425
291.555
290.74
290.277
289.305
289.135
288.716
2.93075
-0.0132226
0.782468
1.4835
1.46118
0.566155
-1.13315
-3.39718
-5.69696
-7.45103
-8.2713
-7.88721
-6.37741
-3.90194
-0.609829
2.91955
5.82023
7.13987
6.07146
2.66885
-2.75427
-9.51109
-16.889
-24.0483
-30.1299
-34.5803
-37.4236
-39.1658
-40.3808
-41.2229
-41.6407
-41.8532
-42.6594
-45.1407
-50.3018
-59.1752
-72.7218
-91.4935
-115.715
-143.457
-172.686
-198.624
-216.826
-225.1
-216.924
-181.947
-89.8482
55.0257
177.863
235.78
266.262
280.792
287.339
289.853
290.653
290.216
289.982
289.136
289.035
288.647
3.38396
0.480639
0.840556
1.07624
0.780246
-0.0753035
-1.63408
-3.60417
-5.59513
-7.10399
-7.7757
-7.34297
-5.88235
-3.49391
-0.44125
2.71154
5.28158
6.24199
5.14304
1.85934
-3.33632
-9.85013
-16.9682
-23.8615
-29.7536
-34.1764
-37.15
-39.062
-40.4082
-41.3723
-42.0436
-42.7414
-44.1793
-47.2687
-52.9248
-62.0649
-75.4813
-93.5606
-116.231
-142.187
-168.83
-191.964
-207.781
-213.16
-201.061
-156.616
-62.2539
65.8264
170.952
229.972
261.732
277.85
285.684
288.795
290.063
289.883
289.792
289.04
288.984
288.615
2.83415
0.489677
0.84361
0.919158
0.491844
-0.368831
-1.87097
-3.71964
-5.56895
-6.96201
-7.55908
-7.11559
-5.70415
-3.47415
-0.538087
2.49902
4.91379
5.80257
4.68999
1.46102
-3.62264
-10.0068
-16.9857
-23.7332
-29.5207
-33.9226
-36.9526
-38.9385
-40.3424
-41.3736
-42.1853
-43.1147
-44.8181
-48.1639
-53.9839
-63.1636
-76.435
-94.2263
-116.066
-141.166
-166.71
-188.694
-203.503
-207.21
-191.584
-143.824
-49.3451
70.435
168.087
227.202
259.621
276.504
284.937
288.334
289.838
289.778
289.755
289.044
289.002
288.643
4.11559
-0.623433
-2.49795
-4.24333
-5.67965
-6.63055
-7.49625
-8.30202
-9.02347
-9.37601
-9.17729
-8.35814
-7.0548
-5.36428
-3.36625
-1.30407
0.565001
1.58908
1.00022
-1.68877
-6.43426
-12.6468
-19.4861
-25.9992
-31.3719
-35.2693
-37.8408
-39.4641
-40.467
-41.08
-41.5368
-42.1494
-43.4684
-46.3078
-51.681
-60.6772
-74.3424
-93.0724
-116.32
-142.271
-167.714
-189.306
-204.219
-209.161
-196.472
-154.397
-65.8456
56.7607
163.048
225.312
259.673
277.226
285.811
289.161
290.588
290.443
290.368
289.592
289.52
289.143
5.10282
-0.42251
-2.70892
-4.49427
-5.86341
-6.74961
-7.56815
-8.37762
-9.13834
-9.53306
-9.34753
-8.51852
-7.19737
-5.46649
-3.45022
-1.35395
0.651228
1.87762
1.4158
-1.2651
-6.11472
-12.5205
-19.5632
-26.2325
-31.6804
-35.5516
-38.0413
-39.5849
-40.522
-41.0454
-41.3814
-41.8339
-42.9735
-45.5716
-50.7507
-59.7294
-73.5183
-92.7144
-116.859
-143.865
-170.309
-192.643
-208.154
-214.482
-205.003
-166.868
-79.8634
50.2178
166.357
228.494
262.332
278.979
286.864
289.843
290.974
290.667
290.505
289.668
289.568
289.178
6.18334
-0.366764
-3.24512
-5.0265
-6.20607
-6.98335
-7.67509
-8.49558
-9.34134
-9.82381
-9.66549
-8.81481
-7.44425
-5.64216
-3.5495
-1.27834
1.00632
2.52911
2.32179
-0.357225
-5.44295
-12.2332
-19.6677
-26.6395
-32.2234
-36.0373
-38.3568
-39.7412
-40.5578
-40.9094
-40.975
-41.0235
-41.6165
-43.6417
-48.2762
-56.9453
-71.09
-91.4572
-117.431
-146.673
-175.15
-198.874
-215.766
-225.162
-222.366
-192.59
-110.276
35.1103
174.016
234.936
267.705
282.437
288.915
291.143
291.73
291.117
290.77
289.833
289.679
289.263
5.90797
-0.925616
-4.02984
-5.69119
-6.61507
-7.23942
-7.78598
-8.63666
-9.64042
-10.2619
-10.136
-9.25026
-7.84999
-6.02663
-3.84987
-1.39861
1.16693
3.3292
3.59454
0.931252
-4.49984
-11.842
-19.8417
-27.2493
-33.0188
-36.7219
-38.7763
-39.9225
-40.5656
-40.6947
-40.3632
-39.8079
-39.6274
-40.791
-44.6047
-52.8135
-67.3053
-89.1706
-117.825
-150.343
-182.357
-208.065
-226.525
-240.027
-246.182
-229.973
-155.895
7.40668
187.265
244.54
275.499
287.21
291.886
292.91
292.752
291.71
291.107
290.035
289.803
289.353
5.55922
-2.01321
-5.09008
-6.50853
-7.0924
-7.54454
-7.88185
-8.79638
-10.0254
-10.7859
-10.6776
-9.75721
-8.32369
-6.43465
-4.11353
-1.38461
1.75775
4.5783
5.32173
2.62391
-3.28517
-11.3481
-20.0647
-27.9888
-33.935
-37.4468
-39.1404
-40.0341
-40.5376
-40.4402
-39.6596
-38.3353
-37.1207
-37.0917
-39.742
-47.1867
-61.8611
-85.5134
-117.242
-154.198
-188.877
-216.786
-236.317
-255.415
-273.972
-280.601
-216.487
-30.7009
206.97
257.467
285.108
292.93
295.361
294.971
293.938
292.409
291.502
290.272
289.952
289.464
5.10842
-3.32566
-6.21516
-7.00715
-7.34542
-7.66401
-7.89309
-8.99452
-10.4496
-11.354
-11.2875
-10.3173
-8.84262
-6.95121
-4.49372
-1.45612
2.09745
5.69691
7.27891
4.58941
-1.91957
-10.8415
-20.4308
-28.8997
-34.9454
-38.1283
-39.4095
-40.0744
-40.4891
-40.2078
-38.9192
-36.7432
-34.3405
-32.8029
-33.6087
-39.4569
-53.3633
-77.8888
-112.731
-154.519
-193.039
-223.824
-244.812
-267.999
-293.581
-314.884
-286.152
-67.1206
231.084
274.032
295.778
299.282
299.144
297.228
295.255
293.194
291.954
290.547
290.129
289.596
-0.574986
-5.64752
-7.14486
-7.21228
-7.48534
-7.68771
-7.90048
-9.35327
-11.1644
-12.1269
-12.0234
-10.9864
-9.45138
-7.5088
-4.8413
-1.50333
2.74648
7.40262
9.77197
6.87697
-0.429041
-10.462
-21.1854
-30.3661
-36.5661
-39.4843
-40.4822
-41.1368
-41.6366
-41.1765
-39.3669
-36.3706
-32.653
-29.36
-28.0959
-32.1992
-44.816
-68.8526
-105.037
-150.496
-192.474
-225.577
-251.415
-280.13
-311.756
-350.257
-381.247
-71.7031
263.485
295.626
307.958
306.706
303.665
300.019
296.968
294.274
292.632
291
290.457
289.866
-4.1729
-7.43149
-8.18658
-6.88122
-7.18285
-7.47819
-7.98566
-10.2044
-12.4051
-13.2437
-12.9715
-11.7418
-10.0821
-7.98026
-4.70977
-0.13459
4.89688
10.0271
12.6916
9.49096
1.14039
-10.1588
-22.2587
-32.3076
-38.6576
-41.1144
-41.405
-41.8796
-42.3036
-42.1725
-40.1379
-36.4644
-32.1527
-27.4984
-24.3375
-26.5644
-37.3579
-59.9653
-95.6436
-142.663
-184.407
-220.011
-249.594
-281.478
-324.22
-430.266
-554.137
-20.0632
310.783
319.101
321.602
315.269
309.031
303.434
299.146
295.698
293.571
291.659
290.962
290.296
-22.3093
-12.5864
-9.50531
-6.00758
-6.12337
-6.65686
-7.32067
-10.3553
-13.6614
-14.5559
-13.6807
-12.3625
-10.7482
-8.83205
-5.27702
-0.106487
5.74937
11.2409
16.4807
13.1173
2.99208
-9.7942
-23.3271
-34.1521
-40.5787
-42.9152
-43.5371
-44.4842
-45.6439
-45.4042
-43.1591
-39.0448
-33.7707
-27.5202
-21.6259
-21.5399
-30.5477
-50.8963
-82.8377
-124.81
-173.34
-212.793
-263.444
-304.241
-404.229
-508.004
-484.682
147.479
357.948
342.192
335.545
324.519
315.007
307.309
301.663
297.365
294.689
292.457
291.581
290.828
-9.53698
-8.20386
-8.31226
-4.56109
-3.79885
-4.83076
-6.48285
-12.6134
-17.4878
-16.9671
-15.1541
-13.4733
-10.7625
-8.41652
-4.79301
1.70575
10.0406
17.1469
21.1871
14.0628
1.99259
-10.6693
-24.6341
-36.1321
-42.4752
-43.3885
-42.9127
-43.2165
-43.8376
-43.5967
-41.6283
-37.8292
-32.9454
-27.4259
-23.4261
-23.7502
-30.8624
-49.6726
-80.8572
-122.811
-170.44
-209.445
-259.587
-296.32
-674.997
-554.523
-153.556
226.137
377.881
355.465
343.23
329.52
318.143
309.225
302.808
298.043
295.077
292.689
291.727
290.935
12.358
-17.6152
3.96594
9.00834
1.54826
-3.65609
-8.64195
-15.6358
-18.9302
-17.2745
-13.2482
-9.95433
-8.85394
-8.04716
-5.00647
1.02196
9.25284
16.7352
19.6061
12.9677
2.35985
-10.6485
-25.5616
-38.979
-46.0007
-46.419
-44.8429
-43.8542
-43.1978
-41.6753
-37.6892
-31.9052
-25.1612
-18.3611
-14.665
-15.0015
-20.121
-38.4393
-69.1039
-112.087
-162.955
-211.153
-258.071
-127.073
-785.088
-683.69
42.6466
235.07
368.545
356.033
343.455
329.62
318.068
309.001
302.507
297.721
294.76
292.392
291.443
290.663
15.3955
-37.1202
-10.7154
13.4581
5.61156
-1.68545
-5.39657
-9.99634
-13.966
-14.3698
-12.2511
-9.6703
-8.18158
-7.16122
-4.70492
1.20343
9.29788
16.2586
17.5701
11.7163
1.48437
-12.3871
-26.9901
-39.1136
-45.3272
-45.7942
-43.388
-42.0352
-41.3169
-39.6532
-35.3787
-28.6997
-21.7411
-15.4386
-11.8347
-13.2647
-19.0556
-34.4703
-63.5594
-105.603
-155.092
-199.264
-250.718
-159.887
-810.868
-667.042
120.215
254.564
359.082
355.466
343.657
329.812
318.148
308.977
302.423
297.609
294.639
292.273
291.325
290.548
-36.4804
-45.8645
25.2793
37.1633
19.8297
6.30879
-2.48709
-9.39502
-14.2967
-15.8626
-14.8328
-12.3898
-10.3986
-8.02632
-4.62534
1.9088
10.7019
17.6928
18.2942
12.2228
2.14503
-11.2984
-26.6846
-39.7097
-46.7231
-46.8654
-44.1735
-42.4416
-42.2856
-39.4576
-33.6151
-26.3991
-19.0461
-14.2527
-11.9592
-13.795
-19.7119
-33.9637
-61.9581
-104.706
-152.978
-208.292
-254.027
-175.012
-775.25
-692.907
83.5938
248.515
359.827
354.484
343.296
329.527
317.937
308.825
302.312
297.525
294.573
292.22
291.279
290.504
-44.2256
-18.2228
1.85942
13.8493
7.6958
2.10396
-1.34239
-5.82634
-11.5807
-15.8293
-16.1611
-14.1754
-12.2648
-9.4188
-5.10213
1.77355
11.6095
19.4426
19.8609
11.4318
1.18166
-11.9563
-27.0614
-39.2505
-45.8155
-46.6422
-44.7425
-43.3619
-42.6038
-39.5648
-34.568
-29.5379
-24.9214
-18.8914
-14.5153
-14.6959
-21.9229
-36.659
-62.424
-100.482
-146.963
-203.589
-256.858
-341.364
-787.31
-484.572
-57.7292
214.94
360.872
351.827
341.546
328.233
317.069
308.285
301.989
297.335
294.463
292.152
291.235
290.471
-51.8736
-24.7436
-2.48121
12.2336
10.3394
5.47153
0.311821
-6.50702
-13.1393
-16.7648
-16.3476
-14.9014
-13.8401
-11.3517
-8.51568
-0.0651414
12.2857
21.4141
21.2682
13.8614
2.54034
-11.7866
-27.6186
-41.8276
-49.5364
-49.305
-46.6847
-45.7806
-45.2632
-38.5252
-27.9499
-22.217
-18.885
-17.0713
-16.6803
-17.8088
-23.1933
-37.115
-62.3614
-100.536
-137.189
-213.426
-345.557
-304.261
-592.72
-417.017
-222.064
187.314
350.822
345.868
337.104
325.181
315.096
307.061
301.249
296.888
294.199
291.986
291.125
290.386
-37.3379
-17.0563
-2.67676
4.32925
5.94692
5.26273
1.05609
-4.52322
-10.2511
-13.7648
-14.4159
-13.8646
-12.7558
-10.6459
-8.34544
-2.67522
7.27186
14.2697
16.1139
11.1813
1.85622
-11.4767
-24.9474
-35.4203
-42.0039
-44.7216
-43.7955
-42.291
-41.6322
-39.6134
-35.3109
-30.7736
-23.8149
-18.6448
-18.0692
-21.0848
-30.1488
-47.5789
-78.36
-124.283
-185.436
-230.397
-291.396
-309.319
-557.408
-491.581
-369.502
133.485
333.385
331.603
327.726
319.125
311.269
304.638
299.711
295.897
293.556
291.538
290.791
290.103
-28.6026
-12.0792
-2.15611
5.34892
5.74944
5.12689
0.625368
-5.19915
-10.5389
-13.7563
-14.2461
-13.3329
-11.5905
-9.20117
-6.53849
-2.39023
5.87149
12.8023
13.44
8.73774
-0.912675
-13.1519
-26.0257
-36.9543
-43.6299
-46.0448
-45.5877
-44.0287
-41.2722
-38.8519
-34.237
-27.7909
-22.1185
-18.8838
-20.4372
-25.052
-35.299
-53.9637
-83.4507
-121.366
-155.429
-214.311
-300.439
-405.852
-488.688
-430.283
-438.83
1.33731
307.907
318.277
321.635
315.583
309.339
303.631
299.244
295.717
293.542
291.602
290.892
290.216
-6.62417
-4.6088
-0.0993148
3.24573
3.56605
2.4912
-1.09282
-5.55327
-9.54634
-11.6105
-11.5223
-10.7509
-9.29513
-7.2552
-4.43498
-0.127451
5.86374
10.6473
10.8878
6.41306
-2.05974
-13.6876
-25.5376
-35.4968
-41.7824
-43.8527
-43.4382
-41.2209
-38.0874
-35.4778
-32.0817
-27.5243
-23.3198
-21.452
-23.1615
-28.9443
-40.7122
-61.9572
-95.8518
-137.765
-183.057
-241.106
-289.416
-334.162
-373.732
-382.535
-345.391
-51.6836
279.456
296.115
311.146
309.976
306.277
301.945
298.354
295.271
293.353
291.537
290.891
290.246
2.17227
-1.96769
-0.324718
1.7816
2.17119
1.10974
-1.63988
-5.05236
-8.05346
-9.73199
-9.8838
-9.10227
-7.73318
-5.86365
-3.43308
0.133839
4.37074
7.37913
7.08971
3.13751
-4.23138
-13.9943
-24.0502
-32.8308
-39.0022
-41.9782
-42.4648
-41.3515
-38.9444
-36.3715
-33.3185
-29.6926
-27.1262
-26.738
-29.7069
-36.5353
-49.371
-70.9863
-103.658
-141.754
-182.636
-229.602
-265.517
-292.966
-312.484
-313.452
-248.175
-43.3749
233.416
271.711
295.19
299.97
300.021
297.99
295.857
293.653
292.3
290.8
290.339
289.777
6.156
1.80494
1.21434
1.55855
1.56114
0.388245
-1.87433
-4.63037
-6.99602
-8.32271
-8.49869
-7.79265
-6.56425
-4.91531
-2.76583
0.0671883
3.1211
5.00732
4.35861
0.684538
-5.81933
-14.2072
-22.9596
-30.7031
-36.3592
-39.3597
-40.1216
-39.2677
-37.8657
-36.4155
-34.5366
-32.5099
-31.0518
-31.5441
-35.1066
-42.7029
-55.8636
-76.6259
-107.163
-144.124
-184.373
-224.085
-253.396
-273.637
-282.929
-268.219
-190.157
-11.1441
201.944
253.846
282.333
291.657
294.734
294.635
293.742
292.282
291.405
290.173
289.868
289.377
8.30627
3.27206
2.04
1.67957
1.2534
0.0217502
-1.98847
-4.32266
-6.30692
-7.42992
-7.58488
-6.93516
-5.82901
-4.33721
-2.3508
0.0293203
2.30235
3.42925
2.46095
-1.07639
-7.01408
-14.5352
-22.4024
-29.4773
-34.8777
-38.1194
-39.4447
-39.3258
-38.3635
-37.0167
-35.5552
-34.3035
-33.9691
-35.4471
-39.7933
-48.0156
-61.3214
-81.1995
-108.826
-141.798
-177.515
-212.349
-237.875
-253.972
-255.273
-227.044
-140.284
19.1868
182.916
241.195
272.237
285.115
290.531
291.979
292.089
291.229
290.73
289.709
289.529
289.092
9.23655
4.52439
2.81209
1.98535
1.19046
-0.120253
-2.00709
-4.0639
-5.80771
-6.81513
-6.98559
-6.42065
-5.43419
-4.07133
-2.25478
-0.249486
1.54679
2.24136
1.0645
-2.37151
-7.89279
-14.8017
-22.0489
-28.6484
-33.8221
-37.1555
-38.7815
-39.095
-38.5979
-37.6714
-36.6336
-35.9405
-36.2335
-38.401
-43.3314
-51.9468
-65.2753
-84.4666
-110.018
-140.101
-171.7
-200.743
-221.743
-231.328
-226.354
-191.152
-101.675
41.1938
171.387
232.18
264.892
280.207
287.434
290.016
290.889
290.478
290.257
289.394
289.305
288.905
8.72309
4.60807
3.33118
2.34197
1.24057
-0.127397
-1.96474
-3.86517
-5.47047
-6.4118
-6.59611
-6.08827
-5.1617
-3.84096
-2.09147
-0.265919
1.20599
1.58267
0.237174
-3.15758
-8.42775
-14.9528
-21.8094
-28.1121
-33.1458
-36.5329
-38.3417
-38.8976
-38.6407
-37.9537
-37.2173
-36.8867
-37.6404
-40.2747
-45.6125
-54.4751
-67.7616
-86.4001
-110.618
-138.779
-167.608
-193.6
-212.595
-220.347
-209.513
-167.448
-75.7674
53.0036
164.526
226.189
259.978
277.014
285.408
288.721
290.13
290.017
289.975
289.221
289.191
288.816
7.81182
4.3546
3.46592
2.45491
1.22697
-0.171276
-1.96768
-3.7944
-5.32854
-6.24406
-6.44348
-5.98642
-5.08533
-3.7851
-2.11214
-0.400423
0.92478
1.17707
-0.227368
-3.58512
-8.72395
-15.062
-21.7323
-27.8945
-32.8644
-36.2784
-38.1799
-38.8666
-38.736
-38.1698
-37.5657
-37.4216
-38.3976
-41.2485
-46.7685
-55.74
-69.0061
-87.3544
-110.8
-137.939
-165.485
-190.122
-207.978
-214.313
-201.054
-155.98
-64.6072
58.0163
161.323
223.229
257.573
275.431
284.432
288.061
289.761
289.797
289.841
289.143
289.137
288.776
1.14449
-0.620398
-0.146837
0.163697
-0.301819
-1.15784
-2.64661
-4.52537
-6.41742
-7.82518
-8.39209
-7.84428
-6.26126
-3.73288
-0.400897
3.13451
6.02945
7.22533
6.17079
2.73863
-2.77064
-9.72267
-17.3187
-24.6069
-30.7498
-35.2608
-38.1916
-39.9441
-41.1251
-41.9751
-42.6118
-43.3761
-44.9886
-48.4335
-54.5021
-64.2187
-78.3354
-97.1207
-120.627
-147.578
-174.929
-198.076
-214.031
-220.43
-208.494
-161.685
-59.1473
75.4693
182.07
241.483
271.662
285.996
292.236
293.956
294.083
293.04
292.308
291.096
290.764
290.251
0.742475
-1.21024
-0.902701
-0.758793
-1.28136
-2.11824
-3.54881
-5.41915
-7.3144
-8.68967
-9.19906
-8.55074
-6.80664
-3.98182
-0.260334
3.76209
7.14678
8.66232
7.70053
4.07277
-1.87064
-9.41043
-17.6558
-25.5231
-32.0217
-36.6007
-39.3826
-40.7546
-41.7225
-42.3694
-42.9049
-43.6627
-45.3761
-49.0039
-55.621
-65.9689
-81.0194
-101.188
-126.004
-154.554
-183.089
-206.554
-222.827
-231.576
-223.994
-178.446
-67.1738
83.1859
198.286
256.599
283.839
295.199
299.323
299.317
298.09
296.099
294.683
293.004
292.4
291.741
-0.990882
-2.36084
-1.98585
-1.82376
-2.3678
-3.16928
-4.51565
-6.35015
-8.22094
-9.52485
-9.95155
-9.21774
-7.30993
-4.22874
-0.188308
4.28599
8.12661
9.9313
9.13289
5.27792
-1.13238
-9.29707
-18.2415
-26.7134
-33.5847
-38.2535
-40.9498
-42.4052
-43.0157
-43.5714
-44.1422
-44.9625
-46.7545
-50.6065
-57.5103
-68.2954
-84.0702
-105.259
-130.957
-160.227
-189.201
-212.511
-228.983
-240.303
-238.149
-194.198
-73.5997
93.626
216.791
272.135
295.58
304.158
305.966
304.277
301.766
298.881
296.829
294.727
293.874
293.083
-1.70503
-3.33989
-2.98623
-2.96791
-3.51643
-4.31049
-5.56116
-7.35783
-9.18331
-10.3866
-10.6934
-9.87378
-7.85051
-4.60672
-0.29848
4.54455
8.81815
10.9669
10.4643
6.38202
-0.476925
-9.21493
-18.8014
-27.7993
-34.9304
-39.4997
-41.8854
-42.8258
-43.1668
-43.4578
-43.8624
-44.6696
-46.7532
-51.0367
-58.2092
-69.0976
-85.0216
-106.515
-132.34
-161.728
-191.005
-215.175
-232.757
-247.366
-252.608
-209.809
-77.2412
106.268
237.159
287.417
306.534
312.361
311.926
308.669
305.001
301.307
298.693
296.219
295.15
294.243
-3.13934
-4.48817
-4.02984
-4.08163
-4.6286
-5.46729
-6.63123
-8.33708
-10.0648
-11.1022
-11.2447
-10.3079
-8.14598
-4.7443
-0.196675
5.02863
9.63261
11.7185
11.4811
7.19532
0.0079899
-9.21606
-19.3559
-28.798
-36.1808
-41.0383
-43.1843
-43.8918
-44.063
-44.3971
-45.0855
-46.2344
-48.3615
-52.4041
-59.3149
-70.0091
-85.9191
-107.501
-133.866
-163.414
-192.631
-217.824
-236.995
-257.331
-268.764
-224.34
-79.6889
118.829
257.369
300.513
316.24
319.229
316.826
312.232
307.62
303.26
300.189
297.418
296.174
295.176
-1.14384
-4.69622
-4.65891
-4.96239
-5.55856
-6.38237
-7.47227
-9.06762
-10.7012
-11.5973
-11.5715
-10.5125
-8.25133
-4.81712
-0.32428
4.82379
9.37893
11.5758
11.4791
7.28221
0.0101908
-9.39042
-19.7473
-29.3658
-36.6457
-41.0211
-43.2637
-43.9736
-44.0415
-44.2694
-44.9788
-46.2326
-48.4844
-52.6449
-59.59
-70.1507
-86.038
-107.641
-133.631
-162.174
-189.766
-213.182
-232.567
-258.1
-270.519
-231.134
-80.0748
126.354
271.227
309.618
322.94
323.934
320.178
314.651
309.411
304.593
301.212
298.24
296.879
295.819
-2.50865
-5.20951
-4.9769
-5.24588
-5.87312
-6.87359
-8.00694
-9.54498
-11.0634
-11.8018
-11.5791
-10.3583
-7.97131
-4.64306
-0.313268
4.62795
9.02747
11.4871
11.1885
7.22172
0.101495
-9.28506
-19.741
-29.5577
-37.0265
-41.5206
-43.5743
-44.178
-44.4009
-44.6596
-45.2799
-46.43
-48.5602
-52.6608
-59.6173
-70.2139
-85.7891
-106.816
-132.731
-161.233
-191.718
-222.996
-248.655
-272.604
-279.76
-242.215
-85.9983
130.444
280.831
314.62
326.364
326.294
321.852
315.859
310.311
305.265
301.732
298.661
297.241
296.151
-1.05615
-4.73774
-5.08167
-5.63235
-6.66988
-7.52279
-8.54364
-9.94253
-11.3424
-11.9896
-11.6324
-10.2735
-7.83953
-4.54933
-0.474486
4.14134
8.39176
10.8581
10.4469
6.56232
-0.590175
-10.1319
-20.7343
-30.5168
-37.8623
-42.0243
-44.0889
-44.6968
-44.7668
-44.9093
-45.4186
-46.4449
-48.5486
-52.7392
-59.8227
-70.3639
-85.7076
-106.592
-131.83
-159.396
-189.235
-215.16
-232.852
-255.442
-268.78
-232.806
-90.7677
124.425
277.277
312.789
325.571
325.934
321.673
315.771
310.269
305.249
301.729
298.665
297.247
296.158
-1.8406
-4.66151
-5.19885
-5.84654
-6.81536
-7.68319
-8.64396
-9.8969
-11.1729
-11.7687
-11.3892
-9.95168
-7.56561
-4.42814
-0.674534
3.5949
7.57999
10.0559
9.81086
6.17747
-0.664217
-9.91167
-20.2283
-29.8823
-37.1843
-41.5621
-43.6046
-44.3202
-44.5614
-44.7154
-45.1474
-45.9805
-47.8036
-51.8083
-58.8725
-69.7816
-85.6593
-107.113
-133.462
-163.168