/*--------------------------------*- C++ -*----------------------------------*\
| =========                 |                                                 |
| \\      /  F ield         | OpenFOAM: The Open Source CFD Toolbox           |
|  \\    /   O peration     | Version:  2.1.1                                 |
|   \\  /    A nd           | Web:      www.OpenFOAM.org                      |
|    \\/     M anipulation  |                                                 |
\*---------------------------------------------------------------------------*/
FoamFile
{
    version     2.0;
    format      ascii;
    class       surfaceScalarField;
    location    "0.00105";
    object      phi;
}
// * * * * * * * * * * * * * * * * * * * * * * * * * * * * * * * * * * * * * //

dimensions      [0 3 -1 0 0 0 0];

internalField   nonuniform List<scalar> 
105695
(
-4.78184e-08
-8.05338e-08
-7.96423e-08
2.07994e-07
-9.07925e-08
6.76588e-09
-1.36599e-08
4.98681e-08
-1.37168e-07
2.30478e-08
-4.1351e-09
2.74626e-08
-1.62165e-07
2.14745e-08
2.63464e-08
-2.28237e-08
-1.84479e-07
1.99597e-08
3.84622e-08
-3.61078e-08
-1.98584e-07
1.65216e-08
4.95201e-08
-5.19372e-08
-2.12971e-07
1.64692e-08
5.35387e-08
-5.5621e-08
-2.25033e-07
1.5274e-08
5.73926e-08
-6.06045e-08
-2.35986e-07
1.39845e-08
5.49753e-08
-5.80064e-08
-2.44929e-07
1.17254e-08
5.37264e-08
-5.6509e-08
-2.51107e-07
8.96514e-09
4.79441e-08
-5.07312e-08
-2.54986e-07
6.39281e-09
4.5053e-08
-4.75667e-08
-2.56956e-07
4.26025e-09
4.18834e-08
-4.41735e-08
-2.58091e-07
3.56377e-09
4.15189e-08
-4.39473e-08
-2.58794e-07
3.93556e-09
4.26352e-08
-4.58683e-08
-2.60593e-07
5.74388e-09
4.71078e-08
-5.10525e-08
-2.64018e-07
8.61708e-09
5.36265e-08
-5.8819e-08
-2.7021e-07
1.23108e-08
6.24892e-08
-6.86079e-08
-2.79565e-07
1.65385e-08
7.20476e-08
-7.92313e-08
-2.92284e-07
2.06956e-08
8.09847e-08
-8.89605e-08
-3.07587e-07
2.40181e-08
8.72937e-08
-9.60089e-08
-3.24551e-07
2.62217e-08
8.97986e-08
-9.90561e-08
-3.41553e-07
2.66776e-08
8.74888e-08
-9.71651e-08
-3.5715e-07
2.51981e-08
8.14868e-08
-9.10871e-08
-3.70565e-07
2.26267e-08
7.3321e-08
-8.25327e-08
-3.81718e-07
1.9949e-08
6.43229e-08
-7.31191e-08
-3.90883e-07
1.74927e-08
5.57311e-08
-6.40589e-08
-3.98298e-07
1.50782e-08
4.83507e-08
-5.6014e-08
-4.04322e-07
1.30315e-08
4.28409e-08
-4.98488e-08
-4.09336e-07
1.14661e-08
3.96462e-08
-4.60977e-08
-4.13629e-07
1.04849e-08
3.91612e-08
-4.53534e-08
-4.17749e-07
1.04642e-08
4.18077e-08
-4.81514e-08
-4.22768e-07
1.24941e-08
4.74312e-08
-5.49067e-08
-4.30112e-07
1.73269e-08
5.58448e-08
-6.58274e-08
-4.41453e-07
2.55469e-08
6.54543e-08
-7.96602e-08
-4.59034e-07
3.76892e-08
7.52837e-08
-9.53917e-08
-4.85246e-07
5.34702e-08
8.28184e-08
-1.10077e-07
-5.2223e-07
7.22745e-08
8.59097e-08
-1.212e-07
-5.71603e-07
9.25561e-08
8.21738e-08
-1.25357e-07
-6.33027e-07
1.11082e-07
6.77613e-08
-1.1742e-07
-7.04196e-07
1.24214e-07
3.73565e-08
-9.04011e-08
-7.7947e-07
1.24132e-07
-1.59388e-08
-3.29193e-08
-8.36329e-07
9.25888e-08
-9.24557e-08
5.67258e-08
-8.60866e-07
3.83202e-08
-1.91196e-07
1.77412e-07
-8.43057e-07
-3.08418e-08
-3.17711e-07
3.30744e-07
-7.5586e-07
-1.25471e-07
-4.75492e-07
5.13766e-07
-5.79743e-07
-2.34103e-07
-6.3938e-07
6.97366e-07
-3.45989e-07
-2.94704e-07
-6.97427e-07
7.58377e-07
-1.87818e-07
-2.26655e-07
-6.1433e-07
6.82814e-07
-9.07917e-08
-1.62608e-07
-5.01361e-07
5.66942e-07
-3.88388e-08
-1.09542e-07
-3.88737e-07
4.46326e-07
-1.12093e-08
-7.38378e-08
-2.96907e-07
3.43115e-07
1.14697e-09
-4.94725e-08
-2.23045e-07
2.60161e-07
7.1207e-09
-3.4056e-08
-1.6962e-07
1.97703e-07
8.2388e-09
-2.32875e-08
-1.26301e-07
1.4847e-07
7.72179e-09
-1.65886e-08
-9.8162e-08
1.15268e-07
6.02696e-09
-1.19639e-08
-7.44867e-08
8.81455e-08
4.12626e-09
-9.1274e-09
-6.16067e-08
7.26348e-08
2.11764e-09
-7.50789e-09
-5.11868e-08
6.07033e-08
-6.53495e-09
-4.71033e-08
5.57559e-08
-1.56534e-07
-5.12098e-08
-6.24748e-08
1.89684e-07
-2.11307e-07
3.01373e-08
1.55658e-08
1.58365e-08
-2.49071e-07
4.47383e-08
1.02549e-08
5.81841e-09
-2.72319e-07
4.2912e-08
4.15946e-08
-3.97835e-08
-2.92196e-07
3.90092e-08
4.29345e-08
-4.21075e-08
-3.05912e-07
3.40646e-08
5.46428e-08
-5.84692e-08
-3.19905e-07
3.30518e-08
5.37109e-08
-5.63015e-08
-3.31538e-07
3.14532e-08
5.61503e-08
-6.06962e-08
-3.42434e-07
2.81168e-08
5.18285e-08
-5.50653e-08
-3.51241e-07
2.39318e-08
4.86194e-08
-5.20185e-08
-3.5733e-07
1.79564e-08
4.1072e-08
-4.39743e-08
-3.6116e-07
1.26841e-08
3.68784e-08
-3.9339e-08
-3.63062e-07
8.26663e-09
3.21665e-08
-3.42712e-08
-3.63558e-07
6.02717e-09
3.03307e-08
-3.22985e-08
-3.63749e-07
7.0637e-09
3.06751e-08
-3.36122e-08
-3.65246e-07
1.06454e-08
3.35332e-08
-3.69372e-08
-3.6828e-07
1.67221e-08
3.91461e-08
-4.42174e-08
-3.74085e-07
2.40934e-08
4.61718e-08
-5.21497e-08
-3.8296e-07
3.28617e-08
5.46325e-08
-6.20805e-08
-3.9523e-07
4.13491e-08
6.17313e-08
-7.01144e-08
-4.09967e-07
4.81847e-08
6.67258e-08
-7.61561e-08
-4.26255e-07
5.26182e-08
6.75206e-08
-7.76283e-08
-4.42347e-07
5.33956e-08
6.39662e-08
-7.45927e-08
-4.56705e-07
4.99078e-08
5.67208e-08
-6.70719e-08
-4.68437e-07
4.39726e-08
4.77316e-08
-5.73462e-08
-4.77639e-07
3.77602e-08
3.79648e-08
-4.65739e-08
-4.84832e-07
3.25034e-08
2.9012e-08
-3.68297e-08
-4.90208e-07
2.71359e-08
2.15369e-08
-2.82186e-08
-4.94006e-07
2.25725e-08
1.58187e-08
-2.15613e-08
-4.96706e-07
1.90849e-08
1.24768e-08
-1.73962e-08
-4.98575e-07
1.66804e-08
1.19013e-08
-1.62276e-08
-5.0017e-07
1.6005e-08
1.43152e-08
-1.82603e-08
-5.02619e-07
1.9205e-08
1.9663e-08
-2.39255e-08
-5.07389e-07
2.7639e-08
2.77012e-08
-3.3243e-08
-5.16206e-07
4.27873e-08
3.69925e-08
-4.54158e-08
-5.31272e-07
6.57108e-08
4.68858e-08
-5.98416e-08
-5.54705e-07
9.61715e-08
5.43841e-08
-7.36525e-08
-5.88097e-07
1.32602e-07
5.77287e-08
-8.4664e-08
-6.33186e-07
1.72362e-07
5.46522e-08
-8.9369e-08
-6.89897e-07
2.09489e-07
4.11483e-08
-8.28443e-08
-7.57012e-07
2.36924e-07
1.30353e-08
-5.86306e-08
-8.29024e-07
2.37245e-07
-3.8834e-08
-2.26662e-09
-8.85074e-07
1.78225e-07
-1.17228e-07
8.76418e-08
-9.07461e-07
6.46068e-08
-2.2073e-07
2.1683e-07
-8.90992e-07
-7.34048e-08
-3.52091e-07
3.78185e-07
-8.02636e-07
-2.70146e-07
-5.25449e-07
5.81768e-07
-5.99018e-07
-5.13555e-07
-7.10551e-07
7.86385e-07
-3.42737e-07
-6.25177e-07
-7.76865e-07
8.51057e-07
-1.78118e-07
-4.71752e-07
-6.64514e-07
7.44991e-07
-8.20149e-08
-3.34077e-07
-5.34019e-07
6.09385e-07
-3.23274e-08
-2.23488e-07
-4.09612e-07
4.73871e-07
-6.64119e-09
-1.50072e-07
-3.11338e-07
3.61886e-07
4.52851e-09
-1.00466e-07
-2.32933e-07
2.72757e-07
9.36082e-09
-6.90494e-08
-1.76653e-07
2.06814e-07
9.64866e-09
-4.70745e-08
-1.3121e-07
1.54709e-07
8.76009e-09
-3.38044e-08
-1.01826e-07
1.1993e-07
6.56924e-09
-2.41206e-08
-7.70903e-08
9.14379e-08
4.58424e-09
-1.87214e-08
-6.36952e-08
7.52742e-08
2.19121e-09
-1.50801e-08
-5.28245e-08
6.27897e-08
-1.3382e-08
-4.85557e-08
5.7594e-08
-1.95283e-07
3.76934e-09
-3.73978e-08
1.77702e-07
-2.54449e-07
6.2827e-08
1.80811e-08
8.39437e-09
-2.94113e-07
7.16854e-08
1.56594e-08
-2.94221e-09
-3.15988e-07
6.58428e-08
4.18127e-08
-4.28689e-08
-3.33525e-07
6.0013e-08
4.01264e-08
-4.35927e-08
-3.4666e-07
5.41198e-08
5.40471e-08
-6.09676e-08
-3.603e-07
5.36098e-08
4.95256e-08
-5.64433e-08
-3.72202e-07
5.11401e-08
5.43418e-08
-6.21269e-08
-3.83542e-07
4.63928e-08
4.8607e-08
-5.55425e-08
-3.92884e-07
3.99556e-08
4.5258e-08
-5.19402e-08
-3.99034e-07
2.99285e-08
3.73652e-08
-4.31869e-08
-4.02583e-07
2.14235e-08
3.25196e-08
-3.77097e-08
-4.04179e-07
1.3928e-08
2.82605e-08
-3.23261e-08
-4.03954e-07
9.4107e-09
2.64501e-08
-3.00589e-08
-4.0337e-07
1.05476e-08
2.79841e-08
-3.20514e-08
-4.04224e-07
1.61458e-08
3.13916e-08
-3.60381e-08
-4.06733e-07
2.57053e-08
3.82116e-08
-4.4686e-08
-4.12061e-07
3.72727e-08
4.59183e-08
-5.37694e-08
-4.2057e-07
5.12396e-08
5.54036e-08
-6.52725e-08
-4.32662e-07
6.47055e-08
6.32984e-08
-7.45634e-08
-4.47351e-07
7.53249e-08
6.924e-08
-8.16906e-08
-4.63728e-07
8.23477e-08
7.04346e-08
-8.37875e-08
-4.79902e-07
8.35071e-08
6.69814e-08
-8.09184e-08
-4.94234e-07
7.74889e-08
5.96957e-08
-7.29454e-08
-5.05673e-07
6.71597e-08
5.10039e-08
-6.2752e-08
-5.14468e-07
5.65535e-08
4.16939e-08
-5.16925e-08
-5.2117e-07
4.74387e-08
3.31847e-08
-4.14179e-08
-5.26121e-07
3.79994e-08
2.6153e-08
-3.20648e-08
-5.29437e-07
2.98724e-08
2.08479e-08
-2.48325e-08
-5.31504e-07
2.34344e-08
1.80943e-08
-2.03765e-08
-5.32754e-07
1.89889e-08
1.77888e-08
-1.88472e-08
-5.33621e-07
1.69583e-08
2.05876e-08
-2.06737e-08
-5.35061e-07
2.06874e-08
2.65311e-08
-2.65734e-08
-5.38402e-07
3.25919e-08
3.54029e-08
-3.70151e-08
-5.45513e-07
5.53528e-08
4.59177e-08
-5.13718e-08
-5.58354e-07
9.04946e-08
5.73911e-08
-6.93343e-08
-5.79101e-07
1.37786e-07
6.71819e-08
-8.80494e-08
-6.0927e-07
1.94058e-07
7.43931e-08
-1.0568e-07
-6.50148e-07
2.54949e-07
7.73217e-08
-1.19031e-07
-7.00551e-07
3.12016e-07
7.13713e-08
-1.23495e-07
-7.60079e-07
3.54683e-07
5.5636e-08
-1.13866e-07
-8.28408e-07
3.57361e-07
2.04248e-08
-7.22126e-08
-8.84845e-07
2.60734e-07
-5.08513e-08
2.47794e-08
-9.121e-07
8.50669e-08
-1.5636e-07
1.63156e-07
-9.15888e-07
-1.12157e-07
-3.02042e-07
3.44582e-07
-8.62991e-07
-3.96136e-07
-5.07186e-07
5.80279e-07
-6.62568e-07
-8.05967e-07
-7.56838e-07
8.48828e-07
-3.50711e-07
-1.02916e-06
-8.609e-07
9.53027e-07
-1.62378e-07
-7.59742e-07
-7.05007e-07
8.04664e-07
-6.75746e-08
-5.21176e-07
-5.50894e-07
6.4319e-07
-2.14905e-08
-3.44376e-07
-4.16344e-07
4.91148e-07
1.0059e-09
-2.29254e-07
-3.14566e-07
3.71252e-07
1.00006e-08
-1.52757e-07
-2.34269e-07
2.77565e-07
1.2993e-08
-1.04427e-07
-1.77237e-07
2.09622e-07
1.21072e-08
-7.08039e-08
-1.3146e-07
1.56075e-07
1.0388e-08
-5.08612e-08
-1.02062e-07
1.20838e-07
7.63018e-09
-3.60469e-08
-7.73156e-08
9.19997e-08
5.22644e-09
-2.81171e-08
-6.39154e-08
7.57149e-08
2.48295e-09
-2.24528e-08
-5.30839e-08
6.32001e-08
-2.00554e-08
-4.88059e-08
5.79622e-08
-2.24645e-07
8.62716e-08
-3.36821e-08
1.75825e-07
-2.87898e-07
1.03141e-07
2.15999e-08
1.33884e-09
-3.3154e-07
1.05118e-07
2.20384e-08
-1.18291e-08
-3.53653e-07
9.17998e-08
4.54803e-08
-4.93243e-08
-3.71631e-07
8.57879e-08
4.29902e-08
-5.07869e-08
-3.85292e-07
7.8436e-08
5.65208e-08
-6.71755e-08
-3.99852e-07
8.01007e-08
5.28068e-08
-6.47379e-08
-4.13107e-07
7.56612e-08
5.75014e-08
-6.87681e-08
-4.25845e-07
7.00242e-08
5.21557e-08
-6.30483e-08
-4.36358e-07
6.01765e-08
4.77637e-08
-5.74722e-08
-4.43012e-07
4.48011e-08
3.90592e-08
-4.72773e-08
-4.45994e-07
3.14297e-08
3.30587e-08
-4.00829e-08
-4.46596e-07
1.97878e-08
2.85357e-08
-3.37935e-08
-4.45002e-07
1.15498e-08
2.68238e-08
-3.05569e-08
-4.42873e-07
1.16385e-08
2.95627e-08
-3.27823e-08
-4.42361e-07
2.0257e-08
3.34013e-08
-3.80253e-08
-4.43792e-07
3.41527e-08
4.15801e-08
-4.85957e-08
-4.48228e-07
5.15554e-08
4.99245e-08
-5.97716e-08
-4.56187e-07
7.21754e-08
6.04437e-08
-7.34202e-08
-4.68242e-07
9.22241e-08
6.94426e-08
-8.49069e-08
-4.83239e-07
1.07416e-07
7.67065e-08
-9.38002e-08
-5.00163e-07
1.17784e-07
7.89996e-08
-9.75115e-08
-5.17058e-07
1.19983e-07
7.59655e-08
-9.55465e-08
-5.31689e-07
1.10952e-07
6.8536e-08
-8.73677e-08
-5.42439e-07
9.44064e-08
5.97451e-08
-7.62425e-08
-5.49537e-07
7.70014e-08
5.11382e-08
-6.44873e-08
-5.54346e-07
6.27336e-08
4.36722e-08
-5.41582e-08
-5.57762e-07
4.77588e-08
3.82627e-08
-4.46065e-08
-5.60071e-07
3.34243e-08
3.50077e-08
-3.62507e-08
-5.60967e-07
2.19803e-08
3.34068e-08
-3.10569e-08
-5.60423e-07
1.28541e-08
3.42668e-08
-2.86753e-08
-5.59062e-07
6.81905e-09
3.87757e-08
-2.99979e-08
-5.57722e-07
8.42497e-09
4.71077e-08
-3.61853e-08
-5.57396e-07
2.13535e-08
5.90947e-08
-4.81826e-08
-5.59969e-07
5.01951e-08
7.39433e-08
-6.62118e-08
-5.66679e-07
9.64285e-08
9.12582e-08
-9.04829e-08
-5.79586e-07
1.61402e-07
1.07302e-07
-1.18011e-07
-5.99553e-07
2.39869e-07
1.20897e-07
-1.46741e-07
-6.26585e-07
3.2235e-07
1.33607e-07
-1.73975e-07
-6.55321e-07
3.93892e-07
1.41743e-07
-1.94884e-07
-6.82841e-07
4.40738e-07
1.41448e-07
-1.99983e-07
-7.1561e-07
4.37244e-07
1.23501e-07
-1.70614e-07
-7.39613e-07
3.01929e-07
4.36802e-08
-6.08726e-08
-7.62203e-07
8.95714e-08
-8.05489e-08
9.86351e-08
-8.0582e-07
-1.39689e-07
-2.19138e-07
2.90287e-07
-8.47561e-07
-4.78192e-07
-4.30605e-07
5.54403e-07
-7.25214e-07
-1.07202e-06
-7.67193e-07
9.10894e-07
-3.71807e-07
-1.48772e-06
-1.00764e-06
1.1128e-06
-1.34112e-07
-1.10844e-06
-7.88159e-07
8.99158e-07
-4.32379e-08
-7.19247e-07
-5.84498e-07
6.91695e-07
-3.6399e-09
-4.67576e-07
-4.32245e-07
5.15847e-07
1.47706e-08
-3.08568e-07
-3.23154e-07
3.84057e-07
1.91782e-08
-2.028e-07
-2.38374e-07
2.84009e-07
1.91152e-08
-1.37787e-07
-1.79627e-07
2.1305e-07
1.62584e-08
-9.26694e-08
-1.32741e-07
1.57463e-07
1.3143e-08
-6.63527e-08
-1.02927e-07
1.21534e-07
9.42691e-09
-4.67109e-08
-7.78713e-08
9.22514e-08
6.28725e-09
-3.63648e-08
-6.42886e-08
7.5676e-08
2.9917e-09
-2.88697e-08
-5.33755e-08
6.30879e-08
-2.58043e-08
-4.90515e-08
5.77921e-08
-2.56356e-07
1.86585e-07
1.34723e-08
1.42571e-07
-3.29531e-07
1.55617e-07
3.47312e-08
-1.4032e-08
-3.7815e-07
1.531e-07
2.25959e-08
-2.19585e-08
-4.02406e-07
1.26167e-07
4.44175e-08
-5.45289e-08
-4.197e-07
1.20215e-07
4.31896e-08
-6.03227e-08
-4.33594e-07
1.10508e-07
5.6552e-08
-7.473e-08
-4.48221e-07
1.15525e-07
5.35834e-08
-7.43801e-08
-4.62387e-07
1.09315e-07
5.80588e-08
-7.75461e-08
-4.76022e-07
1.02421e-07
5.28473e-08
-7.16089e-08
-4.8709e-07
8.87195e-08
4.75502e-08
-6.50257e-08
-4.93774e-07
6.65468e-08
3.82926e-08
-5.33541e-08
-4.94903e-07
4.56526e-08
3.06487e-08
-4.37426e-08
-4.93306e-07
2.88194e-08
2.64863e-08
-3.71149e-08
-4.89276e-07
1.64765e-08
2.45145e-08
-3.34708e-08
-4.84348e-07
1.50366e-08
2.84362e-08
-3.67629e-08
-4.81106e-07
2.66925e-08
3.52371e-08
-4.49145e-08
-4.79882e-07
4.37301e-08
4.7069e-08
-5.78699e-08
-4.81599e-07
6.60279e-08
5.9039e-08
-7.17948e-08
-4.86703e-07
9.23363e-08
7.32521e-08
-8.83091e-08
-4.95962e-07
1.18706e-07
8.60113e-08
-1.03235e-07
-5.07622e-07
1.37366e-07
9.63856e-08
-1.14674e-07
-5.20202e-07
1.49129e-07
1.01508e-07
-1.20274e-07
-5.31902e-07
1.5093e-07
9.98474e-08
-1.19094e-07
-5.40125e-07
1.36236e-07
9.31774e-08
-1.10239e-07
-5.42972e-07
1.09214e-07
8.55132e-08
-9.74739e-08
-5.40788e-07
7.98893e-08
7.88314e-08
-8.39035e-08
-5.36367e-07
5.72799e-08
7.32369e-08
-7.22037e-08
-5.31572e-07
3.42634e-08
6.99282e-08
-6.1228e-08
-5.27066e-07
1.10309e-08
6.90202e-08
-5.11326e-08
-5.23929e-07
-7.49655e-09
6.94376e-08
-4.30984e-08
-5.21778e-07
-2.25937e-08
7.23017e-08
-3.90042e-08
-5.19809e-07
-3.51053e-08
7.92864e-08
-3.9331e-08
-5.16597e-07
-4.02012e-08
9.08855e-08
-4.54717e-08
-5.12674e-07
-3.11981e-08
1.08001e-07
-5.93719e-08
-5.09625e-07
-1.16467e-09
1.30384e-07
-8.20734e-08
-5.06543e-07
4.89176e-08
1.58622e-07
-1.14194e-07
-5.04233e-07
1.25143e-07
1.86878e-07
-1.52928e-07
-4.99654e-07
2.19883e-07
2.10015e-07
-1.94609e-07
-4.87097e-07
3.15806e-07
2.30644e-07
-2.36657e-07
-4.52438e-07
3.8877e-07
2.41661e-07
-2.71198e-07
-3.89058e-07
4.29924e-07
2.36519e-07
-2.89084e-07
-3.14247e-07
4.18363e-07
2.15164e-07
-2.71094e-07
-2.44634e-07
2.72757e-07
1.13154e-07
-1.53595e-07
-2.2899e-07
6.7757e-08
-2.12289e-08
2.73994e-08
-3.0591e-07
-1.22775e-07
-1.47491e-07
2.07496e-07
-5.01869e-07
-4.37751e-07
-3.17976e-07
4.73494e-07
-6.23484e-07
-1.16832e-06
-6.96746e-07
9.14667e-07
-3.93454e-07
-1.85455e-06
-1.13406e-06
1.27086e-06
-8.44542e-08
-1.52211e-06
-9.25255e-07
1.02992e-06
-3.50091e-09
-9.13726e-07
-6.37097e-07
7.50623e-07
2.82642e-08
-5.85291e-07
-4.60072e-07
5.46022e-07
3.5647e-08
-3.78688e-07
-3.3729e-07
4.00027e-07
3.31456e-08
-2.46082e-07
-2.46164e-07
2.91947e-07
2.84008e-08
-1.65945e-07
-1.84423e-07
2.17326e-07
2.25012e-08
-1.10684e-07
-1.35698e-07
1.59612e-07
1.72751e-08
-7.87986e-08
-1.04969e-07
1.22641e-07
1.21171e-08
-5.51077e-08
-7.93474e-08
9.29022e-08
7.88627e-09
-4.27072e-08
-6.54209e-08
7.59941e-08
3.74399e-09
-3.37188e-08
-5.43117e-08
6.3303e-08
-3.01165e-08
-4.98899e-08
5.79461e-08
-3.2735e-07
3.4614e-07
5.12554e-08
1.1654e-07
-3.9216e-07
2.09792e-07
3.27581e-08
-2.2124e-08
-4.37374e-07
2.05378e-07
2.90372e-08
-3.61019e-08
-4.58648e-07
1.61141e-07
5.58346e-08
-6.95352e-08
-4.75309e-07
1.55734e-07
5.69389e-08
-7.57966e-08
-4.88562e-07
1.43558e-07
7.05863e-08
-9.03837e-08
-5.03011e-07
1.53757e-07
6.82466e-08
-9.20298e-08
-5.17952e-07
1.4617e-07
7.18634e-08
-9.37776e-08
-5.32029e-07
1.37897e-07
6.76242e-08
-8.90246e-08
-5.42432e-07
1.17799e-07
6.02705e-08
-7.89463e-08
-5.47524e-07
8.70733e-08
4.95632e-08
-6.49975e-08
-5.45167e-07
5.6221e-08
3.79183e-08
-5.08435e-08
-5.3873e-07
3.37098e-08
3.26474e-08
-4.39754e-08
-5.29189e-07
1.37199e-08
3.39033e-08
-4.06871e-08
-5.17859e-07
5.46798e-09
4.29426e-08
-4.47039e-08
-5.07932e-07
1.5779e-08
5.60756e-08
-5.50896e-08
-4.98683e-07
3.41035e-08
7.12111e-08
-7.08335e-08
-4.90559e-07
6.19874e-08
8.45089e-08
-8.85921e-08
-4.83833e-07
9.51777e-08
9.93831e-08
-1.0895e-07
-4.78834e-07
1.28874e-07
1.12287e-07
-1.27456e-07
-4.72045e-07
1.49573e-07
1.22748e-07
-1.41744e-07
-4.60299e-07
1.60376e-07
1.26034e-07
-1.49026e-07
-4.4285e-07
1.6034e-07
1.21e-07
-1.4786e-07
-4.18995e-07
1.37983e-07
1.10926e-07
-1.36527e-07
-3.88102e-07
9.59026e-08
1.01419e-07
-1.19001e-07
-3.51775e-07
5.16133e-08
9.26876e-08
-1.00738e-07
-3.13244e-07
2.01022e-08
8.39502e-08
-8.53037e-08
-2.79822e-07
-7.27069e-09
7.75475e-08
-6.94352e-08
-2.55471e-07
-3.43262e-08
7.52366e-08
-5.42305e-08
-2.39877e-07
-5.6913e-08
7.60246e-08
-4.22019e-08
-2.30616e-07
-7.65583e-08
7.63271e-08
-3.1624e-08
-2.24108e-07
-9.50319e-08
7.80027e-08
-2.45838e-08
-2.18338e-07
-1.03795e-07
8.23264e-08
-2.45031e-08
-2.12297e-07
-9.51559e-08
9.31196e-08
-3.52028e-08
-2.04215e-07
-6.64304e-08
1.15466e-07
-5.82824e-08
-1.9006e-07
-1.86415e-08
1.4882e-07
-9.54156e-08
-1.59599e-07
4.94613e-08
1.86318e-07
-1.41098e-07
-1.04514e-07
1.33628e-07
2.19498e-07
-1.88329e-07
-2.2315e-08
2.24954e-07
2.40101e-07
-2.31448e-07
8.55292e-08
3.03548e-07
2.39274e-07
-2.61897e-07
2.30455e-07
3.46071e-07
2.1446e-07
-2.75533e-07
3.86059e-07
3.31821e-07
1.84106e-07
-2.53167e-07
5.14363e-07
1.86846e-07
9.0422e-08
-1.32815e-07
5.61559e-07
9.55372e-09
-2.11853e-08
3.21919e-08
5.09664e-07
-1.50842e-07
-1.03937e-07
1.83899e-07
3.28125e-07
-4.25789e-07
-2.33358e-07
4.02936e-07
-6.03497e-08
-1.04112e-06
-5.72719e-07
8.33992e-07
-2.52172e-07
-1.89991e-06
-1.10487e-06
1.34205e-06
-1.11726e-08
-1.89646e-06
-1.06221e-06
1.19557e-06
7.05232e-08
-1.0987e-06
-7.12601e-07
8.15883e-07
7.5218e-08
-6.74094e-07
-4.95924e-07
5.80032e-07
6.60728e-08
-4.29425e-07
-3.57462e-07
4.17345e-07
5.31543e-08
-2.75955e-07
-2.57948e-07
3.00739e-07
4.16034e-08
-1.84427e-07
-1.91882e-07
2.21914e-07
3.12827e-08
-1.21907e-07
-1.40394e-07
1.61938e-07
2.30427e-08
-8.60743e-08
-1.08228e-07
1.23744e-07
1.58405e-08
-5.97221e-08
-8.16292e-08
9.34459e-08
1.00922e-08
-4.59653e-08
-6.71712e-08
7.61777e-08
4.78236e-09
-3.60563e-08
-5.57094e-08
6.33567e-08
-3.21428e-08
-5.11487e-08
5.79574e-08
-3.98002e-07
5.27078e-07
2.85518e-07
-6.84548e-08
-4.66575e-07
2.61846e-07
7.61299e-08
-5.96103e-08
-5.07729e-07
2.76705e-07
3.16258e-08
-6.17985e-08
-5.25142e-07
2.09451e-07
5.02519e-08
-8.11484e-08
-5.3599e-07
2.01911e-07
5.32906e-08
-8.8619e-08
-5.44989e-07
1.89116e-07
6.34056e-08
-9.9964e-08
-5.55781e-07
2.0451e-07
6.61622e-08
-1.06123e-07
-5.66822e-07
1.91485e-07
7.56606e-08
-1.09934e-07
-5.75765e-07
1.78281e-07
7.55949e-08
-1.07037e-07
-5.79486e-07
1.46956e-07
7.24587e-08
-9.78946e-08
-5.74108e-07
9.97036e-08
6.54006e-08
-8.34092e-08
-5.58913e-07
5.06253e-08
5.65694e-08
-6.61685e-08
-5.38326e-07
1.72087e-08
5.19007e-08
-5.59872e-08
-5.14123e-07
-1.58517e-08
5.46083e-08
-4.92391e-08
-4.87686e-07
-3.53926e-08
6.64184e-08
-5.19948e-08
-4.60705e-07
-2.7428e-08
7.99622e-08
-6.37365e-08
-4.32345e-07
-7.54813e-09
9.47662e-08
-8.14749e-08
-4.00463e-07
2.09092e-08
1.13206e-07
-1.0401e-07
-3.6356e-07
5.68122e-08
1.30795e-07
-1.29332e-07
-3.19389e-07
9.30787e-08
1.45326e-07
-1.53702e-07
-2.67056e-07
1.09411e-07
1.5894e-07
-1.7111e-07
-2.06177e-07
1.14459e-07
1.67424e-07
-1.82387e-07
-1.34054e-07
1.10688e-07
1.59691e-07
-1.82161e-07
-5.19362e-08
8.64561e-08
1.35026e-07
-1.65617e-07
3.52567e-08
4.08157e-08
1.06334e-07
-1.3844e-07
1.16311e-07
-5.62213e-09
8.97782e-08
-1.13597e-07
1.94258e-07
-4.09873e-08
8.08298e-08
-9.76876e-08
2.65263e-07
-6.69995e-08
7.14882e-08
-8.27647e-08
3.22502e-07
-9.10522e-08
6.69859e-08
-6.74992e-08
3.62003e-07
-1.11926e-07
6.88392e-08
-5.33268e-08
3.83643e-07
-1.33063e-07
7.44245e-08
-3.95602e-08
3.90438e-07
-1.59734e-07
8.43077e-08
-2.64007e-08
3.88657e-07
-1.78289e-07
9.65651e-08
-2.02902e-08
3.88696e-07
-1.80787e-07
1.10445e-07
-2.48542e-08
4.03106e-07
-1.693e-07
1.29633e-07
-4.11721e-08
4.39926e-07
-1.36422e-07
1.51108e-07
-7.01477e-08
5.06077e-07
-7.99929e-08
1.71937e-07
-1.08634e-07
6.00887e-07
7.39112e-09
1.83034e-07
-1.51607e-07
7.147e-07
1.33454e-07
1.77463e-07
-1.99775e-07
8.62639e-07
2.28409e-07
1.63433e-07
-2.36232e-07
1.05294e-06
2.53266e-07
1.53901e-07
-2.51402e-07
1.24525e-06
2.14274e-07
1.57557e-07
-2.32314e-07
1.41845e-06
6.50933e-08
8.1678e-08
-1.33131e-07
1.51821e-06
-7.01847e-08
-1.49876e-08
-5.03491e-09
1.54042e-06
-2.2632e-07
-7.8478e-08
1.31752e-07
1.43599e-06
-4.49867e-07
-1.83332e-07
3.11843e-07
9.84007e-07
-8.31574e-07
-4.13374e-07
6.55806e-07
3.68094e-07
-1.58646e-06
-8.80151e-07
1.18262e-06
1.93878e-07
-1.93939e-06
-1.13606e-06
1.35321e-06
1.83921e-07
-1.17746e-06
-7.99985e-07
8.88695e-07
1.44875e-07
-7.03247e-07
-5.45434e-07
6.13633e-07
1.1054e-07
-4.41501e-07
-3.88293e-07
4.34704e-07
8.23452e-08
-2.79831e-07
-2.77533e-07
3.09603e-07
6.08983e-08
-1.84553e-07
-2.05073e-07
2.26646e-07
4.41403e-08
-1.20381e-07
-1.4928e-07
1.64511e-07
3.15172e-08
-8.38628e-08
-1.1467e-07
1.25081e-07
2.1307e-08
-5.74199e-08
-8.62995e-08
9.42074e-08
1.33583e-08
-4.36905e-08
-7.09062e-08
7.65801e-08
6.3247e-09
-3.3891e-08
-5.87363e-08
6.36046e-08
-3.0073e-08
-5.38827e-08
5.81376e-08
-5.99434e-07
8.19993e-07
3.09994e-07
-3.47501e-09
-5.71338e-07
2.87431e-07
-1.6376e-08
-3.73053e-08
-5.5798e-07
3.51956e-07
-1.89835e-08
-6.9626e-08
-5.3709e-07
2.35522e-07
5.09635e-08
-9.79246e-08
-5.13812e-07
2.34032e-07
5.56934e-08
-1.11094e-07
-4.95275e-07
2.13086e-07
8.01506e-08
-1.22658e-07
-4.75444e-07
2.34641e-07
8.17565e-08
-1.31718e-07
-4.60152e-07
2.27598e-07
8.33904e-08
-1.34796e-07
-4.42496e-07
2.10293e-07
7.64636e-08
-1.26131e-07
-4.16351e-07
1.6866e-07
6.01206e-08
-1.0797e-07
-3.74579e-07
1.06124e-07
2.89164e-08
-7.71088e-08
-3.18588e-07
4.517e-08
-3.98944e-09
-4.65463e-08
-2.57726e-07
1.25617e-08
-2.60405e-08
-3.01748e-08
-1.977e-07
-2.96362e-08
-2.05929e-08
-2.5649e-08
-1.42965e-07
-6.91958e-08
1.43794e-08
-3.53111e-08
-7.64121e-08
-9.07802e-08
4.94943e-08
-5.2695e-08
2.95372e-09
-9.22045e-08
8.1626e-08
-7.63354e-08
8.60282e-08
-7.2569e-08
1.14032e-07
-1.03628e-07
1.73324e-07
-3.97409e-08
1.44753e-07
-1.35496e-07
2.71618e-07
-5.41342e-09
1.67839e-07
-1.67641e-07
3.80454e-07
5.88903e-09
1.83421e-07
-1.88735e-07
4.94266e-07
8.92691e-09
1.92545e-07
-2.00824e-07
6.19472e-07
3.48146e-09
1.84786e-07
-2.02786e-07
7.58266e-07
-2.19134e-08
1.59129e-07
-1.89552e-07
8.97304e-07
-6.34301e-08
1.25407e-07
-1.602e-07
1.02076e-06
-9.40819e-08
9.24492e-08
-1.27447e-07
1.12687e-06
-1.16704e-07
7.33276e-08
-1.0372e-07
1.2145e-06
-1.31257e-07
6.35306e-08
-8.68973e-08
1.27532e-06
-1.34641e-07
5.61678e-08
-7.34015e-08
1.30569e-06
-1.29432e-07
4.91215e-08
-6.19912e-08
1.31077e-06
-1.2883e-07
4.39889e-08
-5.32981e-08
1.29536e-06
-1.4113e-07
4.24071e-08
-4.55971e-08
1.26754e-06
-1.58225e-07
4.55133e-08
-3.77584e-08
1.24283e-06
-1.7605e-07
6.00607e-08
-4.00925e-08
1.23271e-06
-1.97515e-07
9.37841e-08
-5.54469e-08
1.2476e-06
-2.05626e-07
1.36098e-07
-8.17839e-08
1.30208e-06
-1.96283e-07
1.83419e-07
-1.21608e-07
1.39844e-06
-1.34885e-07
2.19758e-07
-1.73842e-07
1.5142e-06
2.19877e-08
2.20551e-07
-2.24847e-07
1.64288e-06
1.76381e-07
1.7265e-07
-2.49302e-07
1.8391e-06
1.94264e-07
1.03371e-07
-2.40588e-07
2.20538e-06
3.08043e-08
2.53466e-08
-2.08159e-07
2.46794e-06
-9.47525e-08
2.36113e-09
-1.05074e-07
2.5605e-06
-1.36992e-07
-1.83139e-08
-7.43541e-09
2.55862e-06
-2.2758e-07
-8.37625e-08
8.69044e-08
2.42195e-06
-3.66887e-07
-1.80081e-07
2.33767e-07
1.98379e-06
-5.93166e-07
-3.28965e-07
5.28721e-07
1.16219e-06
-1.14756e-06
-7.25922e-07
1.10862e-06
5.56628e-07
-1.5798e-06
-1.17898e-06
1.42495e-06
3.74725e-07
-1.05718e-06
-8.8967e-07
9.51299e-07
2.63452e-07
-6.21573e-07
-6.11818e-07
6.41418e-07
1.87959e-07
-3.78371e-07
-4.35944e-07
4.48307e-07
1.34223e-07
-2.3132e-07
-3.10972e-07
3.16197e-07
9.58338e-08
-1.46565e-07
-2.29448e-07
2.2985e-07
6.78036e-08
-9.13661e-08
-1.66877e-07
1.65892e-07
4.73063e-08
-6.07338e-08
-1.28157e-07
1.25525e-07
3.15908e-08
-3.94626e-08
-9.64741e-08
9.42323e-08
1.95108e-08
-2.86488e-08
-7.93054e-08
7.63437e-08
9.21556e-09
-2.12144e-08
-6.56802e-08
6.32989e-08
-1.83845e-08
-6.02602e-08
5.77872e-08
-5.20968e-07
5.58675e-07
1.7364e-06
-9.5411e-07
-5.24902e-07
1.97221e-07
3.29419e-07
-2.35274e-07
-4.04989e-07
2.51319e-07
6.52672e-08
-8.45436e-08
-2.58258e-07
1.2381e-07
5.06901e-08
-8.57088e-08
-1.11224e-07
1.26333e-07
3.44949e-08
-7.38296e-08
4.13339e-08
1.14062e-07
1.39378e-08
-6.74713e-08
2.15173e-07
1.2202e-07
4.87084e-09
-6.60892e-08
3.72458e-07
1.31766e-07
1.51587e-09
-6.29677e-08
5.23175e-07
1.22652e-07
1.75963e-10
-6.32516e-08
6.74045e-07
8.5e-08
-3.86593e-09
-6.33444e-08
7.81473e-07
6.17121e-08
-1.15485e-08
-5.14676e-08
8.19779e-07
5.49685e-08
-1.13122e-08
-3.6792e-08
8.26095e-07
4.38515e-08
-6.41412e-09
-3.11919e-08
8.13324e-07
1.48203e-08
-3.7512e-09
-2.79336e-08
7.87936e-07
-1.13051e-08
-8.51929e-10
-3.16507e-08
8.02735e-07
-6.2586e-08
2.86432e-09
-4.58577e-08
8.83756e-07
-1.1867e-07
5.41139e-09
-5.99669e-08
1.01637e-06
-1.43467e-07
1.24777e-08
-7.41916e-08
1.1621e-06
-1.18903e-07
2.28625e-08
-8.94297e-08
1.32559e-06
-8.21285e-08
2.84819e-08
-1.15263e-07
1.51423e-06
-7.30617e-08
2.64324e-08
-1.36121e-07
1.71133e-06
-6.72711e-08
2.40104e-08
-1.4491e-07
1.90418e-06
-6.59664e-08
1.93096e-08
-1.42713e-07
2.07871e-06
-7.31818e-08
7.24433e-09
-1.30501e-07
2.21671e-06
-8.20513e-08
-2.46562e-09
-1.16916e-07
2.31248e-06
-8.17708e-08
-4.53386e-09
-1.03548e-07
2.36778e-06
-7.66132e-08
-3.74479e-09
-9.16438e-08
2.39618e-06
-7.44507e-08
-2.27017e-09
-8.29419e-08
2.41044e-06
-7.3503e-08
5.07057e-10
-7.59044e-08
2.41622e-06
-7.0112e-08
1.32358e-09
-6.64188e-08
2.4118e-06
-6.6288e-08
2.03179e-09
-6.01602e-08
2.38502e-06
-5.76624e-08
2.76048e-09
-5.94414e-08
2.34498e-06
-5.96827e-08
3.86155e-09
-6.23673e-08
2.3185e-06
-8.74769e-08
4.34907e-09
-6.64382e-08
2.31099e-06
-1.25962e-07
3.93898e-09
-6.7985e-08
2.31204e-06
-1.3294e-07
3.16256e-09
-7.68993e-08
2.31613e-06
-1.14838e-07
7.35274e-09
-9.28899e-08
2.33215e-06
-5.14291e-08
1.84667e-08
-1.17937e-07
2.39223e-06
7.82334e-08
4.38196e-08
-1.60147e-07
2.55495e-06
1.51646e-07
6.36051e-08
-2.01588e-07
2.83277e-06
7.22837e-08
4.30502e-08
-1.98888e-07
2.99973e-06
-2.0652e-08
-6.84551e-09
-1.08666e-07
2.98433e-06
-4.25758e-08
-3.41896e-08
-2.57925e-09
2.89143e-06
-3.2279e-08
-6.9387e-08
5.75737e-08
2.76167e-06
-5.20121e-08
-1.60921e-07
1.15109e-07
2.56634e-06
-1.08864e-07
-2.83382e-07
2.20695e-07
2.17933e-06
-2.01498e-07
-4.7053e-07
4.6587e-07
1.39681e-06
-4.25954e-07
-1.08244e-06
1.14336e-06
7.91713e-07
-4.88663e-07
-1.96806e-06
1.48202e-06
5.01261e-07
-2.99083e-07
-1.47902e-06
1.01137e-06
3.29537e-07
-1.52859e-07
-9.73388e-07
6.76398e-07
2.23233e-07
-7.83335e-08
-6.61773e-07
4.68039e-07
1.53603e-07
-3.69297e-08
-4.51874e-07
3.27115e-07
1.06502e-07
-1.54284e-08
-3.20211e-07
2.36175e-07
7.37877e-08
-3.67833e-09
-2.24487e-07
1.69513e-07
5.05727e-08
1.8019e-09
-1.67056e-07
1.27735e-07
3.34202e-08
4.50994e-09
-1.22381e-07
9.55607e-08
2.04303e-08
5.55713e-09
-9.84514e-08
7.72353e-08
9.60992e-09
5.91228e-09
-8.01937e-08
6.38874e-08
5.93166e-09
-7.29953e-08
5.82891e-08
-2.76471e-07
3.13187e-07
1.61004e-06
-1.08808e-06
-2.9447e-07
1.99014e-07
2.73753e-07
-2.57547e-07
-1.3577e-07
1.49574e-07
8.03427e-08
-1.37297e-07
6.1671e-08
7.01517e-09
5.93274e-08
-1.39973e-07
2.66362e-07
1.48184e-09
4.08404e-08
-1.2068e-07
4.64538e-07
-7.8403e-09
2.41791e-08
-1.00453e-07
6.61022e-07
7.38228e-09
1.03212e-08
-9.21679e-08
8.54049e-07
2.36948e-08
2.56611e-09
-8.75223e-08
1.02717e-06
3.52315e-08
-9.53106e-09
-7.61661e-08
1.14372e-06
4.15833e-08
-1.25361e-08
-6.06026e-08
1.21075e-06
4.72625e-08
-7.68458e-09
-4.48958e-08
1.25283e-06
4.76548e-08
-6.78966e-09
-2.79778e-08
1.27173e-06
4.54694e-08
-7.38632e-09
-1.3124e-08
1.26359e-06
3.61582e-08
-9.99409e-09
-3.21134e-09
1.2249e-06
3.49902e-08
-7.10377e-09
-4.99782e-10
1.15571e-06
1.54722e-08
-2.89644e-09
-5.97014e-09
1.09752e-06
-3.73881e-08
-4.62861e-10
-2.26269e-08
1.08236e-06
-9.11701e-08
6.86643e-09
-4.40099e-08
1.12009e-06
-1.08522e-07
1.35554e-08
-6.166e-08
1.20674e-06
-1.02419e-07
1.45148e-08
-8.08795e-08
1.31383e-06
-8.93807e-08
9.67764e-09
-1.0044e-07
1.42456e-06
-7.60102e-08
7.29173e-09
-1.09284e-07
1.53593e-06
-7.13808e-08
2.92836e-09
-1.08891e-07
1.63644e-06
-6.68744e-08
-7.31593e-09
-9.94941e-08
1.70831e-06
-5.52113e-08
-1.21397e-08
-8.65776e-08
1.75308e-06
-4.40039e-08
-8.92164e-09
-7.36081e-08
1.78073e-06
-3.7965e-08
-6.0886e-09
-6.02175e-08
1.79796e-06
-3.67458e-08
-3.47393e-09
-5.14577e-08
1.81083e-06
-3.78915e-08
-2.21634e-09
-4.62616e-08
1.81994e-06
-3.66704e-08
-4.06264e-09
-3.8487e-08
1.8236e-06
-3.59477e-08
-3.267e-09
-3.07374e-08
1.82388e-06
-3.39284e-08
-1.49848e-09
-2.25113e-08
1.81424e-06
-3.34177e-08
-1.54896e-09
-1.50814e-08
1.78295e-06
-4.28437e-08
3.89251e-10
-1.37351e-08
1.75244e-06
-7.84508e-08
8.86134e-10
-1.78839e-08
1.74676e-06
-1.01017e-07
7.60635e-10
-2.70041e-08
1.77053e-06
-9.64831e-08
4.39601e-09
-4.65194e-08
1.86806e-06
-8.02058e-08
7.30111e-09
-7.60549e-08
2.06914e-06
-1.73959e-08
8.20496e-09
-1.13658e-07
2.28117e-06
6.65691e-08
5.84273e-09
-1.32796e-07
2.38734e-06
7.44942e-08
1.27496e-09
-1.0965e-07
2.33902e-06
4.9554e-08
-2.84243e-10
-2.16086e-08
2.16947e-06
6.35336e-08
-1.5116e-09
6.49566e-08
2.03231e-06
3.21494e-08
-4.33835e-08
1.16114e-07
1.93102e-06
1.80314e-08
-1.12667e-07
1.43911e-07
1.79342e-06
2.39476e-09
-2.05086e-07
2.31432e-07
1.52791e-06
-2.9602e-08
-3.54919e-07
4.48525e-07
9.77018e-07
-1.06496e-07
-8.98233e-07
1.12967e-06
5.71699e-07
-4.40281e-08
-1.55183e-06