/*--------------------------------*- C++ -*----------------------------------*\
| =========                 |                                                 |
| \\      /  F ield         | OpenFOAM: The Open Source CFD Toolbox           |
|  \\    /   O peration     | Version:  2.1.1                                 |
|   \\  /    A nd           | Web:      www.OpenFOAM.org                      |
|    \\/     M anipulation  |                                                 |
\*---------------------------------------------------------------------------*/
FoamFile
{
    version     2.0;
    format      ascii;
    class       volSymmTensorField;
    location    "0.00105";
    object      R;
}
// * * * * * * * * * * * * * * * * * * * * * * * * * * * * * * * * * * * * * //

dimensions      [0 2 -2 0 0 0 0];

internalField   nonuniform List<symmTensor> 
36520
(
(0.0633755 0.00405526 0.0172473 0.0200129 0.00526606 0.0255065)
(0.115828 -0.0134729 0.0277965 0.039395 -0.000858638 0.036687)
(0.183864 -0.0123559 0.0520445 0.0644447 -0.00253409 0.0612428)
(0.196483 -0.0156024 0.0605655 0.0728921 -0.00583535 0.0689672)
(0.218293 -0.014954 0.068918 0.0808164 -0.00632367 0.0776152)
(0.224261 -0.0152461 0.0724064 0.0837177 -0.00708565 0.0810089)
(0.231428 -0.0148301 0.0752038 0.0860919 -0.00695883 0.0837634)
(0.232764 -0.0146569 0.0762144 0.0866792 -0.00696571 0.0845694)
(0.231023 -0.0140784 0.0759802 0.085927 -0.00654882 0.0840142)
(0.226745 -0.0138078 0.0748582 0.0842481 -0.00632055 0.0825311)
(0.219466 -0.013325 0.0725568 0.0815112 -0.00593229 0.079787)
(0.211514 -0.0131745 0.0698861 0.0784487 -0.00580089 0.0766795)
(0.202033 -0.0128293 0.0665695 0.0748396 -0.00563941 0.0728946)
(0.192814 -0.0125284 0.0632523 0.0712315 -0.00558049 0.0690878)
(0.182752 -0.0120714 0.0596007 0.0673487 -0.00551074 0.0649304)
(0.173354 -0.0114716 0.056168 0.0635999 -0.00541534 0.0609918)
(0.163379 -0.0106437 0.0526215 0.0596582 -0.00523977 0.0569262)
(0.153537 -0.00959887 0.0492098 0.0557329 -0.00493884 0.052994)
(0.143095 -0.0083841 0.0457226 0.0516416 -0.00451853 0.0489856)
(0.132382 -0.00705955 0.0422668 0.0474929 -0.0039762 0.0450215)
(0.121048 -0.00572641 0.0387 0.0432079 -0.00336089 0.0409797)
(0.109506 -0.00447629 0.035113 0.0389232 -0.00271949 0.0369621)
(0.0977487 -0.00339699 0.0314733 0.0346417 -0.00211216 0.0329502)
(0.0862233 -0.00253925 0.0278826 0.0304925 -0.0015921 0.0290558)
(0.0751585 -0.00188164 0.0243895 0.0265408 -0.00118099 0.0253167)
(0.0649086 -0.00138523 0.0211172 0.0228993 -0.000870902 0.0218443)
(0.0555563 -0.0010197 0.0181133 0.0195918 -0.000646368 0.0186779)
(0.0472232 -0.000757718 0.0154201 0.016655 -0.000488519 0.0158584)
(0.0399261 -0.000574764 0.0130409 0.0140909 -0.000384271 0.0133808)
(0.0336622 -0.000444974 0.0109832 0.0118957 -0.000318694 0.0112461)
(0.0283451 -0.000346936 0.00922368 0.010036 -0.000278073 0.00942604)
(0.0239085 -0.000260185 0.00774325 0.00848594 -0.00025019 0.00789789)
(0.020248 -0.000169014 0.00651253 0.00720964 -0.000224909 0.0066281)
(0.0172545 -6.21931e-05 0.00550272 0.00616941 -0.00019449 0.00558662)
(0.0148069 6.37339e-05 0.00467907 0.00532503 -0.000154533 0.00473871)
(0.0127893 0.000205466 0.00400755 0.00463645 -0.000103944 0.00405004)
(0.0110878 0.00035558 0.00345511 0.00406468 -4.19362e-05 0.00348716)
(0.00959475 0.000500218 0.00298911 0.00357146 2.84443e-05 0.00301735)
(0.0082205 0.000626534 0.00258114 0.00312405 0.000104092 0.00261205)
(0.00690038 0.00071896 0.00220766 0.00269919 0.000180616 0.00224899)
(0.00560287 0.000757693 0.00184965 0.00228244 0.000250212 0.00191168)
(0.00434937 0.00072719 0.00149727 0.00187335 0.000303127 0.00159493)
(0.00311613 0.000615704 0.00111979 0.00145062 0.000323357 0.00126929)
(0.00207763 0.00045509 0.000755248 0.00107109 0.000307691 0.000969095)
(0.00134615 0.000286944 0.000439711 0.000775438 0.000264885 0.000730188)
(0.000826679 0.000146569 0.000209831 0.000546202 0.000210857 0.000524316)
(0.000395919 5.32835e-05 7.97188e-05 0.000351894 0.000154582 0.00031803)
(0.000140974 1.2598e-05 3.42486e-05 0.000224128 0.00011237 0.000179399)
(0.00010677 -9.98013e-06 8.26099e-06 0.000177603 8.87175e-05 0.000143794)
(0.000106689 -1.30093e-05 2.23421e-06 0.000150475 6.90363e-05 0.000129063)
(0.000110308 -1.6388e-05 -8.83771e-06 0.000133007 5.31464e-05 0.000121409)
(0.000108918 -1.01863e-05 -6.54051e-07 0.000122116 4.03136e-05 0.000115904)
(0.000113237 -1.07269e-05 -1.12049e-05 0.000116975 3.04964e-05 0.00011467)
(0.000110356 -5.50626e-06 2.32986e-06 0.000113521 2.31269e-05 0.000112419)
(0.000114862 -6.10244e-06 -1.1417e-05 0.000113113 1.75166e-05 0.00011334)
(0.000111494 -2.57649e-06 6.16551e-06 0.000111932 1.3536e-05 0.00011199)
(0.000116202 -3.33596e-06 -1.23029e-05 0.000112893 1.05152e-05 0.000113552)
(0.000112633 -7.92833e-07 1.01844e-05 0.000112163 8.59635e-06 0.000112341)
(0.000118262 -1.73584e-06 -1.40766e-05 0.000114252 7.38265e-06 0.000114794)
(0.000128072 -2.97511e-06 1.60972e-05 0.000125844 6.94329e-06 0.000126096)
(0.0364026 -0.000999783 0.00571285 0.00954343 -0.000210479 0.0101085)
(0.0307271 -0.00379232 0.00710392 0.010457 -0.000785002 0.00958472)
(0.0358899 -0.00273285 0.00980376 0.0127262 -0.00086718 0.012055)
(0.0314403 -0.00230897 0.00937589 0.0117105 -0.000876443 0.0111029)
(0.0292675 -0.00177798 0.00893316 0.0109061 -0.000738621 0.0104772)
(0.0260975 -0.00150631 0.0081279 0.00980437 -0.000665938 0.00947336)
(0.0247372 -0.00131342 0.00774272 0.00927812 -0.000586964 0.00899048)
(0.023019 -0.00119197 0.00725344 0.0086661 -0.00054144 0.00839643)
(0.0215838 -0.00107341 0.00681749 0.00812666 -0.000486116 0.00787452)
(0.0200953 -0.000985791 0.00635298 0.00757507 -0.000445783 0.00732413)
(0.0188989 -0.00091399 0.00596237 0.00713032 -0.000412492 0.00686605)
(0.0180294 -0.000871292 0.00566573 0.00679831 -0.000396188 0.00651617)
(0.0174318 -0.000829904 0.0054454 0.00656476 -0.000385321 0.00625142)
(0.0170941 -0.000798363 0.00531097 0.00641728 -0.000381008 0.00607724)
(0.0168688 -0.000766688 0.00520872 0.00631345 -0.000379803 0.00593622)
(0.0166454 -0.000718281 0.00511497 0.00619603 -0.00037262 0.00579786)
(0.016199 -0.000649772 0.00496083 0.0060009 -0.000357101 0.00558982)
(0.0155257 -0.000556109 0.00474552 0.00572033 -0.000327677 0.00531364)
(0.0145315 -0.000448186 0.00444122 0.00533265 -0.000287956 0.00494223)
(0.0132538 -0.000330151 0.00405773 0.00485002 -0.000237055 0.00449049)
(0.0117297 -0.000218359 0.00360094 0.00429072 -0.000182551 0.00396961)
(0.0101199 -0.000122716 0.00311527 0.00370893 -0.0001304 0.00342886)
(0.00849922 -5.07048e-05 0.00262075 0.00312991 -8.62617e-05 0.00289117)
(0.00700786 -2.28884e-06 0.00215682 0.00259864 -5.3142e-05 0.00239775)
(0.00575239 2.74166e-05 0.00175742 0.00215179 -3.14548e-05 0.00198121)
(0.00475396 4.52743e-05 0.0014329 0.00179672 -1.80394e-05 0.00164899)
(0.00395866 5.59892e-05 0.00116931 0.00151414 -9.8221e-06 0.00138434)
(0.00333723 6.24256e-05 0.000957583 0.00129349 -4.7644e-06 0.00117752)
(0.00288698 6.59943e-05 0.0007971 0.00113381 -2.18383e-06 0.00102656)
(0.00257859 6.83004e-05 0.00067921 0.00102443 -1.4642e-06 0.000921829)
(0.00238195 7.07368e-05 0.000594214 0.000954602 -1.94467e-06 0.000853553)
(0.00227768 7.45211e-05 0.000534807 0.000917427 -3.35165e-06 0.000814944)
(0.00224852 8.08651e-05 0.000494368 0.000907094 -5.46411e-06 0.000800306)
(0.00226949 9.10185e-05 0.000463396 0.000915101 -7.81351e-06 0.000802237)
(0.00232201 0.000105805 0.000433656 0.000935507 -9.94777e-06 0.000815895)
(0.00239488 0.000125529 0.000399036 0.000964467 -1.13995e-05 0.000839481)
(0.00248006 0.000148861 0.000353675 0.000998946 -1.18277e-05 0.000873213)
(0.00257764 0.000172995 0.000292937 0.00103753 -1.1902e-05 0.000920257)
(0.0026983 0.000194786 0.000213352 0.00108125 -1.26433e-05 0.000986629)
(0.00286175 0.000209904 0.000112691 0.00113369 -1.53372e-05 0.001081)
(0.00309266 0.000213097 -8.08934e-06 0.00119957 -2.10065e-05 0.0012127)
(0.00341131 0.000198694 -0.000147411 0.00128172 -2.8029e-05 0.00138817)
(0.00372832 0.000161114 -0.000283 0.00134434 -3.15788e-05 0.00156737)
(0.00403676 0.000112059 -0.000378696 0.0013951 -2.7278e-05 0.00172685)
(0.00425054 5.4221e-05 -0.000414113 0.00141494 -1.15321e-05 0.00180752)
(0.00361392 -1.13678e-05 -0.000340299 0.00118267 2.55056e-05 0.00153374)
(0.00194286 -5.05713e-05 -0.000184434 0.000651257 4.75167e-05 0.000838888)
(0.000304527 -2.03097e-05 -3.57083e-05 0.000113148 1.24564e-05 0.000140537)
(2.12067e-05 -3.5422e-06 -2.67769e-06 1.82526e-05 2.83818e-06 2.28872e-05)
(1.7649e-05 -2.9342e-06 -1.24586e-06 1.83009e-05 2.04637e-06 2.14356e-05)
(2.02108e-05 -2.66037e-06 -1.16235e-06 1.99941e-05 1.49538e-06 2.22789e-05)
(2.1308e-05 -2.14383e-06 -4.2883e-07 2.10989e-05 1.08483e-06 2.2635e-05)
(2.25589e-05 -1.71107e-06 -7.04025e-07 2.18492e-05 7.81914e-07 2.29771e-05)
(2.25107e-05 -1.27321e-06 3.71013e-08 2.22155e-05 5.69425e-07 2.29472e-05)
(2.32392e-05 -9.66856e-07 -5.54325e-07 2.25411e-05 4.20229e-07 2.31162e-05)
(2.27491e-05 -6.81523e-07 3.13652e-07 2.25983e-05 3.10121e-07 2.2958e-05)
(2.34327e-05 -5.00875e-07 -5.85093e-07 2.28046e-05 2.44295e-07 2.31257e-05)
(2.28231e-05 -3.0014e-07 5.40502e-07 2.27935e-05 1.87369e-07 2.29948e-05)
(2.67496e-05 -2.44907e-07 -7.30546e-07 2.60931e-05 1.70308e-07 2.63176e-05)
(8.47153e-05 -2.55553e-06 1.19474e-06 8.44379e-05 1.90218e-07 8.49802e-05)
(0.0153805 -0.000297247 0.00112374 0.00373367 -0.000138652 0.00384093)
(0.00717343 -0.000902598 0.00152926 0.00242982 -0.000218469 0.00221628)
(0.00679493 -0.000516147 0.00177554 0.00240962 -0.000197202 0.0022814)
(0.00495956 -0.000338724 0.00143101 0.00185657 -0.00014399 0.00175377)
(0.0039735 -0.00021379 0.00116935 0.00149368 -0.000104039 0.00142275)
(0.00315317 -0.000151948 0.000940002 0.00119594 -8.08275e-05 0.00114164)
(0.00278162 -0.000116315 0.000826044 0.00105785 -6.72592e-05 0.00100688)
(0.00246151 -9.53851e-05 0.000729857 0.000942586 -5.93323e-05 0.000894775)
(0.00221894 -7.6681e-05 0.000651843 0.000854002 -5.22636e-05 0.000807161)
(0.00202946 -6.45969e-05 0.000588656 0.000786061 -4.78883e-05 0.000738506)
(0.00190408 -5.57925e-05 0.000543013 0.000742051 -4.51318e-05 0.000692884)
(0.00184902 -5.16308e-05 0.000517233 0.000723744 -4.46883e-05 0.00067168)
(0.00185481 -4.92441e-05 0.000508978 0.000727405 -4.58621e-05 0.000671766)
(0.00189 -4.78263e-05 0.000509419 0.000741684 -4.75491e-05 0.000682247)
(0.00196211 -4.77464e-05 0.000520148 0.000769435 -5.0134e-05 0.000705162)
(0.00202421 -4.49674e-05 0.000527661 0.000792167 -5.16844e-05 0.000724971)
(0.00205079 -3.98542e-05 0.000524396 0.000802265 -5.1978e-05 0.000734127)
(0.00202883 -3.11308e-05 0.00050521 0.000794609 -5.03887e-05 0.000728523)
(0.00195262 -2.08542e-05 0.00046834 0.000768602 -4.75606e-05 0.000707147)
(0.00182489 -9.46592e-06 0.000413071 0.000725339 -4.37507e-05 0.000671591)
(0.00166385 2.47954e-07 0.000343416 0.000672024 -4.02034e-05 0.000627976)
(0.00150358 7.12239e-06 0.000268395 0.000620413 -3.80613e-05 0.000586883)
(0.0013617 1.02483e-05 0.000193007 0.000576433 -3.77428e-05 0.000554155)
(0.00126259 1.00859e-05 0.000124093 0.000548086 -3.94724e-05 0.000537247)
(0.00122046 7.84659e-06 6.68877e-05 0.00054023 -4.30699e-05 0.000539788)
(0.0012315 4.74174e-06 2.11505e-05 0.000551422 -4.80646e-05 0.000559833)
(0.00128179 1.20968e-06 -1.66838e-05 0.000576508 -5.38602e-05 0.000592861)
(0.00136358 -2.67497e-06 -4.98515e-05 0.000612496 -6.01738e-05 0.000636443)
(0.00147431 -6.68048e-06 -7.83966e-05 0.000658135 -6.69757e-05 0.000688213)
(0.00160978 -1.02565e-05 -0.00010356 0.000711408 -7.43842e-05 0.000746008)
(0.0017689 -1.27106e-05 -0.000127243 0.000771724 -8.27731e-05 0.000809353)
(0.00195673 -1.34217e-05 -0.000151363 0.000840728 -9.29133e-05 0.000880147)
(0.00218282 -1.14501e-05 -0.000177596 0.00092196 -0.000105678 0.000961857)
(0.00246311 -5.77899e-06 -0.000209202 0.00102148 -0.000122335 0.00106121)
(0.00282247 4.35687e-06 -0.000250514 0.0011481 -0.000144325 0.0011877)
(0.0032915 1.99059e-05 -0.000306513 0.00131176 -0.000173178 0.00135296)
(0.00391248 4.04535e-05 -0.000384272 0.00152508 -0.000210227 0.00157361)
(0.00473671 6.53244e-05 -0.000492026 0.00180224 -0.000256924 0.00187103)
(0.00583037 9.47888e-05 -0.000638779 0.00215858 -0.000314717 0.00227032)
(0.00727022 0.000126245 -0.000832362 0.00260934 -0.000383213 0.00279624)
(0.00911983 0.00015285 -0.0010765 0.0031643 -0.000455734 0.00346879)
(0.0113723 0.000154887 -0.00136976 0.00380649 -0.000515002 0.00428236)
(0.0137883 9.53376e-05 -0.00169038 0.00445557 -0.000532447 0.00514721)
(0.015559 -1.60688e-05 -0.00185464 0.00486135 -0.000489688 0.00575224)
(0.0161714 -0.000158778 -0.00175242 0.004907 -0.000395126 0.00587317)
(0.0136942 -0.00020742 -0.00126784 0.00412762 -0.000178069 0.00495361)
(0.00792998 -0.000200648 -0.000678682 0.00248173 5.35328e-05 0.00295765)
(0.00172642 -9.36767e-05 -0.000179291 0.00057735 4.24025e-05 0.00066966)
(6.12534e-05 -5.67581e-06 -7.96061e-06 2.16741e-05 1.52585e-06 2.52482e-05)
(3.64462e-06 -5.06535e-07 -3.73134e-07 2.76273e-06 1.71787e-07 3.28786e-06)
(2.57762e-06 -3.34269e-07 -1.51598e-07 2.4648e-06 8.60535e-08 2.77705e-06)
(2.56701e-06 -2.59734e-07 -7.77636e-08 2.49293e-06 4.90182e-08 2.69024e-06)
(2.59294e-06 -1.93381e-07 -5.66683e-08 2.48768e-06 2.7413e-08 2.62111e-06)
(2.52284e-06 -1.44358e-07 -2.0259e-08 2.47315e-06 1.69468e-08 2.55768e-06)
(2.54005e-06 -1.033e-07 -2.66958e-08 2.45719e-06 9.99965e-09 2.51932e-06)
(2.4548e-06 -7.492e-08 1.72027e-09 2.43367e-06 6.59401e-09 2.47253e-06)
(2.49598e-06 -5.15361e-08 -1.96617e-08 2.4288e-06 4.5896e-09 2.46113e-06)
(2.4932e-06 -3.41338e-08 1.30375e-08 2.48961e-06 2.98147e-09 2.511e-06)
(5.98917e-06 -5.6256e-08 -2.44414e-08 5.86196e-06 2.95183e-09 5.90664e-06)
(7.11163e-05 -2.20119e-06 1.28574e-08 7.09141e-05 5.82926e-09 7.13173e-05)
(0.00679044 -8.44812e-05 6.17951e-06 0.00156668 -0.000167562 0.00170337)
(0.00192241 -0.000254283 0.000393527 0.000647917 -7.50029e-05 0.000600434)
(0.00143965 -0.000104014 0.000358872 0.000511642 -4.78882e-05 0.000483073)
(0.000889767 -5.37893e-05 0.000241819 0.000339006 -2.75724e-05 0.000317332)
(0.000648545 -2.79048e-05 0.00017198 0.000252043 -1.89414e-05 0.00023603)
(0.000495616 -1.75536e-05 0.000123475 0.000198386 -1.45991e-05 0.000185423)
(0.000441753 -1.22407e-05 9.98187e-05 0.00018153 -1.35176e-05 0.000168913)
(0.000408361 -9.91146e-06 8.12521e-05 0.000173167 -1.33947e-05 0.000161503)
(0.000397304 -8.33844e-06 6.60875e-05 0.000173784 -1.41712e-05 0.000162343)
(0.000403009 -8.32728e-06 5.34872e-05 0.000181365 -1.572e-05 0.000170463)
(0.000424652 -9.22999e-06 4.21134e-05 0.000195652 -1.79671e-05 0.00018544)
(0.00046415 -1.1359e-05 3.25412e-05 0.000217055 -2.10532e-05 0.00020755)
(0.00052052 -1.40808e-05 2.39338e-05 0.000244936 -2.50678e-05 0.000236575)
(0.000589018 -1.73024e-05 1.44928e-05 0.000277909 -2.97892e-05 0.000270742)
(0.000673294 -2.11241e-05 4.86894e-06 0.000316833 -3.53108e-05 0.000311051)
(0.000768818 -2.49412e-05 -7.64512e-06 0.000360255 -4.15757e-05 0.000356392)
(0.000873603 -2.91428e-05 -2.49625e-05 0.000407701 -4.82068e-05 0.000407001)
(0.000991554 -3.37555e-05 -4.97492e-05 0.000461108 -5.56642e-05 0.000465038)
(0.00112591 -3.96277e-05 -8.31137e-05 0.000521911 -6.40897e-05 0.000532774)
(0.00128569 -4.73773e-05 -0.000127662 0.000594173 -7.39813e-05 0.00061547)
(0.00148051 -5.86574e-05 -0.000184778 0.000681951 -8.53254e-05 0.000717931)
(0.00172251 -7.43316e-05 -0.000254353 0.000789517 -9.86224e-05 0.000844171)
(0.00201707 -9.59231e-05 -0.000336612 0.000918527 -0.000113659 0.000997541)
(0.0023672 -0.000124211 -0.000431497 0.00106873 -0.000130475 0.00117937)
(0.00276336 -0.000158209 -0.000535784 0.00123453 -0.000148771 0.00138261)
(0.00319765 -0.000196505 -0.000645465 0.00141191 -0.0001681 0.00160063)
(0.00366419 -0.000238947 -0.000758622 0.00159871 -0.000187465 0.00182937)
(0.00416189 -0.000285574 -0.000876104 0.00179415 -0.000206622 0.00206992)
(0.00466187 -0.000332056 -0.000988669 0.00198602 -0.000225936 0.00230458)
(0.00513753 -0.000373176 -0.00108678 0.00216068 -0.000246647 0.00251444)
(0.00558632 -0.000405561 -0.00117029 0.00231478 -0.000270795 0.00269849)
(0.00603795 -0.000430124 -0.00124773 0.00246016 -0.000301126 0.00287355)
(0.00653416 -0.000448737 -0.0013281 0.00261287 -0.000340432 0.00305619)
(0.00713852 -0.000464902 -0.00142451 0.00279606 -0.000392555 0.0032704)
(0.0079317 -0.000482648 -0.00155117 0.00303808 -0.000461884 0.00354547)
(0.00900858 -0.000504274 -0.0017224 0.00337029 -0.000554047 0.00391562)
(0.0105255 -0.000542948 -0.00196419 0.00384158 -0.000673315 0.0044401)
(0.0126763 -0.000617838 -0.00230942 0.00450697 -0.000824868 0.00519093)
(0.0157007 -0.000748614 -0.00280059 0.00542244 -0.00101568 0.00625123)
(0.019886 -0.000962327 -0.00347437 0.00665255 -0.00124849 0.00770826)
(0.0255451 -0.00128987 -0.00434176 0.00824976 -0.00152841 0.0096239)
(0.0328812 -0.00176592 -0.005383 0.010239 -0.00181443 0.011994)
(0.0411564 -0.00237371 -0.00640443 0.0124049 -0.00199806 0.0145169)
(0.0468504 -0.00271851 -0.00673512 0.0137333 -0.00198391 0.0159817)
(0.0459999 -0.00234905 -0.00552139 0.0131048 -0.00172219 0.0151415)
(0.0375867 -0.00139823 -0.00348153 0.0106296 -0.00108333 0.0121415)
(0.0225781 -0.000682832 -0.00180066 0.00662169 -0.00027915 0.00744596)
(0.00643844 -0.000288054 -0.000579487 0.00207332 7.64843e-05 0.002284)
(0.000347703 -2.87627e-05 -4.13825e-05 0.000114157 6.16383e-06 0.000126674)
(1.06774e-05 -8.75024e-07 -1.18289e-06 3.61839e-06 1.37062e-07 4.02713e-06)
(4.98437e-07 -5.33898e-08 -4.28038e-08 3.38204e-07 1.11921e-08 3.81822e-07)
(2.54339e-07 -2.54928e-08 -1.07227e-08 2.39432e-07 4.34752e-09 2.59731e-07)
(2.19695e-07 -1.63363e-08 -5.51236e-09 2.08352e-07 1.89772e-09 2.1995e-07)
(1.97145e-07 -1.12615e-08 -2.6055e-09 1.91828e-07 9.99519e-10 1.98702e-07)
(1.8634e-07 -7.55024e-09 -1.70228e-09 1.79693e-07 4.5287e-10 1.84359e-07)
(1.74733e-07 -5.32714e-09 -6.31497e-10 1.72823e-07 2.63836e-10 1.75743e-07)
(1.74435e-07 -3.57424e-09 -7.33853e-10 1.69639e-07 1.29324e-10 1.72001e-07)
(2.52854e-07 -3.43099e-09 -9.34044e-11 2.5173e-07 9.49838e-11 2.54051e-07)
(3.70401e-06 -3.71366e-08 -3.59571e-09 3.63099e-06 2.1631e-10 3.66174e-06)
(6.89586e-05 -2.11932e-06 -9.03066e-08 6.87414e-05 3.27566e-09 6.91897e-05)
(0.0030333 -1.94693e-05 -0.000128154 0.000679268 -5.60182e-05 0.000815658)
(0.000589298 -7.32618e-05 0.000110148 0.000203605 -2.47635e-05 0.000191277)
(0.000372726 -2.47455e-05 7.41373e-05 0.000142369 -1.44493e-05 0.000133461)
(0.000230657 -1.4595e-05 3.66517e-05 0.000101569 -9.62809e-06 9.43792e-05)
(0.0002 -1.12898e-05 1.64907e-05 9.57196e-05 -9.11605e-06 8.91187e-05)
(0.000203081 -1.23227e-05 2.12706e-06 0.000103255 -1.04478e-05 9.70091e-05)
(0.00023732 -1.4664e-05 -9.10475e-06 0.00012434 -1.34109e-05 0.000117694)
(0.000287534 -1.91168e-05 -2.17962e-05 0.000153362 -1.72381e-05 0.000146987)
(0.000358498 -2.51329e-05 -3.74123e-05 0.000192541 -2.24727e-05 0.000186705)
(0.000450049 -3.39743e-05 -5.70249e-05 0.000241987 -2.87729e-05 0.000237355)
(0.00056713 -4.58366e-05 -8.27983e-05 0.000303791 -3.63813e-05 0.000301729)
(0.000711144 -6.14726e-05 -0.000115102 0.000377849 -4.54605e-05 0.000379715)
(0.000886999 -8.03448e-05 -0.00015548 0.000464783 -5.70227e-05 0.000473455)
(0.00110158 -0.000103604 -0.000206787 0.000568828 -7.09246e-05 0.000586998)
(0.00136169 -0.000131889 -0.000270302 0.000691424 -8.67004e-05 0.000721931)
(0.00168436 -0.000166465 -0.000351219 0.000840093 -0.000104777 0.000885626)
(0.00208951 -0.000210795 -0.000457513 0.00102379 -0.000124282 0.00109137)
(0.00261496 -0.000269194 -0.000602091 0.00125894 -0.000146461 0.00135679)
(0.00329689 -0.000347096 -0.000795958 0.00156044 -0.000171242 0.00170041)
(0.00420135 -0.00045308 -0.00106185 0.00195641 -0.00019928 0.00215645)
(0.00539849 -0.00060048 -0.00142685 0.00247811 -0.000228349 0.00276458)
(0.00696667 -0.000804369 -0.00191661 0.00315761 -0.000255424 0.00356181)
(0.0089838 -0.0010863 -0.00255626 0.0040268 -0.000276093 0.00458651)
(0.0114914 -0.00146128 -0.00336498 0.00509937 -0.000286356 0.00587477)
(0.014436 -0.00192418 -0.00432325 0.00634656 -0.000285862 0.00739768)
(0.0178052 -0.00247475 -0.00540657 0.00775777 -0.000279138 0.009124)
(0.0217244 -0.00315458 -0.00663228 0.00938848 -0.000258115 0.01108)
(0.0263618 -0.00401974 -0.0080493 0.0113191 -0.000199169 0.0133772)
(0.031197 -0.0049968 -0.00948837 0.0133337 -0.000108111 0.0157561)
(0.0358222 -0.00602811 -0.0108096 0.0152374 -5.2093e-06 0.0179483)
(0.0374867 -0.00652306 -0.0112087 0.0158152 7.30804e-05 0.0185992)
(0.0361122 -0.0063519 -0.0107019 0.0150552 8.3309e-05 0.0177269)
(0.0328263 -0.00566491 -0.00962429 0.0134515 1.32899e-06 0.0159142)
(0.0297118 -0.00487908 -0.00857089 0.0118879 -0.000153213 0.014184)
(0.0286336 -0.00445413 -0.00807461 0.0111612 -0.000325236 0.0134298)
(0.029986 -0.00453248 -0.0082259 0.011433 -0.000498539 0.0137684)
(0.0325867 -0.00479466 -0.00864538 0.0121353 -0.000718728 0.0145739)
(0.0369784 -0.00537671 -0.00943829 0.0134628 -0.000976802 0.0160384)
(0.0438552 -0.00639264 -0.0107233 0.0156149 -0.0012904 0.0184109)
(0.0541283 -0.00793926 -0.0126286 0.0188298 -0.00170407 0.0219818)
(0.0688414 -0.0100193 -0.0152265 0.0232616 -0.00232831 0.0269826)
(0.0894178 -0.0126827 -0.0184655 0.0292285 -0.00324114 0.0336445)
(0.113747 -0.0155887 -0.0213018 0.0358994 -0.00412603 0.0408095)
(0.123938 -0.0153468 -0.0202376 0.0375627 -0.00457629 0.0422859)
(0.110272 -0.0106095 -0.0142864 0.0318126 -0.00433263 0.0356847)
(0.0849885 -0.00510415 -0.00789921 0.0236052 -0.00328876 0.0262225)
(0.0521974 -0.00183922 -0.0039127 0.0146821 -0.00154543 0.0159058)
(0.0176085 -0.000619931 -0.00136136 0.00539259 -9.61141e-05 0.00571407)
(0.0015111 -0.000106915 -0.00015693 0.000485334 1.59392e-05 0.000520696)
(6.41875e-05 -4.76516e-06 -6.62127e-06 2.03775e-05 5.16423e-07 2.19637e-05)
(1.86581e-06 -1.33333e-07 -1.79417e-07 6.119e-07 1.23474e-08 6.63032e-07)
(6.82862e-08 -5.52229e-09 -5.13643e-09 3.90593e-08 7.12553e-10 4.25774e-08)
(2.06951e-08 -1.49943e-09 -6.65387e-10 1.89229e-08 1.80904e-10 2.00536e-08)
(1.52993e-08 -8.5333e-10 -2.56916e-10 1.47035e-08 7.88806e-11 1.52592e-08)
(1.25983e-08 -5.03098e-10 -1.29094e-10 1.20867e-08 3.08949e-11 1.23986e-08)
(1.1117e-08 -3.34094e-10 -6.06448e-11 1.09545e-08 1.74646e-11 1.11377e-08)
(1.19566e-08 -2.40184e-10 -4.3473e-11 1.1625e-08 8.18726e-12 1.17783e-08)
(9.75037e-08 -1.29711e-09 -1.78746e-10 9.65609e-08 4.76656e-11 9.73766e-08)
(3.55075e-06 -3.59906e-08 -3.69074e-09 3.4784e-06 6.34398e-10 3.50628e-06)
(6.87425e-05 -2.11045e-06 -9.04715e-08 6.84746e-05 1.48978e-08 6.88888e-05)
(0.00185514 2.00052e-06 -0.000153796 0.000425053 -0.000111023 0.000567005)
(0.000284314 -3.91467e-05 1.21049e-05 0.000127261 -1.43809e-05 0.000123577)
(0.000283647 -3.75125e-05 -1.973e-05 0.000153308 -8.15283e-06 0.000144646)
(0.000353667 -5.58685e-05 -5.1509e-05 0.000208015 -5.99723e-06 0.000196539)
(0.000482582 -7.80229e-05 -8.66499e-05 0.000284597 -6.32991e-06 0.000271548)
(0.000625578 -0.000102955 -0.000121206 0.000366697 -8.03622e-06 0.000352583)
(0.000798832 -0.000128402 -0.00016169 0.000463197 -1.26336e-05 0.000448872)
(0.00101867 -0.000162583 -0.000213288 0.000584277 -1.83712e-05 0.000572662)
(0.00129693 -0.000204285 -0.000282557 0.000736431 -2.62505e-05 0.00073147)
(0.00165649 -0.000261429 -0.000374558 0.000932568 -3.59202e-05 0.000939564)
(0.00212928 -0.000340387 -0.000501439 0.00118804 -4.73072e-05 0.00121389)
(0.00272833 -0.000445493 -0.000668011 0.00150691 -6.11308e-05 0.00156095)
(0.00340213 -0.000559521 -0.000862926 0.00185725 -8.17233e-05 0.00195369)
(0.00428728 -0.000706667 -0.00112547 0.00230844 -0.000109112 0.00246574)
(0.00542228 -0.000892528 -0.001463 0.00287649 -0.00014576 0.00310598)
(0.00693355 -0.00113689 -0.00190987 0.00361752 -0.000197815 0.00393106)
(0.00902336 -0.00148245 -0.00253379 0.00463144 -0.000260714 0.00505821)
(0.0119498 -0.00196798 -0.00342449 0.00603169 -0.000340722 0.00660975)
(0.0160858 -0.00265734 -0.00469452 0.00798814 -0.000439515 0.00877108)
(0.0220646 -0.00366622 -0.00655554 0.0107824 -0.000559327 0.0118658)
(0.0306911 -0.00515535 -0.009283 0.0147794 -0.000691628 0.0163054)
(0.0429094 -0.00732592 -0.0131643 0.0204039 -0.000826771 0.022499)
(0.0605468 -0.0106227 -0.0187178 0.0284723 -0.000879137 0.0312192)
(0.0856765 -0.0155674 -0.0265781 0.039849 -0.000737263 0.043496)
(0.118354 -0.0222428 -0.0368212 0.0544442 -0.000341081 0.0594699)
(0.156976 -0.0301831 -0.0489135 0.071473 8.1244e-05 0.0784807)
(0.20353 -0.0398961 -0.0630469 0.0917981 0.000432369 0.101156)
(0.265145 -0.0532426 -0.0808299 0.118208 0.001113 0.130304)
(0.32074 -0.0661728 -0.0961116 0.141281 0.00228684 0.155947)
(0.346019 -0.0734377 -0.102277 0.150916 0.00360053 0.166897)
(0.340132 -0.0746387 -0.0994836 0.147521 0.00480173 0.163213)
(0.308136 -0.0700836 -0.0897021 0.13342 0.00555257 0.147585)
(0.257234 -0.0606597 -0.0748697 0.111527 0.00558406 0.122896)
(0.202594 -0.0493348 -0.0590245 0.0881125 0.00486003 0.0962293)
(0.160157 -0.0398 -0.0465248 0.0696383 0.00386312 0.0751981)
(0.136227 -0.0340628 -0.0392902 0.0589083 0.00309251 0.0630895)
(0.129387 -0.0322578 -0.0370431 0.0553822 0.00265278 0.0593731)
(0.130862 -0.0320945 -0.0370798 0.0549372 0.00218937 0.0594315)
(0.141119 -0.0338221 -0.0390616 0.0577653 0.00159386 0.0631793)
(0.161662 -0.0377463 -0.0428498 0.0643473 0.00060802 0.0707515)
(0.191704 -0.0430757 -0.0480782 0.0736588 -0.000968018 0.0816512)
(0.232364 -0.049721 -0.0539734 0.0853137 -0.00301875 0.0949096)
(0.27131 -0.0546137 -0.0571695 0.0949459 -0.00481997 0.104986)
(0.267717 -0.04816 -0.050325 0.0890113 -0.006206 0.0985041)
(0.21859 -0.0308985 -0.0338331 0.0679358 -0.00715343 0.075739)
(0.160799 -0.0133994 -0.0173134 0.0462705 -0.00698413 0.0509962)
(0.102174 -0.00356202 -0.00751685 0.0284522 -0.00442273 0.0300729)
(0.0390036 -0.000984425 -0.00261973 0.0113721 -0.000891379 0.0117398)
(0.00511809 -0.000267045 -0.000429147 0.00159159 2.81657e-06 0.00165925)
(0.000313895 -2.06816e-05 -2.8929e-05 9.81219e-05 1.13912e-06 0.000103347)
(1.34008e-05 -8.75185e-07 -1.19047e-06 4.19543e-06 4.62948e-08 4.44025e-06)
(3.49435e-07 -2.24097e-08 -2.98532e-08 1.11621e-07 1.13013e-09 1.18593e-07)
(8.54331e-09 -5.7169e-10 -5.67054e-10 4.40884e-09 4.29374e-11 4.64062e-09)
(2.49581e-09 -1.44904e-10 -5.08656e-11 2.35809e-09 1.39935e-11 2.42525e-09)
(2.29181e-09 -9.34671e-11 -2.50586e-11 2.19869e-09 5.99847e-12 2.24495e-09)
(2.17647e-09 -6.56674e-11 -1.42373e-11 2.1423e-09 3.81537e-12 2.17227e-09)
(3.64816e-09 -7.18805e-11 -1.34417e-11 3.55243e-09 2.38611e-12 3.5945e-09)
(8.96718e-08 -1.1917e-09 -1.89542e-10 8.86548e-08 4.39861e-11 8.93955e-08)
(3.54445e-06 -3.59612e-08 -4.223e-09 3.46954e-06 4.62435e-10 3.49769e-06)
(6.87732e-05 -2.09371e-06 -1.10849e-07 6.84574e-05 1.28868e-08 6.88798e-05)
(0.00233705 -0.000227903 -0.000348974 0.000781692 -9.15942e-05 0.00097273)
(0.00121777 -0.000169607 -0.000172005 0.000671427 -1.71357e-05 0.000656155)
(0.00238082 -0.000440883 -0.000472849 0.00136916 -1.89598e-05 0.00129725)
(0.00388827 -0.000800897 -0.000824955 0.00226413 -2.0177e-05 0.00214698)
(0.00565247 -0.00119365 -0.00127164 0.00325109 -1.19014e-05 0.00310353)
(0.00712137 -0.00153861 -0.00161677 0.00405666 -5.6618e-06 0.00387023)
(0.00856792 -0.00184932 -0.00197651 0.00482789 -1.09601e-05 0.00462417)
(0.0103427 -0.00223524 -0.00240968 0.00576985 -5.45111e-06 0.00556644)
(0.0124198 -0.00266969 -0.00294945 0.0068714 1.04282e-05 0.0066714)
(0.0150404 -0.0032344 -0.00364868 0.00827386 4.23456e-05 0.008067)
(0.0184398 -0.00398637 -0.00460766 0.0101129 0.000112533 0.0099116)
(0.0227328 -0.00495656 -0.00586848 0.0124138 0.000188193 0.0122558)
(0.0274753 -0.0060275 -0.00734758 0.0149526 0.000227504 0.014908)
(0.0365092 -0.00814103 -0.0100495 0.0196836 0.000260293 0.0198543)
(0.0449563 -0.0100316 -0.0127083 0.0239921 0.000206929 0.0244856)
(0.0498875 -0.0107925 -0.0145014 0.026324 -8.33779e-05 0.0272008)
(0.0613063 -0.0130066 -0.01817 0.0318466 -0.00036942 0.0332623)
(0.0803706 -0.0170016 -0.0241521 0.0411199 -0.000643585 0.043354)
(0.10695 -0.022609 -0.0324005 0.0539527 -0.0010453 0.0572529)
(0.145343 -0.0307571 -0.044259 0.0722841 -0.00162006 0.0770727)
(0.201775 -0.0427782 -0.0618197 0.0987819 -0.00210654 0.105981)
(0.275709 -0.0586917 -0.0849917 0.133331 -0.00240882 0.143851)
(0.374355 -0.0801898 -0.115733 0.179867 -0.0028566 0.194131)
(0.518882 -0.113 -0.159288 0.248651 -0.00317234 0.266837)
(0.707816 -0.159622 -0.212566 0.338316 -0.00118301 0.358331)
(0.877454 -0.204454 -0.256801 0.415745 0.00251917 0.435123)
(1.00428 -0.239872 -0.287834 0.472016 0.00511915 0.491557)
(1.11583 -0.270075 -0.312385 0.518272 0.00639096 0.538486)
(1.2134 -0.294506 -0.332077 0.554369 0.00807722 0.576293)
(1.27315 -0.309306 -0.341751 0.571275 0.0105839 0.596165)
(1.27859 -0.312131 -0.338448 0.565171 0.0137813 0.593569)
(1.21646 -0.300625 -0.320997 0.533022 0.0179723 0.564818)
(1.07656 -0.271787 -0.286767 0.471376 0.0219181 0.503863)
(0.881143 -0.229224 -0.240063 0.389247 0.0234767 0.418776)
(0.675114 -0.181878 -0.189883 0.303172 0.0221437 0.327744)
(0.497817 -0.138663 -0.144433 0.228138 0.0186735 0.246935)
(0.372789 -0.106479 -0.109519 0.173619 0.0140495 0.186388)
(0.312626 -0.0906127 -0.09029 0.146642 0.0102985 0.153832)
(0.296022 -0.0863908 -0.0826146 0.138717 0.00827085 0.140801)
(0.301094 -0.0877465 -0.0811099 0.139885 0.00786941 0.138564)
(0.322436 -0.0922244 -0.0839878 0.146191 0.00848491 0.144952)
(0.356576 -0.0977209 -0.0886671 0.154874 0.00800282 0.156176)
(0.380576 -0.0977839 -0.0873667 0.157135 0.00402004 0.160657)
(0.355626 -0.0817535 -0.0735614 0.137891 -0.002104 0.143602)
(0.291019 -0.0544209 -0.0513877 0.10369 -0.00669321 0.110215)
(0.221286 -0.0272755 -0.0289563 0.0708226 -0.00876824 0.0756545)
(0.15886 -0.00756409 -0.0122975 0.0459922 -0.00734493 0.0480844)
(0.0749885 -0.0010749 -0.00411207 0.0214025 -0.00248374 0.0219346)
(0.014271 -0.000414243 -0.000867935 0.00427246 -0.000146868 0.00437438)
(0.00124678 -6.54221e-05 -9.38626e-05 0.000381957 -2.40196e-06 0.00039451)
(6.59559e-05 -3.75629e-06 -5.03051e-06 2.03511e-05 -3.09341e-09 2.11544e-05)
(2.08481e-06 -1.19238e-07 -1.56262e-07 6.47422e-07 9.47543e-10 6.76334e-07)