/*--------------------------------*- C++ -*----------------------------------*\
| =========                 |                                                 |
| \\      /  F ield         | OpenFOAM: The Open Source CFD Toolbox           |
|  \\    /   O peration     | Version:  2.1.1                                 |
|   \\  /    A nd           | Web:      www.OpenFOAM.org                      |
|    \\/     M anipulation  |                                                 |
\*---------------------------------------------------------------------------*/
FoamFile
{
    version     2.0;
    format      ascii;
    class       volScalarField;
    location    "0.00105";
    object      TLS;
}
// * * * * * * * * * * * * * * * * * * * * * * * * * * * * * * * * * * * * * //

dimensions      [0 1 0 0 0 0 0];

internalField   nonuniform List<scalar> 
36520
(
0.000435141
0.000377904
0.000335435
0.000328094
0.000319432
0.000316921
0.000314514
0.000314025
0.000314666
0.000316177
0.00031882
0.000321856
0.000325679
0.000329663
0.000334299
0.000338991
0.000344318
0.000350012
0.000356532
0.000363835
0.000372335
0.000382017
0.000393205
0.000405881
0.000420188
0.000435995
0.00045339
0.000472276
0.000492602
0.000514162
0.000536845
0.000560322
0.000584279
0.000608345
0.000632279
0.000656015
0.000679839
0.000704568
0.000731565
0.000762765
0.000800789
0.000848345
0.000914265
0.000998547
0.00109469
0.00121628
0.00141512
0.00165491
0.00173959
0.0017824
0.00180606
0.00182737
0.00182927
0.00184013
0.00183323
0.00184092
0.00183123
0.00183851
0.00182502
0.00178473
0.000744861
0.000416266
0.0003866
0.000381589
0.000376476
0.000377821
0.000377752
0.000380681
0.000384901
0.000390786
0.000397262
0.000402768
0.000407256
0.000409798
0.000411247
0.000412067
0.000413552
0.000415893
0.000419738
0.000425258
0.000432861
0.00044217
0.000453219
0.000465137
0.000476335
0.0004848
0.000489292
0.000488883
0.000483393
0.000473643
0.000461018
0.000446839
0.000431934
0.000415929
0.000398071
0.000377961
0.000355574
0.000331652
0.000307563
0.000285016
0.000265761
0.000250668
0.000239813
0.000232714
0.000228132
0.000225878
0.000234759
0.000268041
0.000558861
0.000916524
0.000928992
0.00092828
0.000931474
0.0009299
0.000933537
0.000929721
0.000934527
0.000927745
0.000957038
0.00286196
0.000931871
0.00046106
0.000434387
0.000432914
0.000432667
0.000439267
0.000443269
0.000450071
0.000458088
0.000466215
0.000472666
0.00047495
0.000473573
0.000469623
0.000463579
0.000457294
0.000451392
0.000445813
0.000440178
0.000433602
0.000424944
0.000413004
0.000397612
0.000380117
0.000363241
0.000348678
0.000336606
0.00032662
0.000318556
0.000311792
0.000305747
0.000300037
0.000294421
0.000288672
0.000282694
0.000276503
0.000270212
0.000264032
0.00025829
0.000253319
0.000249319
0.000246236
0.000243536
0.000241101
0.000238364
0.000234323
0.000237697
0.000259034
0.000296481
0.000517676
0.000730114
0.000724664
0.000721015
0.000716001
0.00071754
0.000712289
0.000716548
0.000709979
0.000831015
0.00298959
0.00114518
0.00050252
0.000478058
0.000478713
0.000478226
0.000478661
0.000472413
0.00046358
0.000451829
0.00043852
0.000424904
0.000412528
0.000401687
0.000391787
0.000383069
0.000374336
0.000365473
0.00035632
0.000347128
0.000337984
0.000329278
0.000321379
0.000314344
0.000308114
0.000302572
0.000297469
0.000292665
0.000288145
0.000284293
0.000281465
0.000279624
0.000277826
0.000275423
0.000272155
0.000268221
0.000264
0.000259686
0.000255376
0.000251219
0.000247373
0.000243992
0.000240895
0.000237638
0.000234896
0.000235981
0.000240626
0.000244487
0.000261486
0.000289309
0.000313866
0.000473996
0.000635862
0.000622767
0.000610741
0.000606527
0.00060067
0.000602055
0.000626143
0.000918508
0.00301252
0.00139871
0.000497425
0.000446457
0.000397436
0.000362114
0.000342049
0.000333578
0.000328545
0.000325503
0.000322947
0.000320161
0.00031737
0.000314829
0.000311483
0.000307143
0.000301975
0.000296195
0.000289924
0.000283405
0.000276747
0.000270017
0.000263252
0.000256524
0.000249904
0.000243531
0.000237359
0.000231182
0.000224968
0.000219462
0.000214392
0.000213313
0.000216315
0.000223297
0.000231782
0.000236296
0.000235378
0.000233828
0.000231786
0.000229272
0.000226265
0.000222432
0.000215957
0.000204961
0.000197179
0.000201931
0.00021516
0.000237783
0.000264547
0.000289972
0.000308036
0.000317996
0.00041353
0.000556897
0.000533102
0.000510876
0.000497845
0.000500152
0.00065588
0.000953243
0.00301532
0.00157079
0.000257496
0.000211614
0.000193487
0.000188228
0.000189025
0.000192153
0.000196248
0.000201142
0.000205986
0.000209728
0.000212605
0.000219715
0.000225333
0.000228603
0.000229385
0.000227739
0.000224903
0.000221328
0.000217246
0.000212922
0.0002086
0.000204139
0.00019937
0.00019461
0.000190212
0.000185927
0.000181299
0.000177687
0.000175685
0.000175141
0.000176067
0.000178994
0.000184249
0.000190665
0.000195163
0.000196438
0.000196788
0.000196191
0.000193573
0.000186022
0.000167163
0.000137194
0.000120208
0.000120142
0.000127262
0.00014948
0.000238215
0.000291161
0.000308369
0.000314584
0.000319905
0.000355878
0.000399257
0.000394088
0.000389866
0.000433916
0.000670505
0.000956672
0.00301528
0.00143383
0.000172954
0.000161795
0.000156734
0.000153443
0.000153293
0.000154137
0.000155503
0.000157322
0.00015972
0.00016218
0.000164614
0.000168907
0.000171474
0.000174228
0.000179961
0.000182684
0.000182357
0.000181214
0.000179508
0.000177142
0.000174661
0.000172433
0.000169677
0.00016615
0.000163334
0.000161562
0.000160276
0.000159455
0.00015888
0.000158302
0.000158752
0.000160174
0.000162091
0.000164942
0.000169127
0.000174147
0.000176554
0.000172665
0.000160243
0.00013272
9.61971e-05
7.38371e-05
6.15059e-05
5.67545e-05
5.84494e-05
7.1579e-05
0.000171139
0.000288936
0.000308831
0.000318668
0.000325044
0.000332234
0.000371028
0.00037947
0.000378301
0.000429801
0.000671368
0.000956629
0.0030154
0.000832066
0.000168435
0.00015624
0.000154138
0.000150071
0.000148593
0.000147872
0.000147392
0.000147154
0.000147374
0.000147556
0.000145343
0.00014537
0.000148759
0.000150539
0.000152884
0.000154734
0.000154369
0.000152884
0.000150911
0.00014851
0.000146275
0.000144826
0.000144072
0.000143586
0.000143122
0.000142887
0.000142914
0.000142934
0.000142735
0.000142566
0.000143512
0.000145278
0.000147996
0.000150711
0.000153385
0.000156849
0.000161764
0.000167942
0.0001689
0.000158709
0.00011666
5.44456e-05
3.79972e-05
3.65746e-05
3.93897e-05
5.18028e-05
0.000152238
0.000294094
0.000317553
0.000330649
0.000338943
0.000344738
0.000362523
0.000378914
0.000377949
0.000429509
0.00067122
0.000956411
0.00301556
0.000635097
0.000161088
0.000148813
0.000143178
0.000140502
0.000137981
0.00013639
0.000134059
0.000132679
0.000132001
0.000130979
0.000130228
0.000130798
0.000131466
0.000132138
0.000133548
0.000135245
0.000136369
0.000136687
0.000136842
0.000136947
0.000136704
0.000135975
0.00013441
0.000132033
0.000129577
0.000128176
0.000127715
0.000127183
0.000125571
0.00012386
0.00012392
0.000125087
0.000126133
0.000126912
0.000128388
0.000133523
0.000144867
0.000154409
0.000157134
0.000159331
0.000150693
7.38598e-05
3.5136e-05
3.38584e-05
3.80043e-05
5.18223e-05
0.000176329
0.000330566
0.000350606
0.000361694
0.000369154
0.000374281
0.000377998
0.000379236
0.000377685
0.000429424
0.000670449
0.000956536
0.00301631
0.000630456
0.000162404
0.000150448
0.000146564
0.000145625
0.000145393
0.000145471
0.000144956
0.000143606
0.00014206
0.000142953
0.000143733
0.000143967
0.000143573
0.000143619
0.000144875
0.00014509
0.000145178
0.000145189
0.000144769
0.000143976
0.000142614
0.000140196
0.000136451
0.000131091
0.000127058
0.000126943
0.000128659
0.000129437
0.000129267
0.000129389
0.000130035
0.000130165
0.000130458
0.000131084
0.000132512
0.000136192
0.000140909
0.000144067
0.000147487
0.000157073
0.000158842
8.46065e-05
4.10213e-05
3.94281e-05
4.38555e-05
5.96222e-05
0.000204605
0.000346537
0.000362985
0.000372117
0.000378301
0.000382524
0.000384476
0.000379761
0.000377354
0.000429542
0.000670192
0.000956724
0.00301646
0.000675307
0.000179169
0.000165346
0.00015083
0.000146617
0.000144215
0.000143569
0.000143456
0.000143198
0.000142469
0.000141867
0.000141432
0.000141227
0.000140979
0.000140069
0.000138453
0.000137008
0.000136837
0.000137265
0.000136132
0.000135908
0.000137092
0.000137307
0.000136603
0.000135586
0.000134605
0.000134686
0.00013593
0.000136809
0.000137323
0.000137628
0.000137876
0.000139086
0.00014009
0.000140922
0.000143212
0.000148172
0.000154553
0.000161337
0.000167178
0.000175448
0.000173166
9.34567e-05
3.91289e-05
3.55885e-05
3.86303e-05
4.9697e-05
0.000160953
0.000311205
0.000330072
0.000342622
0.000351741
0.00035839
0.000365008
0.000378286
0.000377384
0.000429653
0.000670756
0.000957433
0.00301739
0.00066319
0.000184922
0.00017092
0.000153227
0.000150262
0.000144464
0.000140327
0.000136391
0.000133641
0.000132054
0.000131037
0.000130198
0.000129632
0.000129321
0.000129301
0.0001297
0.000131252
0.000133844
0.000135838
0.000133679
0.000131358
0.000132723
0.000131512
0.000126317
0.000120343
0.000122522
0.000128697
0.000131766
0.000132167
0.00011688
0.000115001
0.000116679
0.000123892
0.000137925
0.000140229
0.000141505
0.0001462
0.000152999
0.000158545
0.000165637
0.000172262
0.000170375
9.71244e-05
3.96085e-05
3.08858e-05
3.17835e-05
3.60032e-05
7.86358e-05
0.000242305
0.00026386
0.000277149
0.000287941
0.000296532
0.000311975
0.000374426
0.000377837
0.000429811
0.000672
0.000958562
0.00301876
0.000600951
0.00017523
0.000163962
0.000155571
0.000151117
0.000144814
0.000140031
0.000135923
0.000133114
0.000131347
0.000130184
0.000129402
0.000128905
0.000128676
0.000128953
0.000129706
0.00013098
0.000132473
0.000133577
0.000135203
0.000135155
0.000133297
0.000132507
0.000132725
0.000130122
0.000111436
0.000111206
0.000126417
0.000133052
0.000134114
0.000135371
0.00012527
0.00012116
0.000123591
0.000130537
0.000144634
0.000148624
0.000151467
0.000156591
0.000166488
0.000173012
0.000165548
9.20672e-05
3.87806e-05
3.03867e-05
3.13063e-05
3.5596e-05
7.68101e-05
0.000238573
0.000260695
0.000274053
0.000284957
0.000293657
0.000309494
0.000374236
0.000377821
0.00042981
0.000671883
0.000958349
0.00301913
0.000625825
0.00017591
0.000157501
0.000148633
0.000146467
0.000145262
0.00014456
0.000144027
0.000143647
0.000143407
0.000142955
0.000142035
0.000141175
0.000140928
0.000140554
0.000140132
0.000140475
0.000141776
0.000143669
0.000144943
0.000145699
0.000147453
0.000148093
0.000147054
0.000145319
0.000143009
0.00014175
0.000141346
0.00014121
0.000141617
0.00014177
0.000141201
0.000139492
0.00013855
0.000140363
0.0001446
0.000150769
0.000156509
0.000162464
0.000168154
0.000175144
0.000164207
7.99626e-05
3.77101e-05
3.52864e-05
3.8226e-05
5.23325e-05
0.000185379
0.000303027
0.000322459
0.000336025
0.000345824
0.000352931
0.000360799
0.000378003
0.000378041
0.000429607
0.000671861
0.00095726
0.00301777
0.000603404
0.000134658
0.00013297
0.000142053
0.000141779
0.000139437
0.000139458
0.000139818
0.000139993
0.000140154
0.000139098
0.000136811
0.000135105
0.000135946
0.00013824
0.000142416
0.000144022
0.000144383
0.000142123
0.000144707
0.000147959
0.00014871
0.00014834
0.00013707
0.000119579
0.000121096
0.000131837
0.00014576
0.000151988
0.000153752
0.000155081
0.00015208
0.000126946
0.000125664
0.000129288
0.000144563
0.000154692
0.00016044
0.000167323
0.000175392
0.000187275
0.000182322
9.02034e-05
4.15752e-05
3.92133e-05
4.30731e-05
6.6851e-05
0.000256232
0.00032908
0.000345263
0.00035561
0.000362649
0.000367519
0.000372589
0.000378888
0.000378246
0.000429474
0.000672005
0.000956723
0.00301672
0.000618676
0.00016323
0.000153196
0.00014908
0.000147404
0.000145055
0.000142965
0.000140679
0.000139189
0.000137981
0.000136932
0.000136192
0.000135872
0.000136671
0.000137526
0.000137504
0.000137069
0.000137209
0.00013763
0.000141919
0.000142312
0.000139725
0.000124821
0.000121751
0.000125625
0.000134995
0.000143937
0.00014739
0.000142268
0.000124485
0.000116668
0.000117757
0.000126842
0.00014364
0.000153877
0.000157694
0.00016126
0.000166016
0.000172592
0.000180943
0.000186197
0.000169711
7.28818e-05
3.71678e-05
3.65227e-05
4.05675e-05
6.08857e-05
0.000233561
0.000316519
0.000333252
0.000344707
0.000352818
0.00035865
0.000366914
0.000378789
0.000377928
0.000429411
0.000671176
0.000956337
0.00301663
0.000840817
0.000179774
0.000168713
0.000164592
0.00016224
0.000161196
0.000160296
0.000159273
0.000158905
0.000158966
0.000159191
0.000158927
0.000157575
0.000155849
0.000155461
0.000155548
0.000155443
0.00015568
0.000156063
0.000155799
0.000153545
0.000150844
0.000149838
0.000150862
0.000153219
0.00015353
0.000150639
0.00013803
0.000134124
0.000134108
0.000136585
0.000142746
0.000151039
0.000157534
0.000160708
0.000163197
0.00016614
0.000169916
0.000173558
0.000175828
0.000172568
0.000134672
5.72491e-05
3.77389e-05
3.70855e-05
4.08891e-05
5.76409e-05
0.000178742
0.000287369
0.00030607
0.000318364
0.000327086
0.00033407
0.000359849
0.000378433
0.000376745
0.000429383
0.00067021
0.000956637
0.00301672
0.00143211
0.000180442
0.000169059
0.00016463
0.000162759
0.000162999
0.000163835
0.000164842
0.000166727
0.000169283
0.000171976
0.000174285
0.000175854
0.000175133
0.000173493
0.000173489
0.000175978
0.00017983
0.000180795
0.000179919
0.000178433
0.000176959
0.00017573
0.000174444
0.000172843
0.0001709
0.000168971
0.000167611
0.000167015
0.00016732
0.00016907
0.000172585
0.000177728
0.000181587
0.000182542
0.000182343
0.000181134
0.000179686
0.000177651
0.000172714
0.000156125
0.000110992
7.31972e-05
5.77544e-05
5.45666e-05
5.77874e-05
7.35634e-05
0.000182916
0.000281459
0.000301125
0.000312351
0.000320499
0.000336479
0.000400917
0.000397419
0.000389679
0.000433161
0.000670799
0.000957004
0.00301574
0.00149379
0.000279045
0.000225436
0.000212984
0.000210833
0.000212746
0.000215561
0.000218734
0.000222612
0.000226719
0.000230365
0.000233205
0.000235032
0.000234937
0.000234479
0.000234343
0.000234948
0.00023434
0.000232831
0.000230903
0.000228972
0.000227362
0.000226139
0.000224954
0.000223662
0.000222403
0.000221682
0.000221887
0.000222849
0.000224449
0.000226535
0.000227714
0.000226888
0.000223997
0.00021971
0.00021454
0.000208781
0.000202937
0.000197374
0.000192546
0.000187952
0.000181966
0.000165642
0.000146778
0.00013949
0.000135977
0.000146641
0.000231726
0.000285867
0.000304484
0.000313322
0.000325945
0.000437675
0.000481822
0.000455435
0.000435641
0.00045079
0.000669508
0.000957402
0.00301602
0.00128436
0.000497134
0.000434791
0.000380442
0.000356422
0.000346344
0.000342726
0.000340556
0.000338792
0.000337058
0.000334883
0.000332319
0.000329431
0.000326237
0.000322896
0.000319491
0.00031603
0.000312404
0.000308724
0.000304932
0.000301075
0.000297196
0.000293359
0.000289476
0.000285544
0.000281569
0.000277654
0.000273775
0.000269772
0.000265448
0.000260691
0.000255461
0.000249781
0.000243749
0.000237416
0.0002309
0.000224286
0.000217641
0.000211007
0.000206277
0.000203821
0.000203467
0.000205302
0.000208875
0.000213783
0.000220958
0.000233207
0.000257219
0.000287357
0.000307552
0.000320003
0.000428054
0.000563847
0.00055329
0.000536803
0.000523538
0.000518023
0.000652821
0.000953602
0.00301659
0.00104057
0.000494351
0.000475939
0.000482748
0.00047074
0.000455989
0.000438913
0.000423236
0.000409675
0.00039872
0.000389529
0.000381867
0.000375459
0.000369929
0.000364755
0.000359701
0.000354774
0.000349858
0.000344773
0.00033943
0.000333981
0.000328561
0.00032323
0.000317963
0.000312762
0.000307586
0.000302411
0.000297156
0.000291792
0.000286233
0.000280406
0.000274304
0.000267952
0.000261384
0.000254621
0.000247773
0.000241011
0.000234463
0.000228181
0.000222118
0.000216794
0.000213793
0.000214523
0.000218528
0.000223481
0.000228546
0.000235374
0.000259047
0.000294261
0.000317886
0.000413225
0.000619864
0.000625803
0.00062061
0.000618142
0.000613696
0.000613788
0.00063473
0.000919568
0.00301483
0.000881149
0.000457207
0.000438136
0.000449542
0.000449882
0.000461255
0.00046441
0.00047113
0.000477653
0.000482374
0.000483684
0.000481956
0.000476699
0.000469298
0.000461286
0.000453309
0.00044534
0.000437032
0.00042841
0.000418821
0.000408124
0.000396496
0.000384188
0.000371589
0.000359237
0.00034779
0.000337598
0.000328451
0.000320005
0.000311926
0.000303957
0.000295837
0.000287318
0.000278232
0.000268598
0.000258593
0.000248451
0.000238458
0.00022874
0.000221227
0.000216751
0.000215946
0.000218732
0.00022281
0.000224497
0.000224442
0.000233478
0.000262294
0.000302904
0.000471274
0.000728935
0.000735317
0.000734935
0.000732069
0.000731989
0.000728504
0.000729887
0.000725295
0.000844291
0.00299466
0.000731665
0.000418688
0.000394293
0.000397053
0.000393784
0.000398409
0.000399298
0.000403744
0.000409408
0.000416858
0.000424062
0.000432057
0.000438467
0.000443033
0.000446335
0.000448964
0.000450633
0.00045246
0.000455637
0.000460796
0.000467852
0.000475871
0.000484245
0.000491911
0.000497813
0.000500292
0.000498237
0.000491508
0.000480845
0.000467199
0.000451794
0.000435169
0.000416889
0.000396137
0.000372687
0.000347222
0.00032082
0.000295967
0.000274811
0.000258169
0.000245969
0.000237506
0.000231206
0.000224816
0.000221618
0.000223139
0.000237629
0.00028041
0.000619602
0.000944936
0.000954967
0.00095317
0.000953719
0.000950718
0.000951449
0.00094736
0.000949684
0.000943555
0.000970375
0.00288666
0.000411606
0.000380311
0.000344403
0.000339039
0.000332937
0.000331196
0.000330062
0.000330367
0.000331829
0.000333953
0.000337169
0.000340733
0.000345179
0.000349817
0.000355142
0.000360538
0.000366647
0.000373086
0.000380408
0.000388506
0.00039785
0.000408365
0.000420408
0.000433899
0.000449034
0.000465651
0.000483646
0.000502649
0.000522514
0.000543034
0.00056403
0.000585126
0.000606289
0.000627728
0.000649994
0.000673702
0.00069966
0.000729198
0.000765053
0.00081078
0.000868392
0.000940751
0.00103035
0.00113816
0.0012607
0.0013979
0.00157689
0.00173561
0.00179471
0.00182792
0.00184768
0.0018676
0.00187124
0.00188386
0.00187905
0.00188867
0.00188004
0.00188901
0.00187635
0.00184825
0.000434511
0.00039413
0.000353996
0.000345749
0.000337398
0.000334526
0.000332516
0.000332255
0.000333471
0.000335379
0.000338583
0.000342136
0.000346741
0.000351574
0.000357209
0.000363009
0.000369553
0.000376483
0.000384321
0.000393026
0.000403095
0.000414504
0.000427584
0.000442234
0.000458525
0.000476109
0.000494877
0.000514578
0.000535111
0.000556232
0.000577738
0.000599283
0.00062079
0.000642273
0.000664062
0.000686729
0.000711149
0.000738643
0.000771131
0.000812972
0.000866074
0.000932568
0.001015
0.00111492
0.00123137
0.00136837
0.00155214
0.00173582
0.00180482
0.00183834
0.00185713
0.00187552
0.00187821
0.00188981
0.00188468
0.00189374
0.00188518
0.00189367
0.00187889
0.00182399
0.000756884
0.000433351
0.000404485
0.000402281
0.000396672
0.000398768
0.0003992
0.000402349
0.00040664
0.000412848
0.000418406
0.000426348
0.000432848
0.000438888
0.0004441
0.000447727
0.000450206
0.000452626
0.000455871
0.000460981
0.00046803
0.000476246
0.000484645
0.000491384
0.000494874
0.000493261
0.000486183
0.000474227
0.000458653
0.000441011
0.000422656
0.000403948
0.000384753
0.000364624
0.000342939
0.000320059
0.000297011
0.000275479
0.000256984
0.000242
0.0002305
0.000221935
0.000215324
0.000209136
0.000205208
0.000205501
0.000219083
0.000261017
0.00055266
0.000924165
0.000940615
0.00094069
0.000944364
0.00094192
0.000945512
0.000940731
0.000945699
0.000938246
0.000968454
0.00286867
0.000953632
0.000473868
0.000449324
0.000454391
0.000451958
0.000460061
0.000462837
0.000468551
0.00047337
0.000477885
0.000478272
0.000477884
0.000473439
0.000466866
0.000458696
0.000449631
0.000440127
0.000430252
0.000419841
0.00040799
0.000394542
0.000379874
0.000364861
0.000350438
0.000337183
0.000325525
0.000315197
0.000305736
0.000296833
0.00028835
0.000280145
0.000271971
0.000263688
0.000255147
0.000246302
0.000237253
0.000228222
0.00021946
0.000211056
0.000204592
0.000200465
0.000198945
0.000200305
0.00020342
0.000204872
0.000205551
0.000215746
0.000246849
0.00028976
0.000449075
0.000711777
0.000721691
0.000724692
0.000723054
0.000725705
0.000722433
0.000725756
0.000720753
0.000847053
0.00299104
0.00111873
0.000510248
0.000486562
0.000489101
0.000475579
0.000458301
0.000437199
0.000417104
0.000400278
0.00038673
0.000375778
0.000366279
0.000358231
0.000351009
0.00034447
0.000338172
0.000331959
0.000325471
0.000318904
0.000312182
0.000305461
0.000298888
0.000292549
0.000286477
0.000280668
0.000275075
0.000269645
0.000264305
0.000259005
0.000253663
0.000248144
0.000242237
0.000235777
0.000228669
0.000220963
0.000212781
0.000204276
0.000195587
0.00018686
0.000178395
0.000171016
0.000169639
0.000173964
0.000183349
0.000196165
0.000207994
0.000217879
0.000244593
0.000282077
0.000309661
0.000377368
0.0005914
0.000608758
0.000607746
0.000610216
0.0006073
0.000610311
0.000636633
0.000925207
0.00301341
0.00128614
0.000512431
0.000452419
0.000393549
0.000363076
0.000343403
0.00033135
0.000321763
0.000313675
0.000306813
0.000300801
0.000295497
0.00029076
0.000286396
0.000282293
0.000279263
0.000276221
0.000272337
0.000267952
0.000263277
0.000258508
0.000253775
0.00024921
0.00024489
0.000240811
0.000236815
0.00023277
0.000228648
0.000224442
0.000220255
0.000216103
0.000211762
0.00020694
0.000201317
0.000194837
0.000187641
0.000180011
0.000172323
0.000164945
0.000158312
0.000151646
0.000150133
0.000156622
0.000169229
0.000183636
0.000196068
0.00021018
0.000238703
0.000275003
0.000302088
0.000313718
0.000338289
0.000473605
0.000490001
0.000492854
0.000491654
0.000501931
0.000659018
0.000954232
0.00301627
0.00143216
0.000343661
0.000274867
0.00025095
0.000244372
0.000239025
0.000233842
0.00022864
0.000223554
0.000219263
0.000215492
0.000212269
0.000209636
0.000207395
0.000206237
0.000207633
0.00021053
0.000212251
0.000211209
0.000209409
0.000207591
0.000205947
0.000204662
0.000203931
0.000203986
0.000204874
0.000205914
0.000206322
0.000205868
0.000204793
0.000203245
0.000201074
0.000197757
0.00019296
0.000186945
0.000180052
0.000172646
0.00016507
0.000157883
0.000151719
0.000146279
0.000144269
0.000149775
0.000155829
0.000154524
0.000149583
0.000145915
0.000183075
0.000262439
0.000288192
0.000298899
0.000307618
0.000336067
0.000390226
0.00039283
0.000392089
0.000435731
0.000672446
0.000957999
0.00301754
0.00150038
0.000195115
0.000180501
0.000174026
0.000172438
0.000171253
0.000169859
0.000168162
0.000166227
0.000164585
0.000163285
0.000162377
0.000161838
0.000161413
0.000161615
0.000163181
0.000165653
0.000167639
0.000167792
0.000167008
0.000165847
0.000164521
0.00016314
0.000161836
0.000160812
0.00016039
0.000160626
0.000161193
0.00016176
0.000162444
0.000163547
0.000165012
0.000169412
0.000171975
0.000171803
0.00016928
0.000165045
0.000159845
0.000154789
0.000150844
0.000147973
0.000145931
0.000136629
0.000108043
8.06101e-05
6.71739e-05
6.77816e-05
0.000110113
0.000242225
0.000273005
0.000286886
0.000296926
0.000308958
0.000370012
0.000379972
0.000379151
0.000430171
0.000672846
0.000957776
0.0030176
0.00126395
0.000168002
0.000156857
0.000150509
0.000150695
0.000151551
0.000152464
0.000153047
0.000152909
0.000152474
0.000151962
0.00015129
0.000150736
0.00014963
0.000148876
0.00015032
0.000152033
0.00015241
0.00015165
0.000150087
0.00014795
0.000145505
0.000143016
0.000140739
0.000138795
0.000137301
0.000136236
0.000135525
0.000134967
0.000134574
0.000134755
0.000135573
0.00013698
0.000139074
0.000142178
0.000146033
0.000149001
0.00015042
0.000151436
0.000152569
0.000151981
0.000135608
8.82475e-05
5.43272e-05
4.05323e-05
3.83031e-05
4.4607e-05
9.1453e-05
0.000247426
0.00027661
0.00029163
0.000302922
0.000312278
0.000352124
0.000378999
0.000378052
0.000429807
0.000671574
0.000957248
0.00301724
0.000761146
0.000166093
0.000154273
0.000146712
0.000144678
0.000143427
0.000142594
0.000141339
0.000139944
0.000139047
0.000138282
0.000137044
0.0001363
0.000135748
0.000135158
0.000135288
0.000135499
0.000135289
0.000134704
0.000133134
0.000131125
0.000129056
0.000127367
0.000126206
0.000125726
0.000125903
0.000126433
0.000127185
0.000128005
0.000128771
0.000129332
0.000129786
0.000130406
0.000131268
0.000132454
0.000134018
0.00013581
0.000137877
0.000142171
0.000149628
0.000156125
0.000141941
6.80222e-05
3.60966e-05
3.1174e-05
3.3507e-05
4.20043e-05
0.000117687
0.000279493
0.000301585
0.000315679
0.000325852
0.000333404
0.000349829
0.000378369
0.000377455
0.000429526
0.000670662
0.000956883
0.00301711
0.000606547
0.000148089
0.00013886
0.000133621
0.000129827
0.000127926
0.000127077
0.000125993
0.000124277
0.000124774
0.000126402
0.000126536
0.000126148
0.000125879
0.000126105
0.000127314
0.000128228
0.000129268
0.000129926
0.000129409
0.000127753
0.000125023
0.000120945
0.000115878
0.000110925
0.000108529
0.00010918
0.000110629
0.000111449
0.00011177
0.00011181
0.000112026
0.000113126
0.000116314
0.00012067
0.000125092
0.000131797
0.000138546
0.000141026
0.000141786
0.000147525
0.000146736
7.30514e-05
3.41544e-05
3.30959e-05
3.69302e-05
5.09282e-05
0.000197259
0.000325925
0.000343345
0.000354616
0.000362544
0.000368168
0.00037313
0.000378928
0.000377618
0.000429356
0.00067088
0.000956854
0.00301718
0.000627314
0.000160323
0.000142182
0.00013636
0.000137182
0.000137949
0.000139077
0.000139701
0.00014048
0.000141828
0.000142195
0.000142657
0.000143288
0.000143541
0.000143583
0.000142959
0.000142169
0.000142209
0.000142638
0.000142981
0.000143343
0.000143086
0.00014149
0.000138895
0.000135526
0.000132659
0.000132008
0.000132359
0.000131895
0.000129639
0.000125394
0.000121131
0.000117885
0.000117214
0.000118707
0.000123015
0.000131429
0.000141976
0.000148846
0.000154531
0.000165263
0.000168756
8.28525e-05
3.92111e-05
4.01977e-05
4.50153e-05
7.06066e-05
0.000278264
0.000349731
0.000363599
0.000372101
0.000377807
0.000381651
0.000383451
0.000379558
0.000377917
0.00042945
0.000671621
0.000957071
0.00301725
0.00063839
0.000177443
0.000145896
0.000131836
0.000132373
0.000132105
0.00013187
0.000132269
0.000132923
0.000133654
0.000134514
0.00013548
0.000136615
0.000136946
0.000137655
0.000139677
0.000139093
0.000134569
0.000135742
0.000137979
0.000139492
0.000140625
0.000140269
0.000139158
0.000138096
0.000137121
0.000136142
0.00013498
0.000133468
0.000131145
0.000127152
0.000120726
0.000114034
0.00011345
0.00011673
0.000125805
0.000138962
0.000150386
0.000160543
0.000173907
0.000191413
0.000180336
7.72e-05
3.96734e-05
4.07666e-05
4.63124e-05
9.1097e-05
0.000313642
0.000352296
0.00036668
0.000374795
0.000379868
0.000383095
0.000384074
0.000379548
0.000377878
0.000429512
0.000671631
0.000957294
0.00301801
0.000639449
0.000210893
0.000134952
0.000128318
0.000130378
0.000131246
0.000131873
0.000132837
0.000133564
0.000134273
0.000134748
0.00013447
0.000135041
0.00013686
0.000139957
0.000141856
0.000141126
0.000135173
0.000134702
0.000138701
0.000142183
0.000141883
0.000142236
0.000143174
0.000144077
0.000144781
0.000145642
0.000147
0.000148271
0.000148807
0.00014849
0.000147285
0.000145012
0.00014097
0.000137357
0.000138418
0.000142869
0.000152035
0.000162948
0.000173953
0.000185336
0.00018009
8.18796e-05
3.94314e-05
3.97574e-05
4.47506e-05
7.64061e-05
0.000289004
0.000344834
0.000359696
0.00036829
0.000373764
0.000377326
0.000379553
0.000379295
0.000377824
0.00042956
0.000671498
0.000957505
0.00301862
0.00063076
0.000154717
0.000145149
0.000138796
0.000140556
0.000141793
0.000142992
0.000143889
0.000144412
0.000145246
0.00014681
0.000148462
0.000149659
0.000150184
0.000150408
0.000150477
0.000150287
0.000150537
0.000151368
0.00015203
0.000152154
0.000152607
0.000153848
0.000154203
0.000153509
0.000153336
0.000154272
0.000156072
0.000155744
0.000153808
0.000151272
0.000148879
0.000145959
0.000140998
0.000133237
0.000130512
0.00013337
0.000141434
0.000151455
0.000158367
0.000166794
0.000165477
8.34954e-05
3.81707e-05
3.757e-05
4.12024e-05
5.71917e-05
0.000211071
0.000325476
0.000342259
0.000352889
0.000360228
0.00036537
0.000370305
0.000378672
0.000377767
0.000429561
0.000671266
0.00095747
0.00301846
0.000582645
0.000171753
0.00016403
0.000150623
0.000155772
0.000155274
0.00015533
0.000155143
0.000154867
0.000153708
0.000152543
0.000151812
0.000151112
0.000150198
0.000149073
0.000148057
0.000147719
0.00014634
0.00014635
0.00014676
0.000146605
0.000146357
0.000145545
0.000144049
0.000142364
0.000140618
0.000138078
0.0001347
0.000130571
0.000126103
0.000122997
0.000123888
0.000128642
0.000134543
0.000140777
0.000146982
0.000152896
0.00016119
0.000172603
0.000186094
0.000189268
0.000166029
9.0209e-05
4.01987e-05
3.56571e-05
3.74518e-05
4.51288e-05
0.00012736
0.000287262
0.000305641
0.000318472
0.000328402
0.00033603
0.00034627
0.00037678
0.000378035
0.000429525
0.000671534
0.000956723
0.00301672
0.000542022
0.000189737
0.000186953
0.000180451
0.000173639
0.000167426
0.000161716
0.000156722
0.000152063
0.000148096
0.000145268
0.000143259
0.000141901
0.000141492
0.000142389
0.000144463
0.000147611
0.000150617
0.000150672
0.000149053
0.000146092
0.000142497
0.000138163
0.000131868
0.000130125
0.000132363
0.000134196
0.000132041
0.000123735
0.000125626
0.000135394
0.000142505
0.000148009
0.000154461
0.000161039
0.000166555
0.000173718
0.000183304
0.000191589
0.000191748
0.000184862
0.000169554
9.53226e-05
4.66022e-05
3.58518e-05
3.61578e-05
4.20264e-05
9.57825e-05
0.000248399
0.000268298
0.000280614
0.000290363
0.000298243
0.000323845
0.000377469
0.000378184
0.000429626
0.000672305
0.000956893
0.00301622
0.000738597
0.000190324
0.000181394
0.000173546
0.000166975
0.000161143
0.000155884
0.000151736
0.000147799
0.00014468
0.000142398
0.000140873
0.000139738
0.000139257
0.000139756
0.000141274
0.000143779
0.000146482
0.000147176
0.000146317
0.000144516
0.000141774
0.000138499
0.000135138
0.000133895
0.000134534
0.00013625
0.000136535
0.000134688
0.000135642
0.000139622
0.000145184
0.000152186
0.00016393
0.000167753
0.000171032
0.000172956
0.000172017
0.000171145
0.000164948
0.000142353
0.000110359
7.16369e-05
4.97499e-05
4.06787e-05
4.06977e-05
4.64214e-05
9.39803e-05
0.000236407
0.000259332
0.000272535
0.000283494
0.000292692
0.000324999
0.000377786
0.000378109
0.000429603
0.000671515
0.000956644