/*--------------------------------*- C++ -*----------------------------------*\
| =========                 |                                                 |
| \\      /  F ield         | OpenFOAM: The Open Source CFD Toolbox           |
|  \\    /   O peration     | Version:  2.1.1                                 |
|   \\  /    A nd           | Web:      www.OpenFOAM.org                      |
|    \\/     M anipulation  |                                                 |
\*---------------------------------------------------------------------------*/
FoamFile
{
    version     2.0;
    format      ascii;
    class       volVectorField;
    location    "0.00105";
    object      U;
}
// * * * * * * * * * * * * * * * * * * * * * * * * * * * * * * * * * * * * * //

dimensions      [0 1 -1 0 0 0 0];

internalField   nonuniform List<vector> 
36520
(
(-0.855973 -1.35865 -0.623916)
(-0.831916 -0.344878 0.0112709)
(-2.19415 -0.19197 0.137952)
(-2.50771 0.201723 0.104058)
(-3.03668 0.312891 0.0892849)
(-3.26325 0.431309 0.0680505)
(-3.52531 0.465172 0.0599868)
(-3.75198 0.502579 0.0554727)
(-3.93614 0.481377 0.0474559)
(-4.11951 0.47118 0.0383415)
(-4.23165 0.42105 0.025998)
(-4.32394 0.398464 0.0173077)
(-4.3612 0.368705 0.00677426)
(-4.39612 0.36873 0.00561085)
(-4.39682 0.381815 0.00520153)
(-4.42506 0.423741 0.0120073)
(-4.45976 0.483958 0.0217482)
(-4.54773 0.562917 0.0349941)
(-4.67769 0.64784 0.0495371)
(-4.87568 0.726481 0.0639457)
(-5.1167 0.78265 0.0753375)
(-5.40123 0.806187 0.0833742)
(-5.69258 0.788856 0.0860258)
(-5.97239 0.739218 0.0828411)
(-6.2144 0.671073 0.0759779)
(-6.42284 0.59561 0.0690124)
(-6.59406 0.523098 0.0627737)
(-6.73484 0.459467 0.0555347)
(-6.8464 0.411829 0.0490247)
(-6.94008 0.384912 0.0433282)
(-7.01521 0.382537 0.0382625)
(-7.0826 0.408695 0.0353568)
(-7.15348 0.465521 0.0395109)
(-7.25148 0.553494 0.0527205)
(-7.40048 0.661681 0.0765087)
(-7.63645 0.781805 0.113321)
(-8.0004 0.88873 0.163358)
(-8.53244 0.961501 0.228302)
(-9.27652 0.975413 0.306601)
(-10.2551 0.890134 0.391605)
(-11.4564 0.649198 0.467188)
(-12.7803 0.181539 0.507609)
(-13.9351 -0.562545 0.436672)
(-14.6216 -1.53775 0.269689)
(-14.6284 -2.75066 0.0618609)
(-13.741 -4.20066 -0.254749)
(-11.0979 -5.67152 -0.628306)
(-7.5508 -6.20457 -0.821105)
(-4.22297 -5.52577 -0.606182)
(-2.29816 -4.54644 -0.405622)
(-0.90992 -3.55066 -0.247301)
(-0.470335 -2.72366 -0.1468)
(0.0674288 -2.05567 -0.0844279)
(-0.0414373 -1.56511 -0.0477692)
(0.283941 -1.17086 -0.0256227)
(-0.0249123 -0.91124 -0.0117662)
(0.298976 -0.693587 -0.0051812)
(-0.111144 -0.574154 0.000773815)
(0.261362 -0.477916 0.00140638)
(-0.196437 -0.439589 0.00398763)
(-2.38757 -1.29499 -0.36852)
(-2.99089 -0.0647295 0.143551)
(-4.05858 -0.0390444 0.264231)
(-4.36641 0.355437 0.196484)
(-4.82843 0.353746 0.174889)
(-5.03272 0.485077 0.116244)
(-5.29981 0.465236 0.120875)
(-5.50173 0.498651 0.0989327)
(-5.69092 0.453107 0.0918442)
(-5.86247 0.428361 0.0669995)
(-5.97517 0.361005 0.0458285)
(-6.05774 0.325654 0.0188797)
(-6.09386 0.282325 0.00140419)
(-6.12177 0.26851 -0.00806659)
(-6.11254 0.276224 -0.00319125)
(-6.14363 0.304124 0.0132035)
(-6.16458 0.359013 0.0399421)
(-6.25143 0.423462 0.0734733)
(-6.36653 0.502026 0.112246)
(-6.5593 0.567309 0.151746)
(-6.78418 0.615049 0.184322)
(-7.05801 0.626115 0.208579)
(-7.32826 0.599114 0.217731)
(-7.58779 0.537242 0.207851)
(-7.79847 0.459187 0.18708)
(-7.97577 0.375319 0.165116)
(-8.11176 0.297976 0.145759)
(-8.21886 0.230257 0.126211)
(-8.29194 0.178318 0.108968)
(-8.34668 0.147681 0.0946989)
(-8.38006 0.141715 0.0851786)
(-8.40398 0.162762 0.0840484)
(-8.43012 0.212641 0.103365)
(-8.48217 0.289312 0.152955)
(-8.58242 0.386594 0.241122)
(-8.76884 0.49882 0.373023)
(-9.07852 0.602754 0.549373)
(-9.54773 0.680349 0.764063)
(-10.2165 0.703519 1.00561)
(-11.1134 0.625387 1.24125)
(-12.2321 0.399797 1.4333)
(-13.4902 -0.0528011 1.47654)
(-14.5943 -0.836283 1.2116)
(-15.2123 -1.89005 0.697197)
(-15.1818 -3.18252 0.0257582)
(-14.3028 -4.81822 -0.90909)
(-11.5387 -6.46285 -1.99014)
(-7.58665 -7.00362 -2.5611)
(-4.02266 -6.04453 -1.86702)
(-2.12275 -4.89011 -1.24645)
(-0.754137 -3.76953 -0.766619)
(-0.386635 -2.87202 -0.467801)
(0.146187 -2.15459 -0.281467)
(-0.0161461 -1.63521 -0.172709)
(0.330036 -1.21875 -0.104927)
(-0.0285391 -0.946445 -0.0656427)
(0.334869 -0.718334 -0.0431092)
(-0.132201 -0.593573 -0.0285949)
(0.296248 -0.493171 -0.0229541)
(-0.229886 -0.452823 -0.0180414)
(-2.83576 -1.1825 0.0775454)
(-3.51316 0.0133578 0.35895)
(-4.56503 0.0202779 0.451214)
(-4.86734 0.380077 0.338662)
(-5.24938 0.352841 0.307644)
(-5.42878 0.502574 0.231926)
(-5.67348 0.454089 0.227059)
(-5.8634 0.504878 0.206487)
(-6.04971 0.44914 0.180667)
(-6.21974 0.41971 0.149097)
(-6.33203 0.348747 0.102087)
(-6.40428 0.304147 0.0606002)
(-6.43651 0.262879 0.0244507)
(-6.45562 0.245313 0.00347627)
(-6.43242 0.263352 0.00829041)
(-6.45537 0.296189 0.0354981)
(-6.46032 0.3648 0.0804184)
(-6.53741 0.43841 0.136832)
(-6.63527 0.530849 0.203907)
(-6.81739 0.6064 0.271056)
(-7.02506 0.663211 0.326497)
(-7.28763 0.678195 0.367512)
(-7.5451 0.650646 0.381531)
(-7.79462 0.583452 0.36321)
(-7.98914 0.500716 0.322667)
(-8.14982 0.414042 0.279543)
(-8.27057 0.335266 0.243372)
(-8.36511 0.265229 0.20447)
(-8.42593 0.210609 0.170497)
(-8.46753 0.179201 0.142423)
(-8.49081 0.171064 0.117251)
(-8.50258 0.191988 0.100607)
(-8.51249 0.245108 0.112429)
(-8.53988 0.333186 0.16771)
(-8.60749 0.450205 0.282892)
(-8.75258 0.592733 0.468584)
(-9.00742 0.737897 0.72941)
(-9.40525 0.871089 1.05131)
(-9.97678 0.966661 1.41449)
(-10.7405 0.980145 1.77245)
(-11.702 0.876765 2.06455)
(-12.8148 0.535522 2.15265)
(-13.8169 -0.255849 1.75281)
(-14.452 -1.43488 0.939094)
(-14.6529 -2.95447 -0.090747)
(-14.2655 -4.90903 -1.44291)
(-12.1342 -7.17986 -3.37132)
(-7.60807 -7.94503 -4.28434)
(-3.64491 -6.55777 -3.07999)
(-1.76646 -5.15679 -2.00878)
(-0.504489 -3.89857 -1.21978)
(-0.225988 -2.93954 -0.734385)
(0.243504 -2.18799 -0.434947)
(0.0454606 -1.65343 -0.259848)
(0.366706 -1.22745 -0.150634)
(-0.00557594 -0.952352 -0.0903418)
(0.348951 -0.722112 -0.052289)
(-0.125137 -0.596497 -0.0319867)
(0.301715 -0.495969 -0.0206426)
(-0.230116 -0.455361 -0.0149778)
(-2.99628 -1.19095 0.616827)
(-3.65884 0.0522575 0.545074)
(-4.71254 0.0901607 0.571652)
(-4.99739 0.433972 0.419573)
(-5.34947 0.398131 0.381931)
(-5.51784 0.545731 0.292927)
(-5.75859 0.511547 0.311388)
(-5.94688 0.552 0.27275)
(-6.14194 0.501674 0.257073)
(-6.31317 0.457136 0.213982)
(-6.42658 0.373734 0.153594)
(-6.48803 0.315041 0.0961152)
(-6.50627 0.268462 0.0449291)
(-6.51024 0.248949 0.00822413)
(-6.46297 0.274975 0.00739989)
(-6.46233 0.317607 0.0444798)
(-6.44878 0.401225 0.102321)
(-6.50556 0.488738 0.176062)
(-6.58401 0.596527 0.263483)
(-6.74955 0.687453 0.352439)
(-6.94042 0.757015 0.420833)
(-7.18814 0.784117 0.47155)
(-7.43097 0.7628 0.488365)
(-7.6646 0.692987 0.454511)
(-7.83715 0.603055 0.385605)
(-7.96567 0.512738 0.315689)
(-8.05259 0.433758 0.258624)
(-8.11134 0.364075 0.195882)
(-8.14384 0.311613 0.137634)
(-8.16149 0.277944 0.0880564)
(-8.16566 0.264569 0.0519234)
(-8.15214 0.283293 0.0252008)
(-8.12732 0.340846 0.0386115)
(-8.10596 0.443172 0.106838)
(-8.10938 0.591825 0.250309)
(-8.16709 0.790218 0.477591)
(-8.30085 1.00945 0.80325)
(-8.53406 1.23111 1.19702)
(-8.88018 1.43009 1.62174)
(-9.33091 1.56926 2.02565)
(-9.85306 1.58684 2.33229)
(-10.3868 1.36023 2.39846)
(-10.697 0.510991 1.83977)
(-10.9298 -0.837752 0.830994)
(-11.4826 -2.46101 -0.289647)
(-12.1395 -4.70018 -1.83104)
(-11.7372 -7.8289 -4.43288)
(-7.66703 -9.53628 -6.09157)
(-3.0591 -7.40597 -4.32121)
(-1.2156 -5.54794 -2.70145)
(-0.134978 -4.08718 -1.63353)
(0.00881591 -3.03406 -0.984101)
(0.384779 -2.23109 -0.583129)
(0.134981 -1.67452 -0.351022)
(0.418561 -1.23465 -0.206093)
(0.0280786 -0.955151 -0.127307)
(0.367449 -0.721904 -0.0762458)
(-0.113608 -0.59466 -0.0501421)
(0.307309 -0.493696 -0.0342528)
(-0.22815 -0.452823 -0.0272529)
(-2.98161 -0.800139 1.24351)
(-3.786 0.258092 0.744375)
(-4.79838 0.148638 0.79113)
(-5.10787 0.473196 0.549797)
(-5.41446 0.450256 0.532378)
(-5.56363 0.590259 0.425344)
(-5.78125 0.566155 0.449069)
(-5.95378 0.604545 0.401915)
(-6.14248 0.551624 0.372498)
(-6.30488 0.500675 0.308347)
(-6.41032 0.406923 0.211772)
(-6.46113 0.329603 0.12278)
(-6.44769 0.281121 0.0392318)
(-6.42697 0.256248 -0.0204842)
(-6.33742 0.291688 -0.0340392)
(-6.30327 0.362017 0.00863356)
(-6.25576 0.470517 0.0743034)
(-6.27296 0.582912 0.171175)
(-6.30455 0.717234 0.287001)
(-6.41968 0.837928 0.406762)
(-6.55039 0.930759 0.494423)
(-6.72307 0.973785 0.568817)
(-6.88066 0.956933 0.599461)
(-7.01535 0.88227 0.561393)
(-7.06898 0.784474 0.468923)
(-7.06812 0.686695 0.363908)
(-7.02694 0.600841 0.27643)
(-6.96426 0.522421 0.181732)
(-6.8986 0.460464 0.0804785)
(-6.8511 0.413898 -0.00640509)
(-6.81679 0.389026 -0.0816058)
(-6.78681 0.402276 -0.146953)
(-6.75097 0.464112 -0.174846)
(-6.69863 0.588027 -0.136891)
(-6.64122 0.780671 -0.00196482)
(-6.59286 1.05925 0.262478)
(-6.55551 1.38895 0.638785)
(-6.51591 1.73807 1.09164)
(-6.42712 2.08096 1.56852)
(-6.17953 2.33501 1.95795)
(-5.64778 2.43826 2.21295)
(-4.81673 2.32141 2.2104)
(-3.52699 1.40518 1.61353)
(-2.7418 -0.0178205 0.650116)
(-3.32294 -1.45636 -0.180857)
(-5.18482 -3.72528 -1.66362)
(-7.41085 -7.78907 -4.94495)
(-7.33631 -11.0734 -7.48473)
(-2.21213 -8.62346 -5.60483)
(-0.443757 -6.03056 -3.25664)
(0.344162 -4.3262 -1.95653)
(0.310849 -3.14913 -1.16908)
(0.567419 -2.28457 -0.687386)
(0.249285 -1.70129 -0.413208)
(0.485457 -1.24625 -0.24067)
(0.0716398 -0.960238 -0.148194)
(0.391645 -0.724085 -0.0868123)
(-0.0981927 -0.595 -0.0564232)
(0.314832 -0.493444 -0.0369345)
(-0.225639 -0.45224 -0.0292017)
(-3.40849 -0.693418 1.39058)
(-4.10357 0.246532 0.935326)
(-4.91675 0.25349 0.908214)
(-5.14215 0.602533 0.622193)
(-5.39963 0.580571 0.590237)
(-5.52081 0.723987 0.494294)
(-5.71592 0.712666 0.551033)
(-5.86813 0.732267 0.503894)
(-6.04321 0.684539 0.486294)
(-6.18742 0.602924 0.430882)
(-6.26756 0.481165 0.324248)
(-6.28352 0.360439 0.223134)
(-6.22354 0.304865 0.139976)
(-6.14035 0.299393 0.0585691)
(-5.99571 0.375292 0.0192594)
(-5.88722 0.495325 0.0573848)
(-5.77186 0.634533 0.119211)
(-5.67669 0.769011 0.214791)
(-5.5819 0.922089 0.330887)
(-5.53641 1.05667 0.457864)
(-5.47368 1.16351 0.540503)
(-5.38745 1.20366 0.578887)
(-5.21585 1.16741 0.573474)
(-4.97636 1.05403 0.470416)
(-4.63353 0.906495 0.286292)
(-4.24191 0.767682 0.0948009)
(-3.81961 0.654741 -0.0286663)
(-3.38208 0.533122 -0.146608)
(-3.04836 0.415745 -0.258809)
(-2.8255 0.325523 -0.351914)
(-2.69531 0.253583 -0.432174)
(-2.60454 0.209372 -0.502306)
(-2.53097 0.210439 -0.543931)
(-2.46327 0.305039 -0.530823)
(-2.37757 0.517018 -0.450774)
(-2.26166 0.84948 -0.267116)
(-2.0192 1.25198 0.0352934)
(-1.554 1.63577 0.460594)
(-0.779937 1.94568 0.921771)
(0.289572 2.10418 1.29604)
(1.63496 2.0867 1.547)
(3.25035 1.88707 1.5732)
(5.3168 0.961494 0.984199)
(6.43726 -0.16668 0.265536)
(6.11069 -1.17083 -0.270726)
(4.87602 -2.82969 -1.52649)
(2.59389 -6.6937 -4.93258)
(-3.61141 -11.4694 -8.24653)
(-1.0741 -9.9761 -6.74592)
(0.601557 -6.59238 -3.67842)
(0.923339 -4.58377 -2.16158)
(0.673505 -3.27277 -1.27851)
(0.782778 -2.34263 -0.751138)
(0.382655 -1.72945 -0.452842)
(0.564027 -1.25797 -0.26489)
(0.122251 -0.964741 -0.164194)
(0.419835 -0.724891 -0.09741)
(-0.0803271 -0.594036 -0.0642083)
(0.32346 -0.491652 -0.0428908)
(-0.222747 -0.450391 -0.0345214)
(-3.46508 1.80861 2.30699)
(-4.32208 0.77756 1.1341)
(-4.85651 0.493686 1.15111)
(-5.10327 0.659191 0.782197)
(-5.22262 0.634426 0.764411)
(-5.29508 0.73228 0.650265)
(-5.42708 0.757582 0.698981)
(-5.5297 0.806713 0.653766)
(-5.6241 0.782784 0.605858)
(-5.70454 0.72921 0.474216)
(-5.68104 0.628405 0.30554)
(-5.57379 0.508064 0.13618)
(-5.40493 0.43932 0.00266121)
(-5.17429 0.412004 -0.13969)
(-4.90713 0.462634 -0.232804)
(-4.66066 0.584246 -0.245104)
(-4.39202 0.732435 -0.212634)
(-4.10091 0.911023 -0.0981114)
(-3.76545 1.10529 0.0446354)
(-3.4018 1.28452 0.176516)
(-2.90321 1.41674 0.225446)
(-2.37031 1.50757 0.255401)
(-1.71859 1.48289 0.278812)
(-0.944074 1.31319 0.239225)
(-0.0521014 1.06453 0.110851)
(0.760008 0.866994 -0.0570661)
(1.48209 0.759052 -0.189981)
(2.22153 0.658877 -0.295803)
(2.84939 0.550178 -0.402395)
(3.31995 0.438161 -0.509653)
(3.60478 0.312729 -0.60534)
(3.74549 0.205701 -0.705478)
(3.75661 0.134992 -0.743583)
(3.7154 0.138555 -0.697883)
(3.76107 0.239149 -0.566899)
(4.00807 0.434044 -0.356717)
(4.47619 0.704881 -0.0732894)
(5.24571 0.978206 0.268273)
(6.2452 1.22979 0.599002)
(7.44755 1.40527 0.879482)
(8.95629 1.46433 0.989027)
(10.821 1.31564 0.85328)
(12.934 0.727559 0.477001)
(14.3761 -0.0693615 -0.0806312)
(15.0239 -0.901358 -0.860465)
(14.9331 -2.19642 -1.97917)
(13.6088 -4.29503 -3.65143)
(6.82689 -8.59346 -6.38357)
(0.848504 -10.9668 -7.00193)
(1.89447 -7.16379 -3.88176)
(1.61151 -4.82362 -2.20533)
(1.08271 -3.38879 -1.29794)
(1.02586 -2.39664 -0.762173)
(0.533298 -1.75491 -0.459954)
(0.654028 -1.26864 -0.269229)
(0.180401 -0.968363 -0.166747)
(0.452811 -0.725147 -0.0985994)
(-0.0591703 -0.592779 -0.0647303)
(0.333766 -0.489587 -0.0426829)
(-0.219453 -0.448116 -0.0344366)
(-4.33237 -0.205567 1.84278)
(-4.70896 -0.111133 1.0973)
(-4.38326 0.376757 1.24031)
(-4.37202 0.768847 0.834488)
(-4.09988 0.881939 0.795645)
(-3.9574 1.00267 0.766502)
(-3.82173 1.06349 0.865644)
(-3.69379 1.08071 0.780663)
(-3.55696 0.981265 0.728601)
(-3.40429 0.796067 0.614384)
(-3.12523 0.470553 0.375562)
(-2.715 0.149137 0.152611)
(-2.28179 -0.0244638 0.0321091)
(-1.76818 -0.0217217 -0.129998)
(-1.31344 0.14677 -0.262567)
(-0.883816 0.434605 -0.254606)
(-0.289848 0.750428 -0.208334)
(0.334311 1.02537 -0.13745)
(0.971874 1.27964 -0.0404822)
(1.64022 1.52318 0.0853131)
(2.46891 1.69852 0.135393)
(3.29329 1.79131 0.117719)
(4.1825 1.77553 0.0667409)
(5.19757 1.62406 -0.0628504)
(6.34383 1.31794 -0.27369)
(7.35664 0.968436 -0.444531)
(8.18629 0.718118 -0.565582)
(8.93151 0.569438 -0.665784)
(9.51675 0.462773 -0.726988)
(9.85385 0.366989 -0.74582)
(9.96798 0.277926 -0.784785)
(9.94561 0.186785 -0.898582)
(9.73855 0.0739598 -1.00444)
(9.515 0.0196699 -1.06938)
(9.38058 0.102059 -1.15014)
(9.39212 0.283338 -1.20328)
(9.61733 0.576475 -1.12771)
(10.145 0.999084 -0.79269)
(10.9872 1.40423 -0.151434)
(11.9358 1.48536 0.627372)
(12.8971 1.07664 0.970225)
(14.5567 0.435666 0.704786)
(17.8731 -0.26528 -0.0979623)
(19.3735 -0.552567 -0.61185)
(19.8381 -0.965385 -1.04048)
(19.4772 -1.64301 -1.5186)
(18.1224 -2.89651 -2.348)
(12.8486 -6.4397 -4.4113)
(3.84496 -11.0488 -5.98382)
(3.27954 -7.6279 -3.74482)
(2.35879 -5.00352 -2.12387)
(1.53093 -3.46857 -1.25117)
(1.29802 -2.42633 -0.73602)
(0.704363 -1.76194 -0.445504)
(0.759265 -1.26471 -0.262987)
(0.248536 -0.960511 -0.164211)
(0.492835 -0.716077 -0.0988524)
(-0.0344351 -0.58387 -0.0660614)
(0.346948 -0.48079 -0.0448879)
(-0.216285 -0.439711 -0.0368091)
(-3.9407 16.8998 4.20095)
(-4.8796 3.55788 1.1004)
(-3.60307 0.39585 1.55725)
(-2.84555 0.388177 1.02907)
(-1.46462 0.0339997 1.05031)
(-0.314584 -0.150821 0.875277)
(0.985046 -0.284585 0.910037)
(2.3893 -0.345944 0.922653)
(3.52729 -0.334387 0.822068)
(4.79957 -0.256841 0.586548)
(5.99085 -0.192666 0.382809)
(6.55822 -0.123453 0.22933)
(6.52748 -0.0477485 0.101225)
(6.60302 -0.0206141 -0.0634251)
(6.37193 0.0502713 -0.266483)
(6.21576 0.189425 -0.493622)
(6.53776 0.28318 -0.606157)
(7.49188 0.319422 -0.598797)
(8.58379 0.313439 -0.431072)
(9.71577 0.345113 -0.30196)
(11.1511 0.377422 -0.290202)
(12.679 0.371975 -0.264157)
(14.2253 0.306545 -0.242378)
(15.7277 0.185672 -0.320161)
(17.0319 0.144408 -0.439863)
(17.9546 0.195891 -0.480073)
(18.4937 0.21888 -0.472404)
(18.7874 0.214986 -0.466635)
(18.9583 0.181752 -0.440721)
(19.0311 0.169268 -0.398592)
(19.0113 0.174968 -0.368922)
(18.8614 0.185325 -0.329162)
(18.4896 0.21206 -0.344882)
(18.2184 0.23734 -0.450736)
(18.1102 0.255312 -0.554202)
(18.098 0.256523 -0.583517)
(18.1101 0.237545 -0.536655)
(18.1126 0.178775 -0.306708)
(18.2125 0.200406 0.267955)
(18.8775 0.329416 0.769975)
(20.7606 0.320385 0.449128)
(23.1797 0.0660426 -0.454679)
(23.5387 -0.261028 -0.473948)
(23.2526 -0.416654 -0.310639)
(22.3449 -0.898042 -0.532624)
(21.145 -1.60363 -1.00795)
(19.5411 -2.71965 -1.71587)
(14.5288 -6.49142 -3.46297)
(6.25534 -11.1566 -4.56268)
(4.59946 -8.03883 -3.07457)
(3.06196 -5.28326 -1.76027)
(1.92104 -3.64356 -1.03667)
(1.51417 -2.53102 -0.607923)
(0.827363 -1.8241 -0.366042)
(0.829655 -1.30086 -0.213363)
(0.28906 -0.981758 -0.131665)
(0.515838 -0.728686 -0.0773757)
(-0.0219351 -0.591617 -0.050802)
(0.354056 -0.486013 -0.0332752)
(-0.215394 -0.443704 -0.0270196)
(-2.93089 18.0109 7.18694)
(-4.07162 3.47148 2.20191)
(-2.54091 1.00861 1.57724)
(-0.498727 0.983823 0.526072)
(1.89817 0.655248 0.465167)
(4.26297 0.319954 0.408353)
(6.47956 0.0686892 0.435338)
(8.6641 -0.0469575 0.491441)
(10.9994 -0.132006 0.461082)
(12.794 -0.120915 0.333004)
(13.7047 -0.0691565 0.299866)
(14.3283 -0.0734247 0.32428)
(14.6152 -0.076578 0.311172)
(14.7247 -0.0947425 0.164158)
(14.5099 -0.0706352 0.102547)
(13.7436 -0.00687225 -0.148792)
(12.8901 0.137373 -0.586521)
(12.3794 0.26621 -0.837448)
(12.452 0.256117 -0.739238)
(13.2025 0.201454 -0.535538)
(14.34 0.16697 -0.428971)
(15.5619 0.150386 -0.375364)
(16.8238 0.0945417 -0.390783)
(18.1071 0.00893379 -0.430875)
(19.1707 -0.00481912 -0.435199)
(19.7751 0.0520279 -0.402836)
(20.1358 0.0790454 -0.373359)
(20.3422 0.0871162 -0.366154)
(20.4786 0.0771688 -0.383806)
(20.6535 0.058331 -0.364229)
(20.7162 0.0722036 -0.328152)
(20.7003 0.0809062 -0.281504)
(20.6301 0.0787369 -0.269411)
(20.3994 0.126619 -0.405837)
(19.9369 0.193775 -0.72334)
(19.7373 0.188938 -0.811587)
(19.7833 0.150713 -0.684037)
(20.2404 0.0516528 -0.288837)
(21.7937 -0.0999263 0.42338)
(24.456 -0.15486 0.729935)
(26.376 -0.094795 0.363727)
(26.5945 -0.00293959 0.0919728)
(26.026 0.0671323 -0.0378997)
(23.8241 -0.400627 -0.117629)
(22.5236 -0.916861 -0.289815)
(21.3079 -1.57638 -0.628614)
(19.6517 -2.7314 -1.25043)
(14.4495 -6.92642 -3.05697)
(6.57418 -11.2939 -3.68169)
(4.81345 -8.21928 -2.30092)
(3.2188 -5.45231 -1.28465)
(2.00707 -3.76176 -0.758125)
(1.55744 -2.61167 -0.446864)
(0.845606 -1.87961 -0.270265)
(0.836019 -1.33977 -0.15843)
(0.287086 -1.00966 -0.0979312)
(0.51302 -0.749344 -0.0575122)
(-0.026095 -0.607713 -0.0375885)
(0.35199 -0.499262 -0.0243788)
(-0.21652 -0.455508 -0.019647)
(-1.93428 12.237 5.3777)
(-3.03272 0.199629 1.23968)
(2.72376 -0.968916 0.375209)
(4.81295 -0.572995 -0.298473)
(6.63614 -0.363194 -0.31032)
(7.70431 -0.152777 -0.397193)
(9.20397 0.0212802 -0.226999)
(11.2492 0.0921541 -0.121251)
(13.6781 0.0414715 -0.00218411)
(15.5198 -0.00998064 0.183057)
(16.681 -0.0591295 0.310431)
(17.2124 -0.0898747 0.331993)
(17.3045 -0.130215 0.294489)
(17.2546 -0.188757 0.238024)
(17.0267 -0.2583 0.233398)
(16.2468 -0.286299 0.219626)
(14.3807 -0.176857 0.072182)
(12.1697 0.0298433 -0.192874)
(10.9232 0.280578 -0.482273)
(10.9773 0.412685 -0.628932)
(11.9778 0.424642 -0.673227)
(13.707 0.386752 -0.611172)
(15.6339 0.288861 -0.581306)
(17.5509 0.173909 -0.535154)
(19.2775 0.0916148 -0.393302)
(20.4842 0.0482131 -0.247055)
(21.0639 0.0281004 -0.165699)
(21.3152 0.0237985 -0.144711)
(21.3833 0.00554944 -0.158608)
(21.3554 0.00762759 -0.152749)
(21.3153 0.0259326 -0.161148)
(21.3313 0.0283108 -0.185747)
(21.3565 0.000757868 -0.221959)
(21.2028 -0.0277789 -0.261932)
(20.3218 -0.0450206 -0.329008)
(18.3925 0.0712567 -0.372638)
(17.2069 0.348634 -0.426538)
(17.1996 0.641304 -0.486714)
(18.5767 1.01288 -0.305718)
(22.7715 0.921653 0.484089)
(25.611 0.297872 0.762734)
(26.0275 -0.236076 0.623648)
(25.6249 -0.29791 0.750796)
(23.9314 -0.434456 0.328788)
(22.6789 -0.913814 0.0512699)
(21.6564 -1.51268 -0.1658)
(20.298 -2.55222 -0.548497)
(16.3439 -6.07291 -1.89246)
(8.05036 -10.8787 -2.65357)
(5.29164 -8.26363 -1.55268)
(3.41852 -5.58528 -0.809435)
(2.08629 -3.85308 -0.46264)
(1.59074 -2.67224 -0.268888)
(0.857217 -1.91968 -0.162037)
(0.83863 -1.36694 -0.0952679)
(0.285038 -1.0283 -0.0591849)
(0.510025 -0.763053 -0.035045)
(-0.0288449 -0.618023 -0.0232419)
(0.349653 -0.50776 -0.0150598)
(-0.216591 -0.462926 -0.0125184)
(-3.81476 4.03895 5.13268)
(-3.63126 0.235294 1.49948)
(0.346159 -0.126373 -1.08633)
(-0.60864 0.00288141 -1.03827)
(0.351442 0.155718 -0.493089)
(0.764565 0.712291 -0.257862)
(1.80303 1.26125 -0.11011)
(2.99006 1.43767 -0.0669023)
(4.52168 1.20147 0.0160973)
(6.30755 0.730309 0.140749)
(8.18549 0.267738 0.268641)
(9.58144 -0.020326 0.353408)
(10.3592 -0.192236 0.374056)
(10.6597 -0.311411 0.384527)
(10.7066 -0.453282 0.534961)
(10.4466 -0.661009 0.767724)
(9.77739 -0.940807 0.716508)
(9.09468 -0.924214 0.219574)
(8.75901 -0.356536 -0.361368)
(8.85869 0.279753 -0.652943)
(9.34694 0.72057 -0.720686)
(10.2456 0.994013 -0.718463)
(11.3879 1.00775 -0.783752)
(12.5023 0.790373 -0.855052)
(13.4658 0.520052 -0.764277)
(14.2235 0.305637 -0.554494)
(14.8058 0.196459 -0.352619)
(15.1667 0.167458 -0.219885)
(15.3016 0.16079 -0.169241)
(15.2999 0.140228 -0.163338)
(15.289 0.0797377 -0.220818)
(15.2366 -0.0540932 -0.292115)
(15.2274 -0.167162 -0.238827)
(15.0967 -0.262139 0.0165064)
(14.5918 -0.348873 0.464691)
(14.2346 -0.258254 0.552325)
(14.2161 0.0265004 0.259866)
(14.5926 0.748332 -0.136317)
(15.7182 2.07114 -0.313609)
(18.3665 2.75584 0.138745)
(22.8178 1.51144 0.867388)
(24.1518 -0.647676 0.791996)
(23.6978 -1.27336 0.553707)
(23.3015 -0.771778 0.357002)
(22.4471 -1.05316 0.174068)
(21.5772 -1.65807 0.0610137)
(20.6296 -2.49898 -0.0710685)
(18.4724 -4.44496 -0.383637)
(9.97921 -9.78276 -0.622276)
(5.42875 -8.20511 -0.446657)
(3.34191 -5.57352 -0.23206)
(2.00862 -3.8509 -0.13923)
(1.53533 -2.67707 -0.0857362)
(0.819296 -1.92671 -0.0541713)
(0.811548 -1.37502 -0.0334315)
(0.266394 -1.03572 -0.0217318)
(0.496262 -0.769474 -0.013498)
(-0.0362722 -0.623781 -0.00947316)
(0.343276 -0.512974 -0.00612598)
(-0.216204 -0.468054 -0.00567001)
(-3.99225 3.403 -2.40775)
(-3.7952 0.133701 -0.961538)
(-1.08239 -0.0673414 -0.273107)
(-0.970096 -0.179305 0.00040107)
(0.00384415 0.127908 0.184045)
(0.73585 0.710983 0.367556)
(1.88417 1.21872 0.201208)
(2.95406 1.39686 0.129217)
(4.36398 1.18715 0.241104)
(5.97528 0.769575 0.410044)
(7.73635 0.362729 0.443345)
(9.15822 0.076123 0.347377)
(10.0528 -0.135526 0.217546)
(10.3816 -0.292272 0.0698556)
(10.3607 -0.452973 -0.0747289)
(10.0422 -0.672235 -0.162619)
(9.43073 -0.927574 -0.164286)
(8.80227 -0.885353 -0.0337666)
(8.39137 -0.362382 0.0616184)
(8.34422 0.26314 0.0207772)
(8.67379 0.733676 -0.0877514)
(9.52899 0.986287 -0.184836)
(10.7034 0.967896 -0.157149)
(11.6875 0.830717 0.00642658)
(12.3269 0.695412 0.140924)
(12.7861 0.473636 0.177597)
(13.3085 0.257853 0.181714)
(13.8872 0.138493 0.226749)
(14.3444 0.117806 0.289483)
(14.5074 0.126858 0.299725)
(14.4213 0.16379 0.246383)
(13.9131 0.132621 0.0128037)
(13.4518 0.00683231 -0.20812)
(13.2238 -0.0950546 -0.193394)
(13.2555 -0.137717 -0.025761)
(13.3846 -0.0454147 0.268173)
(13.4884 0.296341 0.526277)
(13.8627 0.875707 0.82575)
(14.9506 1.84383 1.10649)
(17.5761 2.40232 1.53606)
(21.748 1.40339 1.57517)
(23.5854 -0.547319 0.953149)
(23.3165 -1.14681 0.780009)
(23.0644 -0.819421 0.590816)
(22.4406 -1.06252 0.313594)
(21.5632 -1.70303 0.0996243)
(20.5668 -2.5941 0.00963095)
(18.4043 -4.56953 0.116934)
(9.9938 -9.78154 1.03273)
(5.40339 -8.14717 0.57366)
(3.34046 -5.54508 0.259807)
(2.00966 -3.83629 0.136258)
(1.53652 -2.66803 0.0752972)
(0.820474 -1.92047 0.0441224)
(0.81219 -1.37036 0.0249386)
(0.267313 -1.03234 0.0153205)
(0.49668 -0.767056 0.00895862)
(-0.0357061 -0.622159 0.00586148)
(0.343338 -0.511382 0.00379245)
(-0.215886 -0.466975 0.00321892)
(-1.84858 13.3272 -1.77399)
(-1.4597 -0.949416 -1.45046)
(2.91375 -1.73215 -3.03015)
(4.53163 -1.03851 -1.14294)
(5.26718 -0.432979 -0.130081)
(6.14671 -0.110986 0.158456)
(7.67081 0.127812 0.0724949)
(9.34563 0.258852 -0.0412401)
(11.2756 0.22274 -0.0484163)
(13.2071 0.109724 -0.0126277)
(15.0334 -0.0265224 -0.0240431)
(16.3025 -0.0837423 -0.0549593)
(16.9434 -0.127805 -0.019315)
(17.0332 -0.170538 0.0553266)
(16.7173 -0.222432 0.165687)
(15.5705 -0.254367 0.317285)
(13.5487 -0.197163 0.389815)
(11.4679 -0.0670873 0.364708)
(10.4871 0.131018 0.234566)
(10.6614 0.266465 0.124448)
(11.5132 0.343779 -0.0580422)
(12.863 0.316815 -0.309183)
(14.5866 0.235751 -0.404011)
(16.2463 0.195008 -0.191889)
(17.6228 0.158398 0.0866834)
(18.5187 0.112698 0.170047)
(19.0498 0.0667726 0.137273)
(19.274 0.0430127 0.125353)
(19.3402 0.034046 0.179625)
(19.5056 0.00948383 0.208176)
(19.5505 0.0117107 0.201578)
(19.4187 0.00533873 0.196604)
(18.7449 -0.000756485 0.213722)
(17.4136 -0.000441523 0.320236)
(16.1628 0.0442459 0.584913)
(15.1134 0.21277 0.920944)
(14.4859 0.555832 1.27041)
(14.4851 1.05656 1.51615)
(15.2782 1.75937 1.43784)
(17.7964 2.01365 1.09774)
(21.4165 0.85969 1.00797)
(22.8285 -0.753827 0.705025)
(22.785 -1.02101 0.396038)
(22.6631 -0.802163 0.25876)
(22.4216 -0.910706 0.225976)
(21.716 -1.41733 0.195386)
(20.241 -2.62371 0.312054)
(15.1957 -7.21355 1.58821)
(7.85382 -10.7468 2.93252)
(5.0749 -8.07829 1.59265)
(3.36283 -5.51338 0.813748)
(2.06497 -3.82383 0.452324)
(1.5802 -2.65754 0.257851)
(0.85322 -1.91121 0.152741)
(0.83499 -1.36097 0.0871985)
(0.284392 -1.02421 0.0528927)
(0.507765 -0.75932 0.03008)
(-0.0281289 -0.61535 0.0187893)
(0.347745 -0.505099 0.0115604)
(-0.21506 -0.460914 0.00876541)
(-0.208949 27.7486 -8.38181)
(11.6485 -3.10698 0.253283)
(3.51636 -2.10645 0.273066)
(-0.59529 0.131306 0.108199)
(0.186193 0.257298 -0.185379)
(0.956734 0.548483 -0.263865)
(1.9271 0.603763 -0.287542)
(3.10145 0.544872 -0.221636)
(4.12307 0.373152 -0.170117)
(5.36972 0.171856 -0.100359)
(6.47433 0.0484276 -0.00467316)
(7.1917 0.0338224 0.132584)
(7.36953 0.0399641 0.259037)
(7.40891 0.0172159 0.37705)
(7.48573 0.00625553 0.615784)
(7.46566 0.072721 0.894914)
(7.38958 0.130356 1.02548)
(7.43639 0.147369 0.882106)
(7.65894 0.119154 0.41344)
(8.01008 0.141126 0.104089)
(8.35661 0.152092 -0.0485631)
(8.58705 0.124587 -0.216214)
(8.77234 0.149273 -0.246711)
(9.10905 0.215647 0.00630133)
(10.0876 0.213934 0.391807)
(11.0852 0.188775 0.528533)
(11.786 0.180716 0.509872)
(12.1735 0.209782 0.545535)
(12.4274 0.234302 0.641919)
(12.5281 0.194909 0.709429)
(12.4727 0.154375 0.718275)
(12.3223 0.139886 0.796024)
(12.2495 0.219206 0.961785)
(12.3649 0.280271 1.0679)
(12.537 0.378359 1.1986)
(12.7412 0.567452 1.38813)
(13.1268 0.868097 1.54557)
(14.0257 1.30837 1.55515)
(15.8939 1.93 1.35837)
(18.5918 2.31079 1.09748)
(21.8154 1.65119 0.9071)
(23.8035 -0.291819 0.579131)
(23.7206 -0.772142 0.419658)
(23.1941 -0.639338 0.396478)
(22.1228 -1.09118 0.512208)
(20.9473 -1.89336 0.738863)
(18.9867 -3.42665 1.2531)
(11.8326 -9.53292 3.34165)
(6.63847 -11.0398 3.65569)
(4.49702 -7.87743 2.18345)
(3.1363 -5.36944 1.24483)
(1.96529 -3.73564 0.72437)
(1.53276 -2.60376 0.417323)
(0.83246 -1.87852 0.246753)
(0.824629 -1.34033 0.140478)
(0.283045 -1.01171 0.0839608)
(0.506447 -0.751003 0.0467319)
(-0.0256946 -0.610183 0.0289685)
(0.34711 -0.500933 0.0171963)
(-0.213043 -0.45801 0.0131077)
(-5.07816 18.1276 -5.54502)
(-6.10726 5.81336 0.253043)
(-3.95723 2.13713 1.3732)
(-2.95299 1.26997 0.482554)
(-1.9213 0.305573 -0.167265)
(-1.48392 0.371483 -0.219073)
(-0.804752 0.46262 -0.39745)
(0.0191252 0.513338 -0.461945)
(0.836499 0.485011 -0.477327)
(1.86812 0.332502 -0.418745)
(2.84567 0.192707 -0.219801)
(3.79717 0.09254 0.000153144)
(4.55266 0.0439065 0.13505)
(5.08317 -0.0172874 0.175159)
(5.31887 -0.0454543 0.27615)
(5.61509 0.0236132 0.489902)
(6.0342 0.114174 0.631471)
(6.636 0.162376 0.612213)
(7.08307 0.186134 0.520703)
(7.42707 0.241133 0.526568)
(7.84748 0.287579 0.591073)
(8.03248 0.306592 0.57221)
(8.06434 0.332303 0.495528)
(8.2308 0.328213 0.444839)
(8.67923 0.311718 0.425218)
(9.35633 0.318777 0.472106)
(9.79196 0.332446 0.560805)
(9.91378 0.367245 0.693591)
(10.1138 0.403439 0.78976)
(10.5646 0.40039 0.772629)
(11.0072 0.347811 0.676193)
(11.4001 0.32566 0.587227)
(11.7865 0.383114 0.583669)
(12.2716 0.480959 0.758983)
(12.8209 0.652169 1.16478)
(13.4089 0.912598 1.69497)
(14.0962 1.27405 2.11795)
(14.876 1.72579 2.20792)
(15.9958 2.27983 1.75225)
(17.8561 2.38819 0.97155)
(20.8371 1.05327 0.879251)
(22.0973 -0.979909 0.894919)
(21.8319 -1.31679 0.628738)
(21.7305 -1.09211 0.543094)
(21.6007 -1.11757 0.578738)
(21.045 -1.48355 0.892016)
(19.5774 -2.61091 1.82388)
(12.9278 -8.28488 4.76426)
(6.57674 -10.8443 4.37737)
(4.2719 -7.66384 2.84119)
(2.96023 -5.20749 1.67969)
(1.8621 -3.6234 0.992087)
(1.48014 -2.52843 0.576219)
(0.810762 -1.82762 0.342982)
(0.817205 -1.30556 0.19591)
(0.283907 -0.987118 0.118152)
(0.509154 -0.733217 0.0659224)
(-0.0218469 -0.596245 0.0416238)
(0.349319 -0.489685 0.0245402)
(-0.212218 -0.44773 0.0192756)
(-5.09196 1.03351 -2.81358)
(-5.63061 0.24754 -0.838574)
(-4.76403 0.351885 -0.392927)
(-4.41563 0.500744 0.0315384)
(-4.03422 0.666979 -0.155544)
(-3.79536 0.908074 -0.235412)
(-3.56225 1.02046 -0.427251)
(-3.40898 1.07361 -0.469313)
(-3.159 0.97769 -0.498202)
(-2.86498 0.820165 -0.469585)
(-2.44935 0.634043 -0.35496)
(-1.90435 0.395762 -0.191243)
(-1.31954 0.188224 0.010412)
(-0.751623 0.0790726 0.188818)
(-0.189677 0.0470188 0.336726)
(0.393984 0.0970774 0.456313)
(0.899006 0.26211 0.503349)
(1.37074 0.493687 0.483588)
(1.69813 0.825616 0.439644)
(2.02252 1.14055 0.423896)
(2.50655 1.3281 0.516974)
(2.95328 1.41021 0.624175)
(3.39763 1.41934 0.640882)
(3.86661 1.34652 0.616462)
(4.46413 1.1071 0.585374)
(5.15534 0.731602 0.606606)
(5.74492 0.391074 0.672936)
(6.34444 0.184043 0.688043)
(6.97274 0.00393647 0.644317)
(7.43012 -0.204593 0.61673)
(7.58627 -0.510371 0.585412)
(7.54191 -0.747281 0.59391)
(7.42414 -0.686309 0.660492)
(7.40706 -0.0760786 0.84551)
(7.78199 0.832108 1.11242)
(8.49069 1.69527 1.38579)
(9.41141 2.52788 1.58467)
(10.4777 3.10041 1.47859)
(11.8166 3.03387 0.886907)
(13.2093 2.13071 -0.103824)
(14.6087 0.631371 -0.732751)
(16.3555 -0.699552 -0.693079)
(18.5263 -1.24722 -0.188452)
(19.3036 -1.24776 0.225297)