/*--------------------------------*- C++ -*----------------------------------*\
| =========                 |                                                 |
| \\      /  F ield         | OpenFOAM: The Open Source CFD Toolbox           |
|  \\    /   O peration     | Version:  2.1.1                                 |
|   \\  /    A nd           | Web:      www.OpenFOAM.org                      |
|    \\/     M anipulation  |                                                 |
\*---------------------------------------------------------------------------*/
FoamFile
{
    version     2.0;
    format      ascii;
    class       volVectorField;
    location    "0.00105";
    object      UFLUK;
}
// * * * * * * * * * * * * * * * * * * * * * * * * * * * * * * * * * * * * * //

dimensions      [0 1 -1 0 0 0 0];

internalField   nonuniform List<vector> 
36520
(
(-3.04773e-05 -0.623902 1.35876)
(-3.87549e-05 0.011295 0.345004)
(6.28639e-06 0.137998 0.192173)
(7.8856e-06 0.104122 -0.201464)
(1.02563e-05 0.0893732 -0.312553)
(1.19584e-05 0.0681634 -0.430908)
(1.29953e-05 0.0601266 -0.464711)
(1.28126e-05 0.0556373 -0.502077)
(1.17089e-05 0.047643 -0.480845)
(1.02079e-05 0.0385458 -0.470629)
(9.1618e-06 0.0262162 -0.420485)
(9.12392e-06 0.0175366 -0.397883)
(1.04352e-05 0.00701395 -0.368105)
(1.25884e-05 0.00586251 -0.368108)
(1.53891e-05 0.00546705 -0.381167)
(1.90523e-05 0.0122892 -0.423057)
(2.43746e-05 0.0220504 -0.483226)
(3.23385e-05 0.0353247 -0.56211)
(4.3489e-05 0.0499088 -0.64693)
(5.77191e-05 0.0643758 -0.725433)
(7.40758e-05 0.0758445 -0.781435)
(9.11623e-05 0.0839751 -0.804784)
(0.000106815 0.0867323 -0.787263)
(0.000118703 0.0836575 -0.737455)
(0.000124399 0.0768994 -0.66919)
(0.000121635 0.0700255 -0.593678)
(0.000108778 0.0638549 -0.521206)
(8.64387e-05 0.0566517 -0.457706)
(5.85331e-05 0.0501382 -0.410292)
(3.20408e-05 0.0443972 -0.383675)
(1.60081e-05 0.0392524 -0.381649)
(2.04014e-05 0.0362549 -0.408156)
(5.29669e-05 0.040345 -0.465279)
(0.000114054 0.0535665 -0.553453)
(0.000191994 0.0774722 -0.661757)
(0.000268095 0.114498 -0.781968)
(0.000326001 0.164803 -0.889004)
(0.000354817 0.230024 -0.961926)
(0.000346717 0.308564 -0.976009)
(0.000294645 0.393743 -0.890877)
(0.000191908 0.469377 -0.650042)
(-9.35314e-07 0.509604 -0.182389)
(-0.000203901 0.438208 0.561741)
(-0.000252236 0.270705 1.53711)
(-0.000143497 0.062537 2.75026)
(-6.40003e-05 -0.25419 4.20039)
(-0.0001101 -0.627903 5.67141)
(-5.86478e-05 -0.821036 6.20476)
(-5.65109e-06 -0.606181 5.52578)
(-5.93498e-08 -0.405622 4.54644)
(-1.42621e-09 -0.247301 3.55066)
(-1.0304e-11 -0.1468 2.72366)
(-5.75787e-14 -0.0844279 2.05567)
(-2.85066e-16 -0.0477692 1.56511)
(-1.40218e-18 -0.0256227 1.17086)
(-5.63632e-21 -0.0117662 0.91124)
(-1.68207e-23 -0.0051812 0.693587)
(-3.34161e-26 0.000773815 0.574154)
(-4.64997e-29 0.00140638 0.477916)
(-4.02036e-32 0.00398763 0.439589)
(-2.23736e-05 -0.368431 1.2952)
(-5.48809e-06 0.143699 0.064953)
(3.27933e-05 0.264448 0.0393362)
(3.64295e-05 0.196749 -0.355123)
(3.82545e-05 0.175201 -0.353402)
(3.33803e-05 0.116587 -0.48473)
(2.79748e-05 0.12125 -0.464889)
(2.15423e-05 0.0993246 -0.498325)
(1.69664e-05 0.0922469 -0.452808)
(1.43713e-05 0.0674059 -0.428094)
(1.45345e-05 0.0462416 -0.360768)
(1.65789e-05 0.0193019 -0.325445)
(2.00846e-05 0.00184221 -0.28214)
(2.37725e-05 -0.00760796 -0.268347)
(2.9288e-05 -0.00270633 -0.27608)
(3.8229e-05 0.0137222 -0.303993)
(5.23993e-05 0.0405075 -0.35889)
(7.22392e-05 0.0741062 -0.423339)
(9.63356e-05 0.11297 -0.5019)
(0.000121881 0.152585 -0.567177)
(0.000144576 0.185291 -0.614913)
(0.000160572 0.209684 -0.625977)
(0.000165143 0.218962 -0.598981)
(0.000155547 0.209188 -0.537121)
(0.000132495 0.188498 -0.459086)
(9.84703e-05 0.166593 -0.375243)
(5.58206e-05 0.147267 -0.297926)
(7.27003e-06 0.127716 -0.230245)
(-4.34723e-05 0.110433 -0.178352)
(-9.06131e-05 0.0960785 -0.147763)
(-0.000124748 0.0864395 -0.141841)
(-0.000133257 0.085196 -0.162918)
(-0.00010612 0.104464 -0.212805)
(-5.09439e-05 0.15411 -0.289495)
(3.95451e-06 0.24243 -0.386817)
(3.23447e-05 0.374505 -0.499108)
(2.9449e-05 0.550948 -0.603133)
(1.18258e-05 0.76561 -0.680845)
(-5.46969e-08 1.0071 -0.704154)
(-7.97158e-06 1.24277 -0.626182)
(-8.0978e-06 1.43481 -0.400756)
(-4.76831e-05 1.46877 0.00738807)
(-2.79832e-05 1.1965 0.751769)
(-9.81533e-06 0.68056 1.79484)
(-1.33263e-06 0.00879613 3.08397)
(9.06086e-06 -0.924056 4.73056)
(0.00017213 -1.99485 6.43175)
(-3.43891e-05 -2.56065 7.00468)
(-3.3751e-05 -1.86702 6.04453)
(-3.68751e-07 -1.24645 4.89011)
(-1.74427e-08 -0.766619 3.76953)
(-2.08632e-10 -0.467801 2.87202)
(-1.66145e-12 -0.281467 2.15459)
(-1.0627e-14 -0.172709 1.63521)
(-6.27712e-17 -0.104927 1.21875)
(-2.72306e-19 -0.0656427 0.946445)
(-8.5881e-22 -0.0431092 0.718334)
(-1.82371e-24 -0.0285949 0.593573)
(-2.81334e-27 -0.0229541 0.493171)
(-4.45741e-30 -0.0180414 0.452823)
(-8.78989e-07 0.077733 1.1827)
(1.55772e-05 0.359154 -0.0132341)
(2.93824e-05 0.451474 -0.0201611)
(2.58701e-05 0.338938 -0.379988)
(1.97661e-05 0.307924 -0.352773)
(9.8324e-06 0.232195 -0.50253)
(1.69148e-06 0.227323 -0.454064)
(-4.86347e-06 0.206736 -0.504871)
(-8.15478e-06 0.180903 -0.449151)
(-9.75604e-06 0.149321 -0.419736)
(-9.72821e-06 0.102306 -0.34879)
(-9.38062e-06 0.0608193 -0.304208)
(-8.71175e-06 0.0246776 -0.262956)
(-7.83158e-06 0.00371793 -0.245399)
(-5.81408e-06 0.00855303 -0.263446)
(-2.13766e-06 0.0357866 -0.296293)
(2.90431e-06 0.0807399 -0.364916)
(8.38606e-06 0.137195 -0.438542)
(1.3083e-05 0.204319 -0.531002)
(1.67629e-05 0.27152 -0.606578)
(1.92897e-05 0.327007 -0.663417)
(2.00864e-05 0.36806 -0.678435)
(1.86515e-05 0.382105 -0.650925)
(1.51161e-05 0.363802 -0.583773)
(9.90384e-06 0.323278 -0.501083)
(4.86473e-06 0.280179 -0.414457)
(-6.05079e-06 0.243437 -0.337862)
(-1.91591e-05 0.200589 -0.282065)
(-2.6649e-05 0.163975 -0.237107)
(-2.77877e-05 0.133677 -0.213839)
(-2.27702e-05 0.106739 -0.212162)
(-1.10692e-05 0.0886774 -0.238298)
(-2.38488e-06 0.0992687 -0.296003)
(-1.11228e-06 0.153317 -0.388785)
(-1.23931e-06 0.267061 -0.511391)
(-1.40728e-06 0.450825 -0.661375)
(-1.63631e-06 0.708853 -0.817023)
(-1.93071e-06 1.0271 -0.963867)
(-2.27763e-06 1.38615 -1.07521)
(-2.6301e-06 1.73996 -1.10504)
(-0.000737988 2.02811 -1.01794)
(-0.00180368 2.11254 -0.693119)
(-0.00155532 1.70604 0.0838419)
(-0.000805573 0.886181 1.25432)
(0.000298892 -0.149011 2.77391)
(0.00179279 -1.50456 4.74671)
(0.002679 -3.42994 7.06029)
(0.00298294 -4.30702 7.89078)
(-0.000347436 -3.07998 6.55778)
(-1.00284e-06 -2.00878 5.15679)
(-7.45912e-08 -1.21978 3.89857)
(-1.48555e-09 -0.734385 2.93954)
(-1.65291e-11 -0.434947 2.18799)
(-1.36936e-13 -0.259848 1.65343)
(-9.22515e-16 -0.150634 1.22745)
(-4.22425e-18 -0.0903418 0.952352)
(-1.38392e-20 -0.052289 0.722112)
(-3.07522e-23 -0.0319867 0.596497)
(-6.96727e-26 -0.0206426 0.495969)
(-2.1754e-28 -0.0149778 0.455361)
(-2.73497e-05 0.616996 1.19102)
(-1.28034e-05 0.545236 -0.0522524)
(5.22289e-07 0.571824 -0.0901836)
(-9.91226e-07 0.419727 -0.434015)
(-2.96393e-06 0.382067 -0.398189)
(-5.46355e-06 0.293044 -0.545793)
(-6.95655e-06 0.311497 -0.511607)
(-8.25282e-06 0.272849 -0.552057)
(-9.02163e-06 0.257166 -0.501729)
(-9.98474e-06 0.214071 -0.457189)
(-1.0952e-05 0.153685 -0.373788)
(-1.04443e-05 0.0961834 -0.315203)
(-5.95421e-06 0.0448568 -0.269121)
(-1.22521e-06 0.00784535 -0.250657)
(-3.80603e-08 0.00659449 -0.278174)
(-5.90353e-08 0.0430766 -0.32292)
(-9.166e-08 0.0999761 -0.409845)
(-1.40487e-07 0.172276 -0.50236)
(-2.10799e-07 0.257558 -0.617464)
(-3.03136e-07 0.343599 -0.718207)
(-4.08817e-07 0.408532 -0.799294)
(-5.16763e-07 0.455658 -0.838304)
(-6.19745e-07 0.469031 -0.828437)
(-7.11851e-07 0.432148 -0.768889)
(-7.92624e-07 0.360689 -0.687869)
(-7.21376e-05 0.288551 -0.60548)
(-0.000522874 0.229493 -0.533781)
(-0.000755958 0.165002 -0.471057)
(-0.000713262 0.105212 -0.424851)
(-0.000718783 0.0544236 -0.396451)
(-0.000664966 0.0173721 -0.387508)
(-0.000575474 -0.010145 -0.410321)
(-0.000528857 0.00248245 -0.472002)
(-0.000608081 0.0698326 -0.57899)
(-0.000953712 0.212108 -0.733373)
(-0.00192988 0.437369 -0.939045)
(-0.0040736 0.759854 -1.16802)
(-0.00820513 1.14827 -1.40237)
(-0.0156811 1.56395 -1.6169)
(-0.0260113 1.95385 -1.77376)
(-0.0333859 2.24076 -1.81023)
(-0.0303653 2.28216 -1.60263)
(-0.018116 1.69665 -0.769128)
(-0.0051853 0.664115 0.578018)
(0.00521828 -0.468166 2.2206)
(0.0116491 -2.01752 4.51014)
(0.013249 -4.59884 7.70438)
(0.0199679 -6.17713 9.45848)
(0.0388848 -4.32134 7.40548)
(-3.98537e-06 -2.70145 5.54795)
(-2.11216e-07 -1.63353 4.08718)
(-6.00255e-09 -0.984101 3.03406)
(-9.14709e-11 -0.583129 2.23109)
(-1.00035e-12 -0.351022 1.67452)
(-7.41233e-15 -0.206093 1.23465)
(-3.67344e-17 -0.127307 0.955151)
(-1.28684e-19 -0.0762458 0.721904)
(-3.66188e-22 -0.0501421 0.59466)
(-2.15993e-24 -0.0342528 0.493696)
(-8.78535e-27 -0.0272529 0.452823)
(-3.09581e-05 1.24363 0.800089)
(-2.18096e-05 0.744469 -0.258141)
(-1.49071e-05 0.791222 -0.148691)
(-1.35355e-05 0.549859 -0.473303)
(-9.77952e-06 0.532427 -0.450463)
(-3.34553e-06 0.425375 -0.590715)
(-6.4911e-09 0.449071 -0.567147)
(-6.50168e-09 0.401856 -0.6066)
(-6.82877e-09 0.37234 -0.555465)
(-1.37448e-06 0.307911 -0.507487)
(-6.49882e-05 0.210638 -0.418327)
(-0.000323494 0.120342 -0.347308)
(-0.0007189 0.0347587 -0.306961)
(-0.000977598 -0.0275527 -0.291667)
(-0.00113191 -0.0439323 -0.337257)
(-0.00140461 -0.00447172 -0.418343)
(-0.00174728 0.0573082 -0.538584)
(-0.00219175 0.149945 -0.663203)
(-0.00274439 0.261235 -0.810466)
(-0.00330747 0.376086 -0.945359)
(-0.00377724 0.458392 -1.05404)
(-0.00439659 0.52701 -1.11467)
(-0.00496252 0.551379 -1.11732)
(-0.00514418 0.506714 -1.06407)
(-0.00501622 0.407626 -0.988641)
(-0.00483136 0.29607 -0.913558)
(-0.00480403 0.20187 -0.85094)
(-0.00458834 0.100069 -0.797335)
(-0.00362264 -0.0079286 -0.75892)
(-0.00237459 -0.100918 -0.732451)
(-0.00181292 -0.178084 -0.713232)
(-0.0016285 -0.241218 -0.71873)
(-0.00100197 -0.264055 -0.763922)
(-0.000475027 -0.220913 -0.871033)
(-0.000891006 -0.083659 -1.05596)
(-0.00338666 0.179099 -1.33775)
(-0.00943791 0.550829 -1.6747)
(-0.0201439 0.994153 -2.03582)
(-0.0385494 1.4542 -2.39557)
(-0.0664496 1.81749 -2.67046)
(-0.0958755 2.04204 -2.80039)
(-0.0983553 1.99417 -2.71232)
(-0.0573883 1.33374 -1.81124)
(-0.0172985 0.332491 -0.370266)
(0.00798776 -0.499333 1.12585)
(0.0179923 -1.95615 3.46313)
(0.0227905 -5.17343 7.58244)
(0.0495535 -7.60689 10.9352)
(0.096833 -5.60654 8.62045)
(0.000941598 -3.25662 6.03057)
(-1.34337e-06 -1.95653 4.3262)
(-2.81899e-08 -1.16908 3.14913)
(-4.05555e-10 -0.687386 2.28457)
(-4.98092e-12 -0.413208 1.70129)
(-4.0385e-14 -0.24067 1.24625)
(-2.20445e-16 -0.148194 0.960238)
(-8.90133e-19 -0.0868123 0.724085)
(-6.56408e-21 -0.0564232 0.595)
(-6.60469e-23 -0.0369345 0.493444)
(-2.92445e-25 -0.0292017 0.45224)
(-4.45079e-05 1.39065 0.693265)
(-2.35984e-05 0.935261 -0.247088)
(-5.53858e-05 0.908059 -0.255442)
(-0.000131645 0.621734 -0.608767)
(-0.000253675 0.589389 -0.594886)
(-0.000431196 0.492982 -0.748244)
(-0.000698642 0.54978 -0.745751)
(-0.000801586 0.499331 -0.778009)
(-0.000913752 0.478363 -0.741719)
(-0.00103529 0.41914 -0.671592)
(-0.00114041 0.30829 -0.561738)
(-0.00129575 0.202817 -0.453338)
(-0.00150768 0.115465 -0.409702)
(-0.00178185 0.0299562 -0.417756)
(-0.00222883 -0.0135065 -0.508564)
(-0.00315648 0.0197442 -0.645535)
(-0.00453287 0.0755361 -0.805074)
(-0.00664649 0.163638 -0.963953)
(-0.0101449 0.270159 -1.14641)
(-0.0156331 0.384749 -1.31703)
(-0.0233412 0.451839 -1.46785)
(-0.0366515 0.471376 -1.55983)
(-0.0583861 0.443071 -1.58501)
(-0.0843782 0.312725 -1.54468)
(-0.102231 0.0985245 -1.47881)
(-0.100109 -0.124138 -1.42528)
(-0.0684411 -0.28386 -1.40151)
(-0.0314431 -0.449547 -1.37707)
(-0.0129452 -0.609849 -1.33117)
(0.00243622 -0.726506 -1.26753)
(0.0127781 -0.80015 -1.18618)
(0.00217084 -0.854632 -1.09518)
(-0.0206075 -0.872662 -1.01567)
(-0.0263063 -0.816132 -1.0205)
(-0.0183545 -0.69013 -1.15557)
(-0.0209811 -0.475999 -1.43874)
(-0.0454442 -0.160412 -1.82554)
(-0.0768809 0.268739 -2.20924)
(-0.103934 0.720336 -2.53357)
(-0.139601 1.06663 -2.71718)
(-0.169256 1.27866 -2.73345)
(-0.173208 1.25567 -2.57173)
(-0.129594 0.574149 -1.64248)
(-0.0487468 -0.203756 -0.442461)
(-0.00713644 -0.72255 0.675087)
(0.0133899 -1.89655 2.42013)
(0.0531137 -5.2112 6.36954)
(0.223791 -8.40424 11.2888)
(0.178722 -6.74826 9.97333)
(0.0416104 -3.6784 6.59241)
(-5.66882e-06 -2.16157 4.58379)
(-4.33841e-07 -1.27851 3.27277)
(-2.55051e-09 -0.751138 2.34263)
(-2.49051e-11 -0.452842 1.72945)
(-2.55578e-13 -0.26489 1.25797)
(-1.67972e-15 -0.164194 0.964741)
(-9.59295e-18 -0.09741 0.724891)
(-1.36672e-19 -0.0642083 0.594036)
(-1.57584e-21 -0.0428908 0.491652)
(-7.57929e-24 -0.0345214 0.450391)
(-0.00109898 2.30721 -1.80896)
(-0.00273569 1.13579 -0.781859)
(-0.00613862 1.15294 -0.537814)
(-0.00385254 0.769664 -0.762004)
(-0.00262376 0.742842 -0.767485)
(-0.00268495 0.628975 -0.882871)
(-0.0088423 0.697745 -0.921624)
(-0.0104422 0.643477 -0.989073)
(-0.00941619 0.581399 -0.983321)
(-0.00941677 0.438975 -0.94961)
(-0.00962292 0.260419 -0.872255)
(-0.010565 0.0828418 -0.778899)
(-0.0118514 -0.0583177 -0.737704)
(-0.013823 -0.21304 -0.755756)
(-0.0162503 -0.319258 -0.843236)
(-0.0192388 -0.342378 -0.983817)
(-0.0241086 -0.324472 -1.17305)
(-0.0333378 -0.230451 -1.41252)
(-0.0517164 -0.115527 -1.67865)
(-0.0810627 -0.0232097 -1.94421)
(-0.108839 -0.0300907 -2.18195)
(-0.129037 -0.0695737 -2.38836)
(-0.151744 -0.144481 -2.48649)
(-0.183258 -0.339575 -2.44895)
(-0.190172 -0.661694 -2.32467)
(-0.189839 -0.971309 -2.21817)
(-0.215642 -1.01188 -2.29035)
(-0.148399 -0.950212 -2.36443)
(-0.0838464 -1.12883 -2.29631)
(-0.118619 -1.74525 -1.89608)
(-0.0424178 -1.93831 -1.67006)
(0.0773427 -1.97974 -1.54966)
(0.0450003 -1.96021 -1.3862)
(-0.0913059 -1.62934 -1.43448)
(-0.221888 -1.23265 -1.48206)
(-0.314367 -0.962212 -1.48146)
(-0.523429 -0.551189 -1.58944)
(-0.961848 0.000622994 -1.6346)
(-1.26691 0.528599 -1.5636)
(-1.3314 0.864358 -1.62886)
(-1.38377 0.96401 -1.67529)
(-1.29641 0.674813 -1.77156)
(-0.393648 -0.00564658 -1.56453)
(-0.102177 -0.624354 -0.695763)
(-0.0325702 -1.42802 0.313098)
(0.0239194 -2.45125 1.71208)
(0.190325 -4.0368 3.92857)
(0.634387 -6.48848 8.5035)
(0.298627 -7.0035 10.9657)
(0.0877789 -3.88171 7.16383)
(-0.000179072 -2.20512 4.82378)
(-6.34943e-06 -1.29794 3.38879)
(-4.17575e-08 -0.762173 2.39664)
(-2.16376e-10 -0.459954 1.75491)
(-2.45331e-12 -0.269229 1.26864)
(-1.90898e-14 -0.166747 0.968363)
(-1.30103e-16 -0.0985994 0.725147)
(-2.18132e-18 -0.0647303 0.592779)
(-2.81672e-20 -0.0426829 0.489587)
(-1.49678e-22 -0.0344366 0.448116)
(-0.0105277 1.84363 0.205665)
(-0.0898553 1.11565 0.112692)
(-0.322258 1.31615 -0.377081)
(-0.479132 0.972129 -0.77756)
(-0.534724 1.10673 -0.913704)
(0.0176865 1.35684 -1.04206)
(-0.00452444 0.848262 -1.72191)
(-0.0255272 0.737114 -1.81629)
(-0.0507785 0.685317 -1.79201)
(-0.0703972 0.566636 -1.68568)
(-0.0607692 0.312484 -1.44799)
(-0.0589093 0.0719375 -1.24963)
(-0.0667151 -0.0367139 -1.17057)
(-0.0701853 -0.197477 -1.23159)
(-0.0935865 -0.32268 -1.44757)
(-0.131565 -0.300533 -1.7663)
(-0.153934 -0.283544 -2.17352)
(-0.173092 -0.291709 -2.57862)
(-0.194033 -0.279103 -2.9658)
(-0.211831 -0.244642 -3.37116)
(-0.200523 -0.296857 -3.74771)
(-0.15857 -0.404637 -4.04358)
(-0.121738 -0.50403 -4.20774)
(-0.121202 -0.635946 -4.2143)
(-0.156348 -0.833703 -4.03198)
(-0.182976 -0.98845 -3.74919)
(-0.179476 -1.04615 -3.51789)
(-0.166497 -1.09395 -3.35318)
(-0.175467 -1.12593 -3.20841)
(-0.179701 -1.11537 -3.05679)
(-0.0976444 -1.12219 -2.89374)
(0.0156645 -1.2092 -2.71119)
(0.0990442 -1.27841 -2.49254)
(0.112145 -1.28423 -2.31229)
(0.0567703 -1.29901 -2.24273)
(0.0178723 -1.3008 -2.24556)
(0.00554415 -1.16106 -2.34258)
(-0.00905138 -0.601689 -2.54647)
(-0.945033 0.919586 -0.799473)
(-0.984849 1.12646 -0.533982)
(-1.20188 1.35344 -0.30506)
(-1.55226 0.847308 -0.136347)
(-1.53203 -0.127951 0.245576)
(-0.592479 -1.21437 -0.0724604)
(-0.0512272 -1.70591 0.468952)
(0.138943 -2.10764 1.27205)
(0.627333 -2.7562 2.68003)
(0.787213 -4.44984 6.43159)
(0.418206 -5.98429 11.049)
(0.143705 -3.74467 7.62795)
(-0.00274159 -2.12247 5.00437)
(-6.80001e-05 -1.25115 3.46858)
(-5.20328e-07 -0.736019 2.42633)
(-2.02167e-09 -0.445504 1.76194)
(-1.84571e-11 -0.262987 1.26471)
(-1.6496e-13 -0.164211 0.960511)
(-1.29164e-15 -0.0988524 0.716077)
(-2.46573e-17 -0.0660614 0.58387)
(-3.59862e-19 -0.0448879 0.48079)
(-2.13605e-21 -0.0368091 0.439711)
(0.000404238 3.76976 -17.0408)
(0.000445556 0.738015 -3.71204)
(0.000708701 0.954398 -0.651438)
(0.000993041 0.16618 -0.750356)
(0.0012219 -0.0149758 -0.480569)
(0.000217104 -0.416479 -0.388443)
(-0.000851434 -0.560138 -0.331433)
(0.000444189 -0.789298 -0.369804)
(0.00169444 -1.09392 -0.469038)
(0.000266108 -1.50447 -0.622032)
(0.000666693 -1.89836 -0.760564)
(0.00263398 -2.23387 -0.902274)
(0.00329991 -2.46476 -1.02)
(0.00309205 -2.67505 -1.06894)
(0.0038527 -2.89674 -1.14911)
(0.00305572 -3.09477 -1.27942)
(-0.00193603 -3.16355 -1.37475)
(-0.0171934 -3.13393 -1.45181)
(-0.0284953 -2.97873 -1.47847)
(-0.0349182 -2.86677 -1.53911)
(-0.0382926 -2.87934 -1.58977)
(-0.0401182 -2.88707 -1.59304)
(-0.0354796 -2.90486 -1.51031)
(-0.0246327 -3.01448 -1.36006)
(-0.0132968 -3.14873 -1.29393)
(-0.00527689 -3.18623 -1.32374)
(-0.00162031 -3.1527 -1.32587)
(-0.000922923 -3.09724 -1.29798)
(-0.00264862 -3.00541 -1.23719)
(-0.00422867 -2.88779 -1.19306)
(-0.00209707 -2.77284 -1.16152)
(0.00116898 -2.63503 -1.12945)
(0.00164302 -2.53608 -1.11058)
(0.00076019 -2.52008 -1.09161)
(0.00191455 -2.51385 -1.07064)
(0.00871208 -2.45054 -1.03635)
(0.019821 -2.32333 -0.983459)
(0.020108 -2.009 -0.888806)
(0.00680904 -1.31683 -0.863289)
(-0.00292424 -0.669096 -0.932529)
(-0.019531 -0.850008 -0.852828)
(-0.493327 -1.59733 -0.434802)
(-1.45313 -0.813857 0.296003)
(-0.758328 -1.00707 0.0935283)
(-0.165379 -1.15084 0.428956)
(0.320596 -1.53908 1.25234)
(0.848452 -1.98665 2.59596)
(0.814991 -3.49449 6.49162)
(0.495816 -4.56325 11.1576)
(0.2033 -3.07374 8.03925)
(-0.0081973 -1.75465 5.28684)
(-0.000467358 -1.03656 3.64362)
(-4.68649e-06 -0.607922 2.53102)
(-1.87846e-08 -0.366042 1.8241)
(-1.08895e-10 -0.213363 1.30086)
(-1.05757e-12 -0.131665 0.981758)
(-9.19939e-15 -0.0773757 0.728686)
(-1.92149e-16 -0.050802 0.591617)
(-3.03347e-18 -0.0332752 0.486013)
(-1.9235e-20 -0.0270196 0.443704)
(0.000373685 6.73005 -18.0993)
(0.000428998 1.82385 -3.56641)
(0.000697659 0.895012 -1.17326)
(0.000938558 -0.424492 -1.21027)
(0.00115753 -0.719214 -0.939982)
(0.00126056 -0.94649 -0.643788)
(0.000555946 -1.05789 -0.423364)
(-0.00101625 -1.13648 -0.338022)
(-0.00122033 -1.30406 -0.284675)
(0.00108236 -1.57161 -0.32829)
(0.00252032 -1.74523 -0.41372)
(0.0021918 -1.86504 -0.444515)
(0.00151093 -2.01857 -0.475286)
(0.00185002 -2.29519 -0.487646)
(0.00365495 -2.46659 -0.537317)
(0.0037284 -2.79008 -0.617933)
(0.00200557 -3.30291 -0.780719)
(-0.000623475 -3.61 -0.926055)
(-0.0113035 -3.52024 -0.924305)
(-0.0267147 -3.29086 -0.882082)
(-0.0318918 -3.16344 -0.841096)
(-0.0354738 -3.10613 -0.803788)
(-0.0310902 -3.13586 -0.74052)
(-0.0213089 -3.19985 -0.658305)
(-0.0102714 -3.22646 -0.650556)
(-0.00187149 -3.19869 -0.710485)
(0.00250082 -3.14279 -0.733052)
(0.00293459 -3.07846 -0.72921)
(0.001227 -3.01075 -0.700639)
(0.000618459 -2.88568 -0.657753)
(0.00117411 -2.73147 -0.644925)
(0.00122229 -2.55295 -0.625214)
(0.00123238 -2.40586 -0.592275)
(0.00158437 -2.40723 -0.607277)
(0.00152598 -2.57273 -0.636281)
(0.0018245 -2.47777 -0.585466)
(0.00203195 -2.15716 -0.501459)
(0.00103215 -1.59094 -0.365711)
(0.000414474 -0.759917 -0.186469)
(0.00194494 -0.357267 -0.10465)
(-0.000163695 -0.615088 -0.1345)
(-0.147465 -0.765868 -0.196322)
(-0.80471 -0.551902 -0.172001)
(-0.476204 -0.729357 0.303161)
(-0.146933 -0.890081 0.750642)
(0.330207 -1.14149 1.40573)
(0.827907 -1.48378 2.65079)
(0.799919 -3.08311 6.91661)
(0.500567 -3.68186 11.2937)
(0.211049 -2.29959 8.2199)
(-0.0075556 -1.27773 5.45481)
(-0.000587371 -0.758002 3.7618)
(-6.07224e-06 -0.446863 2.61167)
(-2.48036e-08 -0.270265 1.87961)
(-1.32092e-10 -0.15843 1.33977)
(-1.27217e-12 -0.0979312 1.00966)
(-1.09417e-14 -0.0575122 0.749344)
(-2.23349e-16 -0.0375885 0.607713)
(-3.40625e-18 -0.0243788 0.499262)
(-2.0742e-20 -0.019647 0.455508)
(0.00011219 4.9964 -12.3035)
(0.000141384 0.900615 -0.275259)
(0.000349857 -0.592304 0.765627)
(0.000532235 -1.83145 0.266876)
(0.00065423 -2.20378 -0.00692713)
(0.000433237 -2.58144 -0.269075)
(0.00014608 -2.62359 -0.482761)
(0.000306862 -2.72138 -0.592484)
(-7.33249e-05 -2.81567 -0.583654)
(9.1266e-05 -2.85101 -0.580362)
(0.000601972 -2.96031 -0.58752)
(0.00104971 -3.19415 -0.616366)
(0.00126608 -3.46832 -0.62985)
(0.00105265 -3.74453 -0.61717)
(0.00020062 -3.957 -0.592224)
(-0.00126 -4.1744 -0.607796)
(-0.00260324 -4.4628 -0.741145)
(-0.00585223 -4.7603 -0.941972)
(-0.0609706 -5.03481 -1.13596)
(-1.62003 -5.00882 -1.21638)
(-0.351241 -5.12242 -1.57823)
(0.0142192 -5.25227 -0.892666)
(-0.0180022 -5.27142 -1.05902)
(-0.0112695 -5.28974 -1.09128)
(-0.00486025 -5.20019 -1.06954)
(-0.000888404 -5.0722 -1.03786)
(0.00149979 -4.95273 -1.012)
(0.00195658 -4.83428 -0.991782)
(0.000802437 -4.70569 -0.948018)
(-0.00026771 -4.51221 -0.943056)
(-0.000991308 -4.29976 -0.926564)
(-7.33188e-05 -4.06787 -0.879165)
(0.00115276 -3.81584 -0.779067)
(0.00151723 -3.53941 -0.659308)
(0.00226274 -3.25673 -0.555656)
(0.00390757 -2.87753 -0.567098)
(0.00546306 -2.49572 -0.724139)
(0.00368467 -2.20213 -0.881138)
(-0.0049819 -1.74953 -1.14941)
(-0.0026092 -0.763308 -1.03333)
(-0.0167533 -0.342902 -0.420865)
(-0.39164 -0.309135 0.105904)
(-1.02554 0.313053 0.250703)
(-0.628319 -0.322037 0.425167)
(-0.236621 -0.637254 0.829318)
(0.362032 -0.691834 1.22515)
(0.794957 -0.650744 2.24159)
(0.819737 -1.87399 5.97105)
(0.549301 -2.64886 10.8665)
(0.240748 -1.55237 8.26516)
(-0.015515 -0.801741 5.58894)
(-0.000878712 -0.462488 3.85313)
(-9.31461e-06 -0.268887 2.67224)
(-3.73231e-08 -0.162037 1.91968)
(-1.7581e-10 -0.0952679 1.36694)
(-1.6257e-12 -0.0591849 1.0283)
(-1.35379e-14 -0.035045 0.763053)
(-2.66671e-16 -0.0232419 0.618023)
(-3.89489e-18 -0.0150598 0.50776)
(-2.26009e-20 -0.0125184 0.462926)
(-0.0532209 5.45326 -4.09121)
(9.20056e-05 1.09708 -0.493533)
(0.000142185 -2.00948 -0.366495)
(-0.0207346 -2.2503 -0.615419)
(-0.246268 -1.6369 -1.1582)
(-0.880426 -0.54991 -2.52622)
(-0.879808 -1.5232 -3.25777)
(-0.230104 -2.81988 -3.14314)
(-0.0826186 -3.47778 -3.00419)
(-0.0354067 -3.97389 -2.68058)
(-0.0190637 -4.37312 -2.40833)
(-0.0185679 -4.72883 -2.30001)
(-0.0466288 -4.99484 -2.25964)
(-0.125836 -5.15027 -2.19493)
(-0.271353 -5.12162 -1.88643)
(-0.12901 -5.11259 -0.850477)
(0.614632 -5.08163 2.36329)
(-1.57327 -4.6449 3.85209)
(-6.7209 -2.90775 1.29113)
(-5.23309 -1.14276 3.05668)
(-0.317113 -5.74509 0.657136)
(0.636031 -5.9264 -2.30478)
(-0.978517 -6.22114 -2.43397)
(-2.47676 -6.44292 -1.86351)
(-0.761636 -6.66878 -2.23629)
(1.07067 -4.8581 -4.6617)
(0.946251 -4.79596 -4.44744)
(0.247402 -5.85899 -2.63284)
(-3.14475 -5.60367 -1.5043)
(-5.5077 -4.44907 -0.987528)
(-1.79195 -5.60446 -0.397297)
(1.8235 -4.19598 -3.14329)
(2.86877 -3.26728 -3.05059)
(1.41925 -3.2984 -2.42595)
(-0.198514 -2.83433 -1.61162)
(-0.00217933 -2.66731 -0.453728)
(0.28428 -2.33967 -0.741491)
(0.149515 -2.15981 -1.41304)
(0.0297664 -1.92004 -2.58618)
(0.0192763 -1.304 -2.87574)
(-0.871096 1.09415 -0.540411)
(-1.62568 1.12132 0.690532)
(-1.64561 0.367812 1.19729)
(-0.99279 -0.517569 0.61583)
(-0.426694 -0.803324 0.958908)
(0.221915 -0.75277 1.3516)
(0.833262 -0.42703 2.15475)
(0.937392 -0.393517 4.38115)
(0.619172 -0.61969 9.779)
(0.265548 -0.446489 8.20528)
(-0.0395881 -0.227163 5.57601)
(-0.00116159 -0.139105 3.85095)
(-9.21551e-06 -0.0857355 2.67707)
(-3.18597e-08 -0.0541713 1.92671)
(-1.55103e-10 -0.0334315 1.37502)
(-1.3095e-12 -0.0217318 1.03572)
(-9.66261e-15 -0.013498 0.769474)
(-1.68934e-16 -0.00947316 0.623781)
(-2.18118e-18 -0.00612598 0.512974)
(-1.11796e-20 -0.00567001 0.468054)
(-0.0979428 -2.06742 -3.1694)
(-0.00219951 -1.5519 0.122452)
(-0.00606433 -1.30456 0.550496)
(-0.0288738 -1.20866 0.745927)
(-0.395122 -1.23042 0.613186)
(-2.16556 -1.23082 -0.520105)
(-0.916811 -1.62272 0.848667)
(-0.306855 -2.71664 0.694192)
(-0.0757186 -3.45133 0.868002)
(0.00379209 -3.92613 1.44891)
(0.0180499 -4.46967 2.01938)
(-0.00522129 -5.0671 2.3412)
(-0.042929 -5.54136 2.48214)
(-0.0428872 -5.8423 2.63104)
(-0.011999 -5.99644 2.86458)
(-0.129444 -5.94024 3.25965)
(-1.64224 -5.82425 3.11516)
(-6.59552 -3.7468 0.197882)
(-7.7062 -0.574407 -0.411367)
(-1.03901 -1.09625 4.57056)
(-0.598009 -3.87626 2.68304)
(-0.16687 -4.78826 1.6989)
(0.359241 -5.05218 1.73401)
(-0.162347 -4.78656 2.42797)
(-3.29854 -4.03809 2.77853)
(-3.97067 -3.78627 2.98796)
(3.54991 -4.59256 2.29634)
(3.82057 -4.8177 1.26236)
(0.957888 -5.27567 1.08874)
(0.00181337 -3.73306 3.58036)
(-1.49303 -3.34899 3.52583)
(-2.69973 -2.97776 3.36027)
(-1.56331 -3.87781 2.5059)
(1.15187 -4.10254 -0.980643)
(2.30896 -3.27724 -0.298547)
(1.0345 -2.74588 0.482319)
(0.0144249 -1.96805 0.295969)
(-0.0549404 -1.1847 -0.476649)
(0.0886355 -0.533861 -1.59776)
(0.204975 0.0958434 -2.53833)
(-0.511933 2.56271 -2.2359)
(-1.77957 1.49981 0.292485)
(-1.91997 0.507796 1.04815)
(-1.05048 -0.4905 0.881606)
(-0.42334 -0.775832 1.28039)
(0.197925 -0.72024 2.17197)
(0.785194 -0.354455 3.03596)
(0.951829 0.109238 4.64419)
(0.625136 1.03568 9.78503)
(0.26581 0.573811 8.147)
(-0.0392649 0.26468 5.54187)
(-0.00113846 0.136381 3.83623)
(-8.92925e-06 0.0752979 2.66803)
(-3.08166e-08 0.0441224 1.92047)
(-1.51141e-10 0.0249386 1.37036)
(-1.28061e-12 0.0153205 1.03234)
(-9.48007e-15 0.00895862 0.767056)
(-1.66241e-16 0.00586148 0.622159)
(-2.1527e-18 0.00379245 0.511382)
(-1.10629e-20 0.00321892 0.466975)
(-0.000484362 -2.2027 -13.2492)
(-0.000187438 -2.00179 1.04681)
(0.000323484 -4.30091 1.97559)
(-0.00012403 -2.96873 1.39103)
(-0.000516613 -2.32085 0.850944)
(-0.000608549 -2.38009 0.588558)
(0.00220272 -2.78672 0.398983)
(0.000831195 -3.19296 0.321397)
(-0.000925988 -3.46244 0.410281)
(-0.0019517 -3.65533 0.569488)
(-0.00272044 -3.8604 0.743633)
(-0.00265392 -4.07171 0.833093)
(-0.00148061 -4.20113 0.904666)
(-0.000180127 -4.26847 0.972234)
(0.000142082 -4.28614 1.04732)
(-0.000198324 -4.22577 1.10148)
(-0.00205133 -4.14163 1.04269)
(-0.00691491 -4.01864 0.885283)
(-0.0450337 -3.94856 0.616133)
(-3.6723 2.25774 1.91555)
(-0.673024 2.82602 2.21484)
(-0.0376666 -3.39608 1.98657)
(-0.0214042 -4.26459 0.604106)
(-0.0126696 -4.21786 0.436928)
(-0.0100759 -4.06381 0.450253)
(-0.00698446 -4.01838 0.643317)
(-0.00447867 -4.0357 0.728193)
(-0.00368338 -3.98834 0.733682)
(-0.00328891 -3.83327 0.72393)
(-0.00295622 -3.67498 0.726077)
(-0.00412752 -3.5173 0.691966)
(-0.00652984 -3.30227 0.673781)
(-0.00753469 -3.03824 0.582121)
(-0.00310148 -2.62416 0.508)
(0.00508011 -2.0033 0.380572)
(0.0111283 -1.29173 0.146839)
(0.00962008 -0.584713 -0.252408)
(0.00191601 -0.0299572 -0.814441)
(-0.00855935 0.135807 -1.56881)
(-0.00813284 -0.0511411 -1.86209)
(-0.0531662 -0.0656773 -0.695262)
(-0.675007 -0.190648 0.923601)
(-1.10787 -0.0864112 1.08691)
(-0.560953 -0.50761 0.800567)
(-0.159638 -0.532166 0.994372)
(0.440067 -0.304849 1.78499)
(0.744337 0.31338 3.03149)
(0.790803 1.63758 7.38454)
(0.528366 2.94116 10.7715)
(0.221749 1.59799 8.07292)
(-0.00836616 0.819208 5.50923)
(-0.000604133 0.452416 3.82378)
(-6.00046e-06 0.257851 2.65754)
(-2.3924e-08 0.152741 1.91121)
(-1.22437e-10 0.0871985 1.36097)
(-1.14633e-12 0.0528927 1.02421)
(-9.50264e-15 0.03008 0.75932)
(-1.85816e-16 0.0187893 0.61535)
(-2.68988e-18 0.0115604 0.505099)
(-1.54541e-20 0.00876541 0.460914)
(-0.00694296 -8.88765 -27.6571)
(-0.00170344 -0.403077 3.24963)
(0.0131271 -0.881118 2.35254)
(0.0220004 -1.4305 0.209305)
(-0.0507084 -2.11955 0.222128)
(-1.26638 2.05634 -0.0151846)
(-0.922072 1.85788 -2.21241)
(-0.513732 0.790431 -3.28193)
(-0.129161 -3.26836 -0.12475)
(-0.0565435 -3.28948 0.455076)
(-0.0324225 -3.31747 0.651068)
(-0.0213603 -3.28311 0.690944)
(-0.0114239 -3.22294 0.694464)
(0.0050217 -3.13191 0.719593)
(0.0373803 -2.91226 0.725352)
(0.0653249 -2.6312 0.626775)
(0.0111537 -2.45438 0.460661)
(-0.545407 -2.51127 -0.0847788)
(-0.767567 2.136 -2.76183)
(2.52359 2.58931 0.805598)
(1.56839 2.27089 1.59962)
(-0.898748 2.62333 -1.28143)
(-1.5776 -0.192314 -2.90155)
(-2.64801 0.188162 -2.54757)
(-1.85019 -1.35395 -2.30066)
(0.204441 -2.53069 0.21285)
(0.225294 -2.4626 0.398795)
(0.16864 -2.34133 0.397986)
(0.0701246 -2.17023 0.280496)
(0.0113296 -2.03065 -0.427467)
(-0.129466 -1.46015 -1.51052)
(-1.4042 -0.287229 -1.9912)
(-1.75873 0.942612 -1.99252)
(-0.327766 0.847653 -2.15044)
(0.83999 -0.443614 0.00391251)
(0.316589 -0.124718 -0.232972)
(0.0472939 0.214094 -0.606058)
(-0.000696939 0.407134 -1.08718)
(-0.00396995 0.365839 -1.72827)
(0.00461827 0.227156 -2.11116)
(-0.0271204 0.121074 -1.45771)
(-0.585175 -0.00970582 0.454912)
(-0.903088 0.165904 0.820234)
(-0.441227 -0.180295 0.704034)
(-0.0913962 -0.0793055 1.22948)
(0.496169 0.283792 2.05441)
(0.907955 1.20774 3.49935)
(0.754665 3.34772 9.55209)
(0.435426 3.65605 11.0408)
(-0.117299 2.21102 7.88142)
(-0.0114701 1.24677 5.36837)
(-0.000260044 0.724405 3.73562)
(-2.17929e-06 0.417324 2.60376)
(-8.68929e-09 0.246753 1.87852)
(-5.57609e-11 0.140478 1.34033)
(-5.29029e-13 0.0839608 1.01171)
(-4.36508e-15 0.0467319 0.751003)
(-8.55609e-17 0.0289685 0.610183)
(-1.2517e-18 0.0171963 0.500933)
(-7.29834e-21 0.0131077 0.45801)
(0.00811769 -5.38752 -18.1676)
(-9.60115e-05 0.0167285 -5.37095)
(-0.000284878 0.644419 -1.81357)
(-0.000384525 -0.523821 -0.886356)
(-0.000473809 -1.40373 0.168197)
(-0.00344689 -1.78899 0.234221)
(-0.0254012 -2.20702 0.264459)
(-0.156356 -2.51682 0.488478)
(-0.244812 -2.77384 0.627858)
(-0.155978 -2.98798 0.77864)
(-0.0773855 -3.00433 0.972511)
(-0.0288347 -2.94329 1.10367)
(-0.00651508 -2.89684 1.16775)
(0.00178028 -2.89886 1.24516)
(-0.00631068 -2.81252 1.27328)
(-0.0327604 -2.59021 1.16793)
(-0.0757222 -2.41621 1.04058)
(-0.0228123 -2.27951 1.21432)
(2.52252 1.14955 2.28573)
(3.00895 2.14148 1.33614)