/*--------------------------------*- C++ -*----------------------------------*\
| =========                 |                                                 |
| \\      /  F ield         | OpenFOAM: The Open Source CFD Toolbox           |
|  \\    /   O peration     | Version:  2.1.1                                 |
|   \\  /    A nd           | Web:      www.OpenFOAM.org                      |
|    \\/     M anipulation  |                                                 |
\*---------------------------------------------------------------------------*/
FoamFile
{
    version     2.0;
    format      ascii;
    class       volScalarField;
    location    "0.0011";
    object      alpha1;
}
// * * * * * * * * * * * * * * * * * * * * * * * * * * * * * * * * * * * * * //

dimensions      [0 0 0 0 0 0 0];

internalField   nonuniform List<scalar> 
36520
(
-1.67168e-12
-1.92216e-13
-2.78329e-13
-3.61213e-13
-4.74987e-13
-5.94718e-13
-7.2632e-13
-8.54953e-13
-9.81536e-13
-1.09184e-12
-1.20016e-12
-1.30738e-12
-1.43383e-12
-1.58405e-12
-1.76898e-12
-1.99673e-12
-2.28939e-12
-2.68264e-12
-3.22569e-12
-3.97614e-12
-4.99224e-12
-6.32705e-12
-8.01709e-12
-1.00593e-11
-1.23927e-11
-1.48828e-11
-1.73185e-11
-1.94463e-11
-2.10498e-11
-2.20842e-11
-2.28041e-11
-2.38607e-11
-2.62692e-11
-3.11778e-11
-3.94411e-11
-5.12449e-11
-6.61453e-11
-8.31086e-11
-1.00515e-10
-1.15818e-10
-1.25423e-10
-1.26341e-10
-1.20231e-10
-1.1331e-10
-1.0382e-10
-7.70193e-11
-4.13216e-12
-4.10379e-13
-3.71804e-11
-3.21095e-12
-8.16034e-14
-1.85141e-15
-1.52241e-17
-9.81979e-20
-5.60641e-22
-2.97744e-24
-1.27802e-26
-3.656e-29
-6.47161e-32
-5.5672e-35
-4.83607e-12
-3.79898e-12
-4.76203e-12
-5.75609e-12
-6.95823e-12
-7.88263e-12
-8.73839e-12
-9.3646e-12
-9.96845e-12
-1.05126e-11
-1.11739e-11
-1.19324e-11
-1.2877e-11
-1.39445e-11
-1.52102e-11
-1.67964e-11
-1.88812e-11
-2.17483e-11
-2.55821e-11
-3.0622e-11
-3.69306e-11
-4.45306e-11
-5.31836e-11
-6.23898e-11
-7.12325e-11
-7.85891e-11
-8.31204e-11
-8.35939e-11
-7.90474e-11
-6.95405e-11
-5.66022e-11
-4.32585e-11
-3.32407e-11
-2.88956e-11
-2.95881e-11
-3.26681e-11
-3.59108e-11
-3.87627e-11
-4.16779e-11
-4.40682e-11
-4.30881e-11
-3.48689e-11
-2.78756e-11
-1.33691e-11
-2.06282e-14
2.25066e-10
2.92919e-09
5.53141e-09
-7.78251e-11
-5.14128e-11
-1.23144e-12
-5.06785e-14
-6.3206e-16
-5.62999e-18
-4.06247e-20
-2.59077e-22
-1.19704e-24
-3.64319e-27
-6.90926e-30
-6.14709e-33
-1.22884e-11
-1.2187e-11
-1.43883e-11
-1.62441e-11
-1.79771e-11
-1.84044e-11
-1.84662e-11
-1.77194e-11
-1.68769e-11
-1.58124e-11
-1.48532e-11
-1.38983e-11
-1.30371e-11
-1.22457e-11
-1.16713e-11
-1.15177e-11
-1.19074e-11
-1.293e-11
-1.44932e-11
-1.65019e-11
-1.88747e-11
-2.15269e-11
-2.42296e-11
-2.66556e-11
-2.8308e-11
-2.86498e-11
-2.79784e-11
-2.33393e-11
-1.65346e-11
-8.8526e-12
-2.44502e-12
6.20099e-20
5.18882e-20
1.07969e-19
3.87899e-19
1.20409e-18
2.92183e-18
6.71455e-18
1.87582e-17
2.00744e-16
1.22139e-14
3.48207e-14
8.06652e-09
8.60436e-08
3.93443e-07
1.19919e-06
2.0447e-06
2.00414e-06
4.30465e-07
-3.84785e-10
-8.19789e-12
-6.20185e-13
-1.20284e-14
-1.48003e-16
-1.38572e-18
-1.00606e-20
-4.91947e-23
-1.56129e-25
-3.03423e-28
-2.74148e-31
-2.01937e-11
-1.7299e-11
-1.81101e-11
-1.81508e-11
-1.75265e-11
-1.55961e-11
-1.38285e-11
-1.16227e-11
-9.33635e-12
-6.79251e-12
-3.97892e-12
-1.30326e-12
-2.4883e-20
-2.76454e-20
-4.89836e-20
-1.89855e-19
-3.05515e-19
-3.81583e-19
-9.89001e-20
2.4268e-19
6.54095e-19
1.0515e-18
1.31882e-18
1.40803e-18
1.07299e-18
2.14507e-16
6.19948e-10
4.68782e-09
9.01883e-09
1.41491e-08
1.92913e-08
2.38744e-08
2.72367e-08
2.90878e-08
2.974e-08
3.03364e-08
3.35548e-08
4.22561e-08
6.35357e-08
1.20632e-07
3.03254e-07
9.19681e-07
2.95154e-06
8.77669e-06
2.20061e-05
4.296e-05
5.89069e-05
4.26179e-05
1.1304e-05
1.3507e-07
-3.54746e-11
-4.44887e-12
-1.48808e-13
-2.57798e-15
-3.22494e-17
-2.656e-19
-1.43059e-21
-4.93187e-24
-1.02094e-26
-9.77756e-30
-1.97522e-11
-1.40447e-11
-1.10221e-11
-7.2459e-12
-2.33277e-12
-1.29376e-13
-1.10668e-18
-3.87732e-19
-1.32041e-18
1.81919e-18
1.08424e-11
1.00725e-10
3.52815e-10
7.76847e-10
1.34913e-09
2.13412e-09
3.30157e-09
5.03685e-09
7.68043e-09
1.18302e-08
1.8686e-08
3.04941e-08
5.24241e-08
9.36118e-08
1.65179e-07
2.78327e-07
4.39588e-07
6.463e-07
8.51856e-07
1.01284e-06
1.12245e-06
1.201e-06
1.26557e-06
1.29189e-06
1.22443e-06
1.12333e-06
1.05191e-06
1.08355e-06
1.33619e-06
2.07581e-06
4.16742e-06
1.05963e-05
3.11433e-05
9.05951e-05
0.000219158
0.000384771
0.000494072
0.000406961
0.000170044
1.10779e-05
-8.88913e-11
-1.69989e-11
-1.34485e-12
-3.47579e-14
-5.2076e-16
-4.977e-18
-3.03975e-20
-1.17118e-22
-2.66042e-25
-2.77339e-28
-1.20855e-11
-4.30103e-18
2.58236e-12
2.19338e-11
1.23079e-10
2.8904e-10
5.71427e-10
1.04818e-09
1.7294e-09
2.84915e-09
4.77376e-09
8.17215e-09
1.42535e-08
2.43477e-08
3.91902e-08
6.05449e-08
9.36159e-08
1.41795e-07
2.12583e-07
3.20758e-07
5.07731e-07
8.30345e-07
1.43165e-06
2.61256e-06
4.69201e-06
7.64056e-06
1.06515e-05
1.29738e-05
1.40304e-05
1.38836e-05
1.3343e-05
1.28273e-05
1.2888e-05
1.37648e-05
1.49015e-05
1.59611e-05
1.70955e-05
1.86919e-05
2.21309e-05
3.05927e-05
5.21626e-05
0.000107831
0.000266085
0.000699877
0.00172424
0.00305653
0.004037
0.00456467
0.00298368
0.000291131
2.45309e-07
-1.12887e-11
-9.01819e-12
-3.24854e-13
-5.94832e-15
-6.68327e-17
-4.70286e-19
-2.05959e-21
-5.23514e-24
-6.05068e-27
3.61045e-11
8.21477e-11
1.29237e-12
2.01887e-10
7.05483e-09
1.4582e-08
2.42348e-08
4.51099e-08
7.47201e-08
1.2374e-07
2.07569e-07
3.52234e-07
5.82052e-07
8.82382e-07
1.18435e-06
1.58846e-06
2.10538e-06
2.73619e-06
3.57327e-06
4.76075e-06
6.29495e-06
8.02172e-06
1.01619e-05
1.32643e-05
1.77568e-05
2.24338e-05
2.84843e-05
3.49101e-05
3.65232e-05
3.80323e-05
4.35706e-05
4.59789e-05
4.01752e-05
3.54076e-05
3.75681e-05
4.40455e-05
5.16373e-05
6.40351e-05
9.06711e-05
0.000148347
0.000256628
0.000489297
0.00117596
0.00452123
0.0124418
0.0215787
0.0344276
0.0378715
0.020631
0.00161609
3.51258e-06
-3.20986e-10
-5.35837e-11
-2.30081e-12
-4.97854e-14
-6.51537e-16
-5.29459e-18
-2.65692e-20
-7.66321e-23
-9.95127e-26
5.4501e-10
1.01988e-07
8.88536e-07
1.41128e-06
4.39763e-07
4.46835e-07
3.31344e-07
5.77059e-07
1.05864e-06
1.87989e-06
3.17314e-06
4.9064e-06
6.79155e-06
8.58141e-06
1.03078e-05
1.24399e-05
1.47782e-05
1.67119e-05
1.91728e-05
2.24241e-05
2.68029e-05
3.13555e-05
3.53997e-05
3.92244e-05
4.4139e-05
5.13939e-05
6.21404e-05
7.65552e-05
9.27859e-05
0.000111554
0.000140548
0.000174944
0.000181134
0.000170502
0.000145014
0.000124994
0.000119457
0.000114459
9.51616e-05
9.03754e-05
0.000130203
0.000195824
0.00032806
0.0010174
0.0101654
0.0908956
0.230562
0.196159
0.0567665
0.00248357
4.81467e-06
-2.46775e-09
-2.91501e-10
-1.33058e-11
-3.18023e-13
-4.67317e-15
-4.31629e-17
-2.4703e-19
-8.08724e-22
-1.18608e-24
8.75256e-14
-1.41045e-11
-2.31007e-10
3.83676e-05
3.99135e-05
1.59867e-05
5.43123e-06
1.25879e-05
1.43069e-05
1.59733e-05
3.05497e-05
5.65108e-05
6.19187e-05
5.88676e-05
5.01049e-05
4.15558e-05
4.2565e-05
4.50161e-05
4.89284e-05
5.51729e-05
6.3989e-05
7.61131e-05
9.35595e-05
0.000119765
0.000162866
0.000231339
0.000315969
0.000397427
0.000466592
0.000521053
0.000571154
0.000639948
0.000722187
0.000772609
0.000786971
0.000801503
0.000812382
0.000767122
0.000588283
0.000270902
0.000130389
0.000143136
0.00017175
0.000189399
0.00287088
0.119188
0.551508
0.424644
0.08519
0.0028149
4.12256e-06
-6.19072e-09
-1.1409e-09
-6.08175e-11
-1.63822e-12
-2.70255e-14
-2.79772e-16
-1.78293e-18
-6.43745e-21
-1.03678e-23
1.08913e-08
-9.58853e-14
-1.51362e-11
-1.63735e-10
1.25123e-05
8.87386e-06
2.27145e-06
1.9106e-06
2.21124e-05
6.54812e-05
0.00011547
0.00013242
0.00013519
0.000143369
0.000154107
0.000138497
0.000110707
9.23583e-05
8.66912e-05
9.27427e-05
0.000114355
0.000152713
0.000197558
0.000252914
0.000333592
0.000459657
0.000638375
0.000779444
0.000798156
0.000808069
0.000830196
0.000854172
0.000874924
0.000893255
0.000910959
0.000930069
0.000936956
0.000896071
0.000820284
0.000780726
0.000793542
0.000798991
0.000569072
0.00033053
0.00334008
0.122016
0.523535
0.374333
0.06835
0.00208697
2.14997e-06
-4.89038e-09
-1.24155e-09
-6.62972e-11
-1.83293e-12
-3.11891e-14
-3.28584e-16
-2.09495e-18
-7.45834e-21
-1.1718e-23
2.33218e-13
3.78569e-11
-2.9917e-11
4.69221e-05
6.06234e-05
1.62231e-05
1.95566e-06
1.90841e-06
3.06905e-06
9.46055e-06
1.90432e-05
3.19596e-05
4.23939e-05
4.84491e-05
5.13767e-05
4.73832e-05
4.59121e-05
4.82509e-05
5.70871e-05
7.90468e-05
0.000122723
0.000171526
0.000170878
0.000167704
0.000183661
0.0002211
0.000244995
0.00025731
0.00026221
0.000264855
0.000273126
0.000288233
0.000309491
0.000331732
0.000338575
0.000334023
0.000315697
0.000281922
0.000228942
0.00019377
0.000206228
0.000227096
0.000161013
0.000131442
0.00209535
0.108184
0.602092
0.462239
0.087645
0.00264192
2.6233e-06
-7.58697e-09
-1.59446e-09
-8.27315e-11
-2.25002e-12
-3.76045e-14
-3.87759e-16
-2.40438e-18
-8.28504e-21
-1.25256e-23
9.49866e-07
6.88889e-07
2.93271e-11
1.35288e-09
1.47489e-09
7.07812e-07
3.3185e-06
9.75417e-06
1.24794e-05
1.5746e-05
1.93218e-05
2.20156e-05
2.33438e-05
2.4489e-05
2.73268e-05
3.60828e-05
4.8267e-05
4.23809e-05
2.93145e-05
4.30196e-05
0.00016092
0.000171529
0.00014053
0.000125702
0.00019246
0.000441481
0.000404944
0.000245608
0.000129501
0.000126163
0.000283694
0.000712019
0.000712191
0.000685326
0.000342472
0.000196739
0.000237663
0.000237289
0.000182437
0.000150222
0.000154766
0.000147649
0.000131458
0.000131403
0.0011963
0.0514491
0.585592
0.663879
0.206259
0.00989754
3.49925e-05
-2.94542e-08
-2.10196e-09
-9.55247e-11
-2.38877e-12
-3.47057e-14
-3.03984e-16
-1.60741e-18
-4.78255e-21
-6.28023e-24
5.35095e-07
1.70379e-06
1.33666e-05
9.48551e-05
0.000239593
0.000144185
1.39436e-05
1.00282e-05
1.23269e-05
1.55591e-05
1.79788e-05
1.62159e-05
1.17132e-05
1.17135e-05
1.44864e-05
1.90401e-05
2.3203e-05
2.40855e-05
2.4464e-05
4.9779e-05
0.000122089
0.000150309
0.000126888
0.000105338
8.87078e-05
0.000107367
0.000505834
0.00085217
0.000422837
0.000156191
0.000143672
0.000139754
0.000239143
0.000647256
0.000681205
0.000626017
0.000263233
0.000151892
0.000164241
0.000207334
0.000278383
0.000225456
0.000131404
0.000131387
0.0014562
0.0529493
0.549156
0.619036
0.203428
0.0104593
4.22863e-05
-2.95833e-08
-2.04019e-09
-9.18094e-11
-2.31027e-12
-3.38306e-14
-2.97905e-16
-1.5804e-18
-4.71227e-21
-6.20162e-24
1.96388e-07
1.63847e-05
0.000415042
0.00266982
0.00347355
0.0014711
9.12458e-05
2.32663e-06
2.34377e-06
2.34512e-06
2.92377e-06
9.56868e-06
2.97268e-05
5.87335e-05
6.81504e-05
6.32538e-05
5.23519e-05
3.72319e-05
3.45972e-05
4.78695e-05
6.70534e-05
8.10758e-05
9.30877e-05
0.000102
0.00011084
0.000127695
0.000172281
0.000216186
0.00023479
0.000252128
0.000266037
0.000277962
0.000296573
0.000329582
0.000379193
0.000384588
0.000359757
0.000298739
0.000235391
0.000228565
0.000258872
0.0002918
0.000199967
0.000255193
0.00499869
0.162351
0.541241
0.337507
0.0513321
0.00120183
1.57522e-07
-1.19439e-08
-1.16141e-09
-5.41985e-11
-1.53446e-12
-2.67844e-14
-2.81724e-16
-1.75141e-18
-5.99208e-21
-8.96309e-24
5.38325e-12
0.000136968
0.0017338
0.00740973
0.0106342
0.00522975
0.00042856
1.66886e-05
1.79307e-05
2.54668e-05
3.58224e-05
6.31336e-05
0.000113136
0.00015137
0.000149479
0.00011535
6.15704e-05
4.96803e-05
7.91933e-05
9.6212e-05
5.53254e-05
1.39563e-05
1.50333e-05
4.05594e-05
0.000274138
0.000703667
0.000754621
0.000545277
0.000271643
0.000135765
9.74746e-05
8.26173e-05
0.000114709
0.000604651
0.00086157
0.000860888
0.000579514
0.000340577
0.000329816
0.000341589
0.000362126
0.000353328
0.000201715
0.000251317
0.00546894
0.180155
0.470733
0.244298
0.0252326
0.000293114
-5.20609e-08
-6.47006e-09
-5.44404e-10
-2.72049e-11
-7.91203e-13
-1.36715e-14
-1.40434e-16
-8.53873e-19
-2.87122e-21
-4.25187e-24
-4.08696e-13
0.0004078
0.00121634
0.000942659
0.000485144
0.000147352
3.35278e-06
3.28033e-06
1.31767e-05
2.14963e-05
3.21283e-05
4.66147e-05
6.6536e-05
7.6077e-05
7.9542e-05
8.64053e-05
9.93843e-05
0.000113617
0.00012785
9.05128e-05
2.31133e-05
1.87938e-05
0.000110177
0.000595112
0.000605748
0.000585832
0.000373173
0.000221933
0.000221196
0.000294869
0.000618024
0.00136764
0.00138356
0.00110495
0.000394431
0.00023787
0.000253959
0.000265942
0.000256122
0.000237882
0.000211027
0.000152305
8.03763e-05
0.00019091
0.00722028
0.205868
0.498836
0.276482
0.0321507
0.000448433
-6.99892e-08
-7.38876e-09
-5.26035e-10
-2.36257e-11
-6.50776e-13
-1.10159e-14
-1.13068e-16
-6.96655e-19
-2.39759e-21
-3.65825e-24
1.97464e-10
-8.34682e-12
-6.35067e-10
1.98343e-06
1.53622e-06
9.64722e-07
1.42541e-06
2.18953e-06
3.04008e-06
4.16333e-06
5.88963e-06
8.30664e-06
1.08408e-05
1.33934e-05
1.77099e-05
2.2479e-05
2.59657e-05
2.71803e-05
2.58427e-05
2.20735e-05
3.29481e-05
7.74594e-05
0.000107906
0.000112221
8.93735e-05
4.89194e-05
3.70823e-05
8.03153e-05
0.000341138
0.000475334
0.000475338
0.000438642
0.000330227
0.000157727
4.91207e-05
3.4226e-05
4.51357e-05
5.98923e-05
6.00802e-05
6.17163e-05
7.93038e-05
9.41103e-05
0.000106386
0.000574525
0.0130178
0.106349
0.189915
0.140457
0.034594
0.00121156
1.31735e-06
-1.10215e-09
-1.94352e-10
-8.62751e-12
-2.0242e-13
-2.96327e-15
-2.73307e-17
-1.55938e-19
-5.07673e-22
-7.37495e-25
-3.45931e-11
9.15868e-11
3.76788e-10
-2.72676e-10
6.87493e-10
3.10695e-08
6.61355e-08
3.42716e-08
3.31578e-08
3.50759e-08
3.7684e-08
5.41616e-08
1.08421e-07
2.29288e-07
4.26041e-07
6.16484e-07
6.98356e-07
6.48245e-07
5.67677e-07
5.7942e-07
6.78341e-07
7.35418e-07
9.66587e-07
1.71125e-06
3.32757e-06
6.03475e-06
1.0024e-05
1.41877e-05
1.72297e-05
1.80426e-05
1.20358e-05
8.09543e-06
6.17326e-06
5.63127e-06
6.38665e-06
8.35634e-06
1.07197e-05
1.32548e-05
1.71756e-05
2.4775e-05
4.11642e-05
0.000100045
0.000387834
0.00272391
0.0103618
0.020009
0.0303964
0.0323641
0.0170249
0.00112766
1.80808e-06
-2.03868e-10
-3.81713e-11
-1.57198e-12
-3.31357e-14
-4.24667e-16
-3.37606e-18
-1.65357e-20
-4.64539e-23
-5.85425e-26
-1.44644e-10
-1.20837e-10
-9.46242e-11
-3.64587e-11
-1.10905e-12
-3.95162e-13
-1.45655e-13
1.13656e-15
4.25107e-17
-3.64097e-18
1.33374e-18
-2.9301e-18
-4.5687e-18
-6.26245e-18
-2.37526e-17
-1.93834e-15
-2.00973e-16
2.51281e-15
1.20129e-15
-1.31906e-16
-2.39617e-18
6.99514e-18
8.60728e-18
8.05386e-18
-2.28887e-18
-2.30045e-17
-4.72003e-17
-8.62923e-17
-1.44614e-16
-2.45019e-16
-5.04612e-16
-9.14432e-16
-1.43786e-15
-5.77899e-16
3.33335e-15
9.18919e-15
2.00964e-14
5.00471e-14
1.54212e-13
7.40657e-13
1.28436e-12
4.07172e-06
3.07868e-05
0.000142862
0.0005281
0.00134325
0.00262568
0.00412517
0.00334395
0.000371601
2.58879e-07
-7.34122e-12
-7.45541e-12
-2.56308e-13
-4.52356e-15
-4.89905e-17
-3.31336e-19
-1.39029e-21
-3.37964e-24
-3.72968e-27
-1.85025e-10
-2.18673e-10
-2.78908e-10
-3.33138e-10
-3.86919e-10
-4.48272e-10
-5.28033e-10
-6.04517e-10
-6.94807e-10
-7.93885e-10
-9.09997e-10
-1.04436e-09
-1.20056e-09
-1.37987e-09
-1.57394e-09
-1.77281e-09
-1.95521e-09
-2.17498e-09
-2.41948e-09
-2.67033e-09
-2.94976e-09
-3.26517e-09
-3.60523e-09
-3.95228e-09
-4.25249e-09
-4.44592e-09
-4.46338e-09
-4.28708e-09
-3.95659e-09
-3.55053e-09
-3.15105e-09
-2.81207e-09
-2.53035e-09
-2.25609e-09
-1.91609e-09
-1.40652e-09
-7.6204e-10
-1.38855e-10
2.31484e-15
-5.49006e-16
-1.07978e-13
-1.07175e-12
-5.65836e-13
-7.74323e-12
1.34781e-12
2.24039e-05
8.41455e-05
0.000158932
0.000188613
2.64407e-05
1.09809e-09
-1.86295e-11
-1.46114e-12
-3.60806e-14
-5.17838e-16
-4.72084e-18
-2.73224e-20
-9.91502e-23
-2.11202e-25
-2.04791e-28
-1.25242e-10
-1.71868e-10
-2.40765e-10
-3.17185e-10
-3.99598e-10
-4.81489e-10
-5.74418e-10
-6.73525e-10
-7.87473e-10
-9.11686e-10
-1.05435e-09
-1.21047e-09
-1.38082e-09
-1.55861e-09
-1.74111e-09
-1.92217e-09
-2.10594e-09
-2.30058e-09
-2.50373e-09
-2.73e-09
-2.98115e-09
-3.26661e-09
-3.57288e-09
-3.89077e-09
-4.19657e-09
-4.45842e-09
-4.63277e-09
-4.70975e-09
-4.71489e-09
-4.6964e-09
-4.68542e-09
-4.69367e-09
-4.72862e-09
-4.78551e-09
-4.85291e-09
-4.89715e-09
-4.85502e-09
-4.65725e-09
-4.10319e-09
-3.4804e-09
-2.95321e-09
-1.74167e-09
-7.18675e-10
-8.32456e-10
9.73884e-10
4.63592e-08
2.96626e-07
8.01687e-07
1.39408e-06
9.56873e-08
-3.52279e-11
-9.41005e-12
-2.85824e-13
-5.03328e-15
-6.44078e-17
-5.48209e-19
-3.03621e-21
-1.07585e-23
-2.28529e-26
-2.24481e-29
-4.5228e-11
-5.69599e-11
-7.91886e-11
-1.05566e-10
-1.3635e-10
-1.68279e-10
-2.01175e-10
-2.36243e-10
-2.77963e-10
-3.21961e-10
-3.71913e-10
-4.25929e-10
-4.85403e-10
-5.48994e-10
-6.17577e-10
-6.88932e-10
-7.56607e-10
-8.2301e-10
-8.89693e-10
-9.68675e-10
-1.06092e-09
-1.16577e-09
-1.2818e-09
-1.40887e-09
-1.54424e-09
-1.68451e-09
-1.82373e-09
-1.96315e-09
-2.10826e-09
-2.26609e-09
-2.43328e-09
-2.59778e-09
-2.73876e-09
-2.8308e-09
-2.84622e-09
-2.74512e-09
-2.44855e-09
-2.23812e-09
-1.89669e-09
-8.9349e-10
2.13939e-11
-1.98639e-12
-2.44412e-09
-2.59845e-09
-2.13289e-09
-1.01616e-09
7.8787e-10
3.48668e-09
1.9867e-09
-2.45181e-10
-1.71602e-11
-1.09103e-12
-1.8795e-14
-2.24704e-16
-2.0675e-18
-1.52658e-20
-7.61859e-23
-2.50441e-25
-5.10979e-28
-4.98134e-31
-8.06967e-12
-7.89063e-12
-1.03058e-11
-1.33199e-11
-1.73011e-11
-2.20401e-11
-2.65763e-11
-3.15963e-11
-3.7682e-11
-4.45476e-11
-5.2328e-11
-6.0999e-11
-7.06835e-11
-8.13726e-11
-9.33721e-11
-1.0653e-10
-1.19456e-10
-1.32625e-10
-1.46831e-10
-1.64875e-10
-1.86398e-10
-2.11668e-10
-2.40964e-10
-2.74889e-10
-3.13814e-10
-3.58145e-10
-4.07845e-10
-4.63663e-10
-5.26196e-10
-5.95372e-10
-6.67842e-10
-7.37575e-10
-7.95223e-10
-8.31118e-10
-8.37489e-10
-8.11577e-10
-7.60628e-10
-7.14414e-10
-6.75038e-10
-6.36169e-10
-5.5955e-10
-5.0259e-10
-4.615e-10
-3.45377e-10
8.56805e-12
1.53721e-10
1.33789e-10
4.78926e-14
-1.41702e-11
-2.30297e-11
-1.78694e-12
-5.56774e-14
-5.96234e-16
-5.07907e-18
-3.70762e-20
-2.4701e-22
-1.22864e-24
-4.14474e-27
-8.85437e-30
-9.09674e-33
-1.39175e-12
-2.52827e-13
-3.39188e-13
-4.18704e-13
-5.57098e-13
-7.6282e-13
-9.50779e-13
-1.17985e-12
-1.46635e-12
-1.81262e-12
-2.22268e-12
-2.69591e-12
-3.25116e-12
-3.89766e-12
-4.66831e-12
-5.59945e-12
-6.54848e-12
-7.5496e-12
-8.70545e-12
-1.02807e-11
-1.22437e-11
-1.46678e-11
-1.7651e-11
-2.12936e-11
-2.57077e-11
-3.10148e-11
-3.73426e-11
-4.49016e-11
-5.39334e-11
-6.46824e-11
-7.7209e-11
-9.13578e-11
-1.06609e-10
-1.22319e-10
-1.38248e-10
-1.54977e-10
-1.7437e-10
-1.98699e-10
-2.29567e-10
-2.66641e-10
-2.99903e-10
-3.22514e-10
-3.25255e-10
-2.95026e-10
-2.19102e-10
-8.90085e-11
2.03417e-11
-4.47886e-16
-1.24016e-11
-1.23628e-12
-7.67995e-14
-1.24815e-15
-9.16109e-18
-6.41531e-20
-4.42046e-22
-2.81379e-24
-1.41419e-26
-4.85991e-29
-1.03442e-31
-1.0855e-34
-3.0807e-13
-1.4091e-13
-2.18693e-13
-2.9031e-13
-4.00673e-13
-5.29632e-13
-6.96959e-13
-8.92481e-13
-1.13305e-12
-1.41342e-12
-1.74822e-12
-2.13811e-12
-2.59821e-12
-3.13124e-12
-3.75958e-12
-4.49526e-12
-5.36251e-12
-6.39067e-12
-7.61622e-12
-9.09173e-12
-1.08625e-11
-1.29781e-11
-1.54818e-11
-1.84146e-11
-2.17992e-11
-2.56432e-11
-2.99028e-11
-3.44131e-11
-3.87105e-11
-4.19162e-11
-4.27634e-11
-4.01788e-11
-3.57958e-11
-3.1634e-11
-2.86647e-11
-2.70263e-11
-2.70213e-11
-2.93408e-11
-3.49107e-11
-4.40991e-11
-5.50192e-11
-6.49724e-11
-7.33933e-11
-7.90464e-11
-7.70852e-11
-6.0972e-11
-2.95161e-11
-1.00059e-12
-1.64048e-11
-2.16696e-12
-7.16975e-14
-1.99517e-15
-1.87088e-17
-1.44688e-19
-1.01436e-21
-6.3495e-24
-3.05619e-26
-9.88562e-29
-1.95662e-31
-1.88808e-34
-1.12334e-12
-2.4792e-12
-3.74185e-12
-5.23658e-12
-7.14021e-12
-9.29888e-12
-1.18903e-11
-1.47719e-11
-1.81839e-11
-2.2009e-11
-2.63951e-11
-3.13993e-11
-3.69959e-11
-4.32827e-11
-5.03265e-11
-5.81695e-11
-6.68362e-11
-7.64282e-11
-8.67247e-11
-9.79264e-11
-1.09627e-10
-1.21682e-10
-1.33476e-10
-1.44374e-10
-1.5299e-10
-1.57335e-10
-1.54345e-10
-1.40168e-10
-1.11035e-10
-6.58109e-11
-5.98915e-12
7.82536e-11
4.96082e-10
1.07246e-09
1.60085e-09
1.97318e-09
2.14665e-09
2.18436e-09
2.1515e-09
1.68742e-09
1.02764e-09
5.51782e-10
3.07055e-10
2.33106e-10
2.45179e-10
3.8498e-10
4.22735e-10
6.12905e-10
5.71558e-11
-9.69997e-12
-8.91699e-13
-5.34419e-14
-8.20524e-16
-8.51759e-18
-7.14491e-20
-5.21086e-22
-2.69757e-24
-9.25921e-27
-1.96204e-29
-1.96191e-32
7.979e-12
-5.44459e-12
-9.44625e-12
-1.42846e-11
-1.99336e-11
-2.67126e-11
-3.46073e-11
-4.36711e-11
-5.4042e-11
-6.53541e-11
-7.76145e-11
-9.05753e-11
-1.03757e-10
-1.16799e-10
-1.29027e-10
-1.39408e-10
-1.46682e-10
-1.49577e-10
-1.4685e-10
-1.38313e-10
-1.23884e-10
-1.03401e-10
-7.51608e-11
-3.95791e-11
3.25407e-17
1.05139e-10
3.90065e-10
7.60175e-10
1.4701e-09
2.95772e-09
6.68223e-09
1.76441e-08
4.50265e-08
9.17942e-08
1.49734e-07
2.13418e-07
2.84818e-07
3.73859e-07
4.85289e-07
5.73349e-07
6.22995e-07
6.69068e-07
5.50211e-07
3.36831e-07
2.15748e-07
1.49843e-07
1.86923e-07
2.83089e-07
2.16239e-07
1.44798e-08
-9.20955e-12
-5.89573e-13
-1.68629e-14
-2.43434e-16
-2.53908e-18
-2.03692e-20
-1.09758e-22
-3.87995e-25
-8.39366e-28
-8.55982e-31
-8.99052e-12
-2.30214e-11
-3.91591e-11
-5.96121e-11
-8.02513e-11
-1.03295e-10
-1.25952e-10
-1.48804e-10
-1.69893e-10
-1.8834e-10
-2.0371e-10
-2.16078e-10
-2.25588e-10
-2.3384e-10
-2.42875e-10
-2.54749e-10
-2.70585e-10
-2.85746e-10
-2.91983e-10
-2.78947e-10
-2.36657e-10
-1.73998e-10
-1.40184e-10
-9.49853e-11
-4.3612e-11
4.56559e-12
1.35812e-10
3.798e-10
8.01114e-10
1.82955e-09
4.49062e-09
1.12519e-08
2.58571e-08
4.97651e-08
8.00562e-08
1.13659e-07
1.54779e-07
2.25436e-07
3.72609e-07
7.92128e-07
1.94611e-06
3.96348e-06
4.17195e-06
1.9619e-06
5.9675e-07
1.61935e-06
6.13049e-06
1.32287e-05
1.77486e-05
4.75114e-06
1.0661e-08
-3.12822e-12
-2.19472e-13
-4.62802e-15
-6.37191e-17
-5.68406e-19
-3.27873e-21
-1.21509e-23
-2.70429e-26
-2.82489e-29
-6.94489e-11
-1.13385e-10
-1.68032e-10
-2.31525e-10
-2.96151e-10
-3.68487e-10
-4.43494e-10
-5.20657e-10
-5.98569e-10
-6.70701e-10
-7.37715e-10
-7.94044e-10
-8.36429e-10
-8.6432e-10
-8.84966e-10
-9.10462e-10
-9.48805e-10
-9.9664e-10
-1.02636e-09
-9.98999e-10
-8.78465e-10
-6.56827e-10
-3.72372e-10
-2.05475e-10
-1.07277e-10
-3.60547e-11
6.63744e-12
1.58992e-10
5.00462e-10
1.10272e-09
2.28981e-09
4.31339e-09
7.28816e-09
1.14946e-08
1.69629e-08
2.38415e-08
3.3603e-08
4.3435e-08
6.44209e-08
1.87249e-07
7.27931e-07
2.31091e-06
6.26583e-06
3.70518e-06
4.53739e-06
1.92201e-05
8.05556e-05
0.000201041
0.000309328
0.000168741
1.71674e-06
-3.64074e-12
-1.80033e-12
-6.13618e-14
-1.03672e-15
-1.08029e-17
-7.06852e-20
-2.91269e-22
-7.07482e-25
-7.96499e-28
-9.42172e-11
-1.16316e-10
-1.30052e-10
-1.38236e-10
-1.52311e-10
-1.68323e-10
-1.856e-10
-1.97582e-10
-2.08822e-10
-2.18611e-10
-2.31291e-10
-2.44263e-10
-2.52043e-10
-2.62459e-10
-2.6177e-10
-2.54098e-10
-2.35664e-10
-1.95505e-10
-1.25697e-10
-5.13296e-11
-2.39047e-17
-3.69495e-17
-5.05374e-17
-8.94542e-17
3.32748e-17
9.78982e-11
2.00678e-09
6.49335e-09
1.35454e-08
2.33437e-08
3.57777e-08
4.70833e-08
5.15728e-08
5.18545e-08
5.24701e-08
8.1941e-08
1.22297e-07
1.87897e-07
3.07259e-07
5.65933e-07
1.28131e-06
3.1667e-06
6.38029e-06
1.34696e-05
4.04146e-05
0.000157856
0.000675309
0.00185885
0.00294965
0.0016655
3.24719e-05
1.39702e-09
-4.15268e-12
-3.87558e-13
-7.20857e-15
-7.73722e-17
-5.10784e-19
-2.08219e-21
-4.90421e-24
-5.19418e-27
-6.08907e-11
-2.27525e-11
-2.38911e-17
-5.12099e-17
-3.80349e-17
4.52341e-17
1.24149e-16
2.28908e-16
1.09232e-16
5.2628e-17
-6.57832e-18
-9.41354e-17
1.33822e-16
9.41316e-10
1.66843e-09
1.29279e-09
1.19613e-09
1.34419e-09
1.01445e-09
2.43458e-10
-2.98201e-16
1.10433e-14
4.96925e-10
1.91724e-08
5.62678e-08
1.18421e-07
2.14905e-07
3.58106e-07
5.63525e-07
8.31864e-07
1.14124e-06
1.45204e-06
1.72459e-06
1.91402e-06
2.01648e-06
1.94513e-06
1.82251e-06
1.87227e-06
2.40781e-06
3.74609e-06
5.903e-06
1.12319e-05
3.53588e-05
0.000130682
0.00042764
0.00175228
0.00674728
0.0169209
0.0197973
0.00585983
0.000103481
1.19256e-08
-1.91639e-11
-2.12649e-12
-4.08324e-14
-4.56435e-16
-3.17136e-18
-1.35969e-20
-3.34569e-23
-3.6702e-26
4.47006e-10
2.79881e-09
8.07298e-09
3.97765e-08
1.20327e-07
2.32707e-07
3.15515e-07
3.95209e-07
4.80786e-07
5.76692e-07
6.43589e-07
6.98194e-07
7.51722e-07
8.02801e-07
8.25639e-07
9.29882e-07
1.07426e-06
1.22262e-06
1.30718e-06
1.36316e-06
1.45685e-06
1.58555e-06
1.97565e-06
2.75228e-06
3.74789e-06
4.64611e-06
5.36539e-06
6.09382e-06
7.00799e-06
7.87341e-06
8.43786e-06
8.98925e-06
1.00309e-05
1.15227e-05
1.34249e-05
1.73564e-05
2.28046e-05
2.80616e-05
3.3391e-05
3.67944e-05
3.46321e-05
2.57938e-05
3.61736e-05
0.000254626
0.00280992
0.0160876
0.0592729
0.0970111
0.0629966
0.00755295
5.77155e-05
-5.8748e-09
-3.21175e-10
-1.05698e-11
-2.11026e-13
-2.66929e-15
-2.12699e-17
-1.04662e-19
-2.94808e-22
-3.70178e-25
1.59309e-09
4.74101e-08
3.06129e-07
9.24205e-07
1.70358e-06
2.11569e-06
2.70935e-06
3.74042e-06
5.08088e-06
6.69581e-06
8.35161e-06
9.65528e-06
1.02092e-05
1.07198e-05
1.10222e-05
1.1411e-05
1.27162e-05
1.60178e-05
1.95366e-05
2.24397e-05
2.6275e-05
3.30262e-05
4.39662e-05
5.54301e-05
6.45789e-05
7.28527e-05
8.01205e-05
8.17547e-05
8.02062e-05
7.70942e-05
7.35603e-05
7.25315e-05
7.62364e-05
8.5108e-05
8.83216e-05
8.68834e-05
8.98971e-05
0.000104906
0.000136057
0.000173488
0.000183958
0.000155494
6.11284e-05
0.00015732
0.00396206
0.0672807
0.331604
0.325295
0.0962194
0.00366763
6.47858e-06
-7.51828e-09
-6.86857e-10
-3.03098e-11
-7.32777e-13
-1.08916e-14
-1.01622e-16
-5.85246e-19
-1.91884e-21
-2.78836e-24
-1.63607e-12
5.5189e-08
1.35712e-07
2.0688e-08
2.54845e-10
1.26699e-05
2.76376e-05
4.15783e-05
6.24797e-05
7.83584e-05
7.93169e-05
9.43467e-05
0.000106899
0.000119344
0.000131323
0.000125821
9.95626e-05
8.77317e-05
7.9449e-05
7.73955e-05
8.83653e-05
0.000122641
0.000189016
0.000286013
0.000428509
0.000631115
0.00087464
0.00107807
0.00119477
0.00126249
0.00131784
0.00137284
0.00144415
0.00152098
0.00154697
0.00146808
0.00133582
0.00116075
0.000907175
0.000786639
0.000829655
0.000884538
0.000648278
0.000377977
0.00471236
0.198355
0.774804
0.537217
0.0730421
0.00136522
-2.11449e-07
-2.23114e-08
-1.47374e-09
-6.15352e-11
-1.65822e-12
-2.86686e-14
-3.07658e-16
-1.99315e-18
-7.19851e-21
-1.14383e-23
-7.33063e-14
-1.14615e-12
1.27493e-11
-2.24314e-11
3.65921e-11
2.2736e-06
1.64772e-05
3.15633e-05
4.50672e-05
4.26788e-05
4.42052e-05
4.93347e-05
5.61634e-05
6.58577e-05
7.70046e-05
8.89012e-05
0.000102069
0.00011489
0.000126477
0.000139867
0.000165914
0.000206999
0.000262219
0.000333591
0.000426955
0.000544841
0.000670284
0.000775036
0.000848251
0.000906385
0.000964582
0.00105637
0.00123208
0.00149099
0.00170452
0.00174208
0.00167154
0.0014561
0.00113667
0.000918855
0.0009027
0.000871392
0.000528684
0.000363351
0.00716653
0.320858
0.721055
0.335643
0.0309171
0.00036981
-8.76422e-08
-1.04371e-08
-8.62378e-10
-4.39749e-11
-1.3384e-12
-2.43758e-14
-2.63457e-16
-1.67851e-18
-5.88315e-21
-9.03463e-24
7.84782e-15
-2.20499e-14
-1.99364e-14
3.21443e-06
9.63581e-05
7.00538e-05
3.76486e-05
3.91819e-05
3.96905e-05
3.78724e-05
3.81358e-05
4.06722e-05
4.51174e-05
5.65039e-05
7.9553e-05
5.41762e-05
4.89632e-05
0.000183224
0.000237435
0.000231929
0.000138839
0.000186982
0.000289549
0.000289553
0.00031036
0.000355614
0.000403398
0.000450685
0.000500816
0.00055773
0.000629637
0.000736299
0.000931921
0.00126612
0.00147203
0.00144342
0.00125149
0.000927115
0.000677251
0.000578404
0.000503549
0.000380485
0.000198868
0.000317475
0.0139907
0.363957
0.517092
0.178081
0.0101822
4.72108e-05
-2.63091e-08
-4.87083e-09
-5.26149e-10
-2.95711e-11
-9.22415e-13
-1.68062e-14
-1.80001e-16
-1.13052e-18
-3.88909e-21
-5.84221e-24
2.60759e-13
6.49954e-05
0.000727813
0.00219323
0.00226613
0.000822875
7.96836e-05
4.46406e-05
4.76157e-05
5.19361e-05
5.94252e-05
7.61865e-05
9.54477e-05
9.48277e-05
7.73264e-05
4.4528e-05
3.1492e-05
6.60307e-05
0.000234907
0.000241693
0.000156153
5.12061e-05
0.000164913
0.000262847
0.000239737
0.000238775
0.000243359
0.000246374
0.000244768
0.00023803
0.000233751
0.000235207
0.000243515
0.00026776
0.000329534
0.000445074
0.000537994
0.000542182
0.00049032
0.000370277
0.000285114
0.000243675
0.000196228
0.000248002
0.00876138
0.278327
0.527045
0.22928
0.0193491
0.000175329
-4.59556e-08
-6.14247e-09
-5.75432e-10
-3.14332e-11
-9.81854e-13
-1.79578e-14
-1.9266e-16
-1.21012e-18
-4.16052e-21
-6.24317e-24
1.49858e-08
1.49835e-08
6.65146e-05
0.000211878
0.000160983
1.70292e-05
2.80594e-06
2.82058e-06
1.1167e-05
2.56564e-05
3.5848e-05
3.84991e-05
3.97386e-05
4.21936e-05
4.83884e-05
5.78663e-05
6.80124e-05
7.94108e-05
9.16875e-05
0.000112389
0.000141388
0.000177776
0.000192154
0.000198107
0.00020384
0.000219143
0.000244559
0.000249565
0.000236804
0.000205864
0.000193099
0.000201101
0.000235541
0.000294071
0.000373058
0.000510135
0.000667737
0.000673842
0.000594823
0.000414633
0.00030375
0.000301563
0.000249419
0.000247722
0.00420603
0.210845
0.702296
0.425771
0.0586465
0.00126882
-5.07224e-08
-1.65227e-08
-1.41362e-09
-6.39975e-11
-1.7593e-12
-3.04604e-14
-3.23855e-16
-2.06054e-18
-7.24828e-21
-1.11662e-23
1.70172e-07
2.15922e-07
9.23559e-08
9.09137e-08
9.15747e-08
1.55981e-07
5.71496e-06
9.10749e-06
9.38746e-06
1.07202e-05
1.39995e-05
1.55922e-05
1.52939e-05
1.45744e-05
1.33515e-05
1.33447e-05
1.33514e-05
1.33491e-05
1.33619e-05
4.44614e-05
6.17077e-05
6.12276e-05
7.20028e-05
0.000116969
0.000133028
0.000138509
0.000131564
0.000125677
0.000123086
0.000132243
0.000172394
0.000253881
0.000338746
0.000345292
0.000329726
0.000319869
0.000323083
0.000293909
0.000247182
0.000238101
0.000256969
0.000245
0.000214338
0.000303457
0.00275715
0.103632
0.620994
0.549221
0.125738
0.00477528
1.19408e-05
-1.32077e-08
-1.66073e-09
-8.94836e-11
-2.40971e-12
-3.8439e-14
-3.78983e-16
-2.29184e-18
-7.84794e-21
-1.19735e-23
1.28256e-06
4.0696e-06
5.40735e-06
7.47931e-06
6.39874e-06
7.96389e-06
1.20574e-05
1.55597e-05
2.1224e-05
2.76017e-05
3.55515e-05
4.36757e-05
4.87492e-05
5.54015e-05
5.44115e-05
4.44135e-05
3.20643e-05
2.52499e-05
3.75149e-05
5.4287e-05
6.46185e-05
7.60203e-05
0.000106842
0.000177697
0.000286605
0.000306544
0.00023241
0.000179603
0.000271668
0.000586505
0.000463302
0.000227635
0.000201967
0.000219702
0.00021001
0.000179998
0.000153446
0.000155054
0.000164597
0.0001853
0.000191197
0.000211398
0.000214344
0.000205518
0.00209158
0.0371402
0.217891
0.259902
0.106281
0.00686105
3.06356e-05
-1.02367e-08