/*--------------------------------*- C++ -*----------------------------------*\
| =========                 |                                                 |
| \\      /  F ield         | OpenFOAM: The Open Source CFD Toolbox           |
|  \\    /   O peration     | Version:  2.1.1                                 |
|   \\  /    A nd           | Web:      www.OpenFOAM.org                      |
|    \\/     M anipulation  |                                                 |
\*---------------------------------------------------------------------------*/
FoamFile
{
    version     2.0;
    format      ascii;
    class       volScalarField;
    location    "0.0011";
    object      criterion2;
}
// * * * * * * * * * * * * * * * * * * * * * * * * * * * * * * * * * * * * * //

dimensions      [1 2 -2 0 0 0 0];

internalField   nonuniform List<scalar> 
36520
(
-8.51616e-10
3.41759e-09
7.04793e-09
7.68275e-09
8.29497e-09
8.38906e-09
8.60439e-09
8.74882e-09
8.87245e-09
8.98841e-09
9.0187e-09
9.02479e-09
8.94028e-09
8.80578e-09
8.60038e-09
8.38052e-09
8.11836e-09
7.88158e-09
7.64903e-09
7.47816e-09
7.35801e-09
7.3424e-09
7.42392e-09
7.63265e-09
7.957e-09
8.42546e-09
9.0241e-09
9.76017e-09
1.06242e-08
1.16552e-08
1.28573e-08
1.42687e-08
1.59089e-08
1.78825e-08
2.0321e-08
2.35477e-08
2.80728e-08
3.47379e-08
4.49771e-08
6.09229e-08
8.5854e-08
1.2492e-07
1.85182e-07
2.77978e-07
4.24086e-07
6.38448e-07
8.70012e-07
1.05025e-06
1.2929e-06
1.43831e-06
7.6609e-07
3.69968e-07
1.09424e-07
-1.68061e-08
-9.75266e-08
-1.40864e-07
-1.63283e-07
-1.79547e-07
-1.82411e-07
-1.77061e-07
1.76925e-09
-2.01974e-09
7.87317e-11
-1.50257e-11
-2.25396e-10
-7.07757e-10
-7.55663e-10
-7.25173e-10
-5.17389e-10
-2.13421e-10
1.20429e-10
5.12538e-10
8.68658e-10
1.14457e-09
1.29357e-09
1.37057e-09
1.33514e-09
1.38165e-09
1.43852e-09
1.68524e-09
2.07033e-09
2.74693e-09
3.67877e-09
4.96364e-09
6.5127e-09
8.31778e-09
1.01604e-08
1.18255e-08
1.29414e-08
1.33596e-08
1.30185e-08
1.21146e-08
1.09677e-08
9.79175e-09
8.70689e-09
7.80728e-09
7.07788e-09
6.52535e-09
6.20283e-09
6.10747e-09
6.20968e-09
6.48472e-09
6.87611e-09
7.33361e-09
7.92811e-09
8.59674e-09
8.53385e-09
7.67949e-09
5.80559e-09
3.86771e-09
1.324e-08
4.01373e-08
-3.90055e-09
-2.58479e-08
-3.89452e-08
-4.54407e-08
-4.9577e-08
-5.12648e-08
-5.54084e-08
-4.27821e-07
-3.83603e-09
-3.61611e-09
-9.25067e-10
-7.2386e-10
-1.10762e-09
-1.82373e-09
-1.89584e-09
-1.7192e-09
-1.18688e-09
-4.07164e-10
4.82726e-10
1.45153e-09
2.28256e-09
2.71499e-09
2.73384e-09
2.56767e-09
2.1866e-09
2.00251e-09
1.81948e-09
1.90922e-09
2.08081e-09
2.47174e-09
2.8495e-09
3.16856e-09
3.24815e-09
3.18858e-09
3.0117e-09
2.79956e-09
2.57629e-09
2.37711e-09
2.18436e-09
1.99323e-09
1.80199e-09
1.61869e-09
1.46123e-09
1.36792e-09
1.36656e-09
1.48543e-09
1.76449e-09
2.24361e-09
2.9311e-09
3.81838e-09
4.82413e-09
5.83412e-09
6.83659e-09
7.90551e-09
8.57356e-09
8.68028e-09
8.34125e-09
5.28977e-09
1.01896e-09
6.06139e-10
-6.73825e-09
-1.88716e-08
-2.53706e-08
-2.83477e-08
-3.03185e-08
-3.089e-08
-4.21482e-08
-4.6547e-07
1.29133e-09
-3.15969e-09
5.71199e-10
7.99671e-10
-1.03233e-10
-1.39951e-09
-1.63587e-09
-1.47088e-09
-9.09172e-10
-2.62182e-10
2.40977e-10
5.56223e-10
6.41951e-10
5.37738e-10
2.86833e-10
3.42079e-11
-2.62504e-10
-4.31689e-10
-5.91756e-10
-6.04586e-10
-5.70955e-10
-4.0294e-10
-1.97545e-10
5.56282e-11
2.73167e-10
4.63253e-10
5.91404e-10
6.63519e-10
6.83098e-10
6.84653e-10
6.79747e-10
6.68129e-10
6.45806e-10
6.01706e-10
5.42354e-10
5.02221e-10
5.10668e-10
6.01358e-10
8.07679e-10
1.15644e-09
1.61046e-09
2.10084e-09
2.4891e-09
2.64562e-09
2.58307e-09
2.67946e-09
3.18474e-09
5.40062e-09
9.48612e-09
8.95931e-09
2.29046e-09
-1.36389e-09
-5.63273e-09
-1.49961e-08
-1.95374e-08
-2.12481e-08
-2.21376e-08
-2.42905e-08
-5.10172e-08
-4.73133e-07
3.1788e-08
-1.42256e-09
5.35617e-10
-1.35159e-09
-1.85098e-09
-2.39191e-09
-2.48936e-09
-2.38612e-09
-2.13428e-09
-1.83684e-09
-1.55708e-09
-1.32794e-09
-1.18746e-09
-1.12988e-09
-1.18255e-09
-1.22794e-09
-1.32842e-09
-1.37908e-09
-1.42768e-09
-1.39597e-09
-1.3354e-09
-1.20744e-09
-1.05809e-09
-8.87316e-10
-7.42018e-10
-6.18421e-10
-5.20915e-10
-4.46174e-10
-3.91803e-10
-3.49698e-10
-3.12733e-10
-2.90601e-10
-3.20092e-10
-3.93111e-10
-4.70802e-10
-5.0647e-10
-4.89608e-10
-4.24418e-10
-2.98053e-10
-1.2314e-10
4.69996e-11
1.35542e-10
8.5695e-11
-4.62286e-11
-2.50212e-10
-4.83774e-10
-6.3755e-10
-1.34565e-10
4.61185e-09
1.25973e-08
4.64318e-09
-5.79994e-10
-3.37725e-09
-7.03619e-09
-1.59647e-08
-1.70032e-08
-1.67566e-08
-2.649e-08
-5.5175e-08
-4.74325e-07
1.16254e-07
-1.52856e-09
-9.01482e-10
-7.78946e-10
-1.01468e-09
-1.27626e-09
-1.35279e-09
-1.35864e-09
-1.32838e-09
-1.28105e-09
-1.22243e-09
-1.17282e-09
-1.15438e-09
-1.15739e-09
-1.21308e-09
-1.27855e-09
-1.32822e-09
-1.33914e-09
-1.31938e-09
-1.24071e-09
-1.11641e-09
-9.30051e-10
-6.81941e-10
-3.48478e-10
5.29832e-11
5.17041e-10
1.0558e-09
1.70837e-09
2.38137e-09
2.89204e-09
3.06468e-09
2.94593e-09
2.54046e-09
1.90367e-09
1.20186e-09
5.71192e-10
9.09114e-11
-1.41608e-10
-1.84123e-10
-1.19521e-10
5.98516e-11
3.28322e-10
6.08479e-10
7.11979e-10
4.63296e-10
2.31118e-10
7.10724e-11
-3.28531e-11
1.47001e-10
7.79986e-09
7.87109e-09
4.77242e-10
-2.87888e-09
-4.62074e-09
-6.47837e-09
-9.61804e-09
-1.18634e-08
-2.78028e-08
-5.55735e-08
-4.74748e-07
1.96775e-07
-7.9923e-10
-6.08723e-10
-4.8349e-10
-6.63876e-10
-8.88289e-10
-9.9397e-10
-9.92448e-10
-9.57177e-10
-9.05166e-10
-8.37814e-10
-7.60299e-10
-6.80407e-10
-5.79295e-10
-4.42005e-10
-3.99593e-10
-2.97857e-10
-1.24252e-10
5.08972e-11
2.87787e-10
7.2952e-10
1.36055e-09
2.19041e-09
3.37192e-09
4.92989e-09
6.51059e-09
7.81608e-09
9.17457e-09
1.04712e-08
1.13257e-08
1.16772e-08
1.1622e-08
1.10964e-08
9.8961e-09
8.17393e-09
6.35304e-09
4.73752e-09
3.49046e-09
2.6946e-09
2.30899e-09
2.19997e-09
1.99913e-09
1.42094e-09
4.20582e-10
1.20387e-10
6.50763e-11
3.12042e-11
2.31451e-11
6.14751e-11
1.71908e-09
9.78897e-09
1.84828e-09
-2.39329e-09
-4.52753e-09
-5.63849e-09
-7.79911e-09
-1.13261e-08
-2.78835e-08
-5.55065e-08
-4.7568e-07
5.20732e-08
-2.92359e-10
5.09458e-10
1.61909e-09
1.7303e-09
7.72065e-10
3.51034e-10
6.00015e-10
9.79031e-10
1.47763e-09
2.17125e-09
3.07662e-09
4.11904e-09
5.28875e-09
5.68739e-09
5.59688e-09
6.02135e-09
6.94603e-09
7.77324e-09
8.601e-09
9.71828e-09
1.10845e-08
1.25594e-08
1.4166e-08
1.59691e-08
1.77173e-08
1.90156e-08
1.96998e-08
1.98778e-08
1.9674e-08
1.8933e-08
1.7826e-08
1.69873e-08
1.60808e-08
1.49948e-08
1.34946e-08
1.16752e-08
9.95266e-09
8.63733e-09
7.53597e-09
6.76666e-09
6.53453e-09
6.18281e-09
3.84181e-09
3.90929e-10
2.49804e-11
9.9227e-12
1.02916e-11
4.17142e-11
2.27093e-09
1.14311e-08
3.82006e-09
-1.82072e-09
-4.59432e-09
-5.91777e-09
-7.29266e-09
-1.12141e-08
-2.78696e-08
-5.54743e-08
-4.78433e-07
3.06821e-07
4.33816e-11
3.97817e-10
1.12622e-09
1.90296e-09
3.10706e-09
4.2009e-09
5.63325e-09
7.04658e-09
8.48659e-09
1.0196e-08
1.21663e-08
1.42076e-08
1.59776e-08
1.71544e-08
1.7479e-08
1.72201e-08
1.72034e-08
1.74067e-08
1.752e-08
1.75415e-08
1.76366e-08
1.78507e-08
1.80883e-08
1.81518e-08
1.77923e-08
1.70995e-08
1.63614e-08
1.56397e-08
1.49562e-08
1.42049e-08
1.31585e-08
1.19329e-08
1.09422e-08
1.01494e-08
9.35185e-09
8.61842e-09
8.27826e-09
8.87231e-09
1.10047e-08
1.19277e-08
1.15368e-08
1.24501e-08
1.41029e-08
3.00173e-09
3.98199e-11
1.42344e-11
1.55844e-11
5.65868e-11
3.73477e-09
1.92934e-08
8.47342e-09
-6.11326e-10
-4.80099e-09
-6.66406e-09
-7.87242e-09
-1.1033e-08
-2.77344e-08
-5.53329e-08
-4.77212e-07
3.84508e-07
3.62082e-10
4.82003e-10
1.29663e-09
2.74972e-09
4.08473e-09
5.20473e-09
6.24688e-09
7.2719e-09
8.44485e-09
9.68077e-09
1.13657e-08
1.33018e-08
1.52812e-08
1.70825e-08
1.91038e-08
2.12166e-08
2.28704e-08
2.40054e-08
2.40825e-08
2.31595e-08
2.18306e-08
2.08504e-08
2.02181e-08
1.95382e-08
1.82579e-08
1.64115e-08
1.52123e-08
1.5229e-08
1.51128e-08
1.46591e-08
1.4018e-08
1.32468e-08
1.23604e-08
1.1373e-08
1.02453e-08
9.02536e-09
8.09416e-09
7.5558e-09
7.32409e-09
7.72529e-09
9.24622e-09
1.37222e-08
1.91666e-08
4.10527e-09
6.14012e-11
2.89274e-11
3.57932e-11
1.1617e-10
6.40562e-09
2.28886e-08
1.00085e-08
-1.35752e-10
-4.82303e-09
-6.86497e-09
-8.12398e-09
-1.0994e-08
-2.76436e-08
-5.52054e-08
-4.73768e-07
2.35942e-07
-5.10354e-10
1.64572e-09
4.89907e-09
7.40275e-09
1.03034e-08
1.28375e-08
1.48781e-08
1.70462e-08
1.9509e-08
2.24782e-08
2.60705e-08
3.01743e-08
3.45535e-08
3.84906e-08
4.22212e-08
4.56785e-08
4.87169e-08
4.97047e-08
4.75768e-08
4.31579e-08
3.95397e-08
3.92598e-08
4.02937e-08
4.13234e-08
4.18061e-08
4.29187e-08
4.40827e-08
4.47234e-08
4.45808e-08
4.33826e-08
4.12776e-08
3.85055e-08
3.52739e-08
3.19546e-08
2.82067e-08
2.38676e-08
1.86963e-08
1.42447e-08
1.1334e-08
1.03093e-08
1.27786e-08
1.75503e-08
2.01538e-08
5.55316e-09
5.45061e-11
1.89224e-11
2.03195e-11
6.08841e-11
4.06402e-09
1.66876e-08
7.19896e-09
-3.96326e-10
-4.31024e-09
-6.11039e-09
-7.33633e-09
-1.08585e-08
-2.76243e-08
-5.51827e-08
-4.71453e-07
4.59997e-08
-3.94494e-12
2.34666e-09
5.47519e-09
7.60951e-09
1.05128e-08
1.33104e-08
1.65232e-08
2.07493e-08
2.65316e-08
3.39038e-08
4.19904e-08
4.97655e-08
5.64508e-08
6.08612e-08
6.30372e-08
6.40496e-08
6.56356e-08
6.63823e-08
6.31752e-08
5.17301e-08
4.68101e-08
4.63377e-08
4.7571e-08
4.6586e-08
3.93926e-08
4.33155e-08
5.24845e-08
6.03402e-08
6.05713e-08
5.0948e-08
3.47586e-08
3.37964e-08
3.26828e-08
3.98325e-08
4.00743e-08
3.14267e-08
2.36783e-08
1.72752e-08
1.17599e-08
9.10074e-09
1.04184e-08
1.48111e-08
1.70935e-08
7.45617e-09
1.03939e-10
1.5596e-11
1.01573e-11
1.26679e-11
4.98853e-10
8.12753e-09
2.76685e-09
-1.22229e-09
-3.37955e-09
-4.4759e-09
-5.46959e-09
-1.07583e-08
-2.77196e-08
-5.52764e-08
-4.70284e-07
2.15501e-08
3.98192e-10
2.67688e-09
5.29445e-09
6.68347e-09
1.06389e-08
1.58843e-08
1.97566e-08
2.39743e-08
2.96357e-08
3.70003e-08
4.55103e-08
5.40432e-08
6.11691e-08
6.60451e-08
6.85655e-08
6.97745e-08
6.98081e-08
6.81541e-08
6.30086e-08
5.37682e-08
4.74767e-08
4.65555e-08
4.7888e-08
5.03075e-08
5.13121e-08
3.70178e-08
2.9881e-08
4.3063e-08
5.61656e-08
5.64926e-08
5.54076e-08
4.78797e-08
3.11773e-08
2.73088e-08
2.45122e-08
2.71049e-08
2.2376e-08
1.5135e-08
9.85526e-09
7.57494e-09
9.62458e-09
1.52526e-08
1.81818e-08
6.79706e-09
1.10219e-10
1.92077e-11
1.17678e-11
1.28121e-11
4.45888e-10
7.65933e-09
2.51026e-09
-1.25928e-09
-3.33008e-09
-4.39683e-09
-5.38193e-09
-1.07508e-08
-2.77252e-08
-5.52681e-08
-4.70565e-07
1.86934e-07
2.04865e-10
2.72079e-09
1.84413e-09
1.81561e-09
5.02579e-09
1.6507e-08
2.11883e-08
2.36511e-08
2.63334e-08
3.00461e-08
3.44896e-08
3.8569e-08
4.1817e-08
4.53538e-08
4.86587e-08
5.14831e-08
5.35605e-08
5.29841e-08
4.90267e-08
4.37716e-08
4.01375e-08
3.80801e-08
3.76076e-08
3.85387e-08
3.96807e-08
3.98e-08
3.97715e-08
4.00584e-08
3.95699e-08
3.85403e-08
3.70009e-08
3.45149e-08
3.08532e-08
2.61819e-08
2.19526e-08
1.78964e-08
1.4223e-08
1.093e-08
8.32443e-09
7.30526e-09
8.83452e-09
1.34322e-08
1.49332e-08
1.84162e-09
3.62085e-11
2.02053e-11
2.3103e-11
9.8619e-11
6.70209e-09
1.46733e-08
5.89248e-09
-6.73954e-10
-4.29457e-09
-6.01273e-09
-7.22402e-09
-1.08953e-08
-2.77396e-08
-5.51917e-08
-4.71903e-07
9.40717e-07
6.15229e-10
1.96273e-09
6.45902e-10
4.62943e-10
1.36397e-09
1.09509e-08
1.85108e-08
1.99696e-08
2.14268e-08
2.32987e-08
2.49556e-08
2.59627e-08
2.6956e-08
2.87981e-08
3.11911e-08
3.36655e-08
3.35544e-08
3.06931e-08
2.79368e-08
2.72985e-08
2.72757e-08
2.6523e-08
2.53689e-08
1.98052e-08
1.41138e-08
1.40197e-08
1.6778e-08
2.14437e-08
2.44002e-08
2.46812e-08
2.36428e-08
2.07893e-08
1.16146e-08
8.27177e-09
7.00534e-09
7.21205e-09
7.29321e-09
6.06978e-09
5.40316e-09
5.78098e-09
7.70294e-09
1.32637e-08
1.67776e-08
1.97035e-09
4.29641e-11
2.62437e-11
3.3331e-11
2.7579e-10
1.48054e-08
1.8631e-08
6.83335e-09
-6.99604e-10
-4.73303e-09
-6.56527e-09
-7.77847e-09
-1.10459e-08
-2.77815e-08
-5.52126e-08
-4.73211e-07
7.00325e-07
8.87902e-10
2.40994e-09
2.44958e-09
3.53187e-09
6.67436e-09
9.37489e-09
1.12972e-08
1.28874e-08
1.47196e-08
1.70067e-08
1.93157e-08
2.13564e-08
2.32327e-08
2.44699e-08
2.49021e-08
2.45234e-08
2.35871e-08
2.23214e-08
2.22335e-08
2.31543e-08
2.26731e-08
1.98681e-08
1.22346e-08
1.1847e-08
1.18705e-08
1.41487e-08
1.61408e-08
1.56921e-08
1.39993e-08
9.98207e-09
5.63352e-09
5.15908e-09
5.55957e-09
8.66234e-09
9.04533e-09
7.98683e-09
7.15293e-09
6.82291e-09
7.02434e-09
8.02911e-09
1.11346e-08
1.57622e-08
1.52479e-08
1.0642e-09
2.36094e-11
1.63751e-11
2.44063e-11
1.89848e-10
1.21072e-08
1.64885e-08
5.55186e-09
-1.12086e-09
-4.69105e-09
-6.34841e-09
-7.55228e-09
-1.10889e-08
-2.77852e-08
-5.53075e-08
-4.76483e-07
1.82895e-07
-1.2574e-10
-1.72805e-10
6.32413e-10
9.85008e-10
1.14194e-09
6.54833e-10
4.096e-10
5.16552e-10
1.03932e-09
1.77002e-09
2.77352e-09
4.08922e-09
5.69557e-09
7.54721e-09
8.91871e-09
9.36706e-09
9.40581e-09
9.18249e-09
9.21098e-09
9.81432e-09
1.01384e-08
1.02594e-08
1.06366e-08
1.16454e-08
1.34165e-08
1.49903e-08
1.51875e-08
1.18218e-08
1.0306e-08
9.94013e-09
9.64581e-09
9.65543e-09
9.98092e-09
9.50639e-09
8.15397e-09
6.97012e-09
6.23636e-09
6.09227e-09
6.34797e-09
7.06132e-09
8.32097e-09
9.54627e-09
6.84637e-09
3.1452e-10
1.80274e-11
8.35612e-12
1.18557e-11
8.0823e-11
3.95975e-09
1.05657e-08
2.6284e-09
-2.03292e-09
-4.45601e-09
-5.65812e-09
-7.20838e-09
-1.12223e-08
-2.77809e-08
-5.55273e-08
-4.79129e-07
3.79938e-07
-7.73063e-10
-7.07033e-10
-6.35279e-10
-6.56623e-10
-7.80561e-10
-9.97197e-10
-1.10047e-09
-1.08745e-09
-1.03759e-09
-9.79106e-10
-8.96564e-10
-7.83832e-10
-5.98665e-10
-3.01718e-10
9.0764e-11
2.53752e-10
2.08022e-10
2.8907e-11
-1.18889e-10
-5.28927e-11
1.45896e-10
3.77698e-10
6.57044e-10
1.00758e-09
1.4163e-09
1.79374e-09
2.05519e-09
2.21069e-09
2.27225e-09
2.12553e-09
1.8062e-09
1.38295e-09
9.54214e-10
6.55504e-10
5.34865e-10
5.97778e-10
8.0526e-10
1.1568e-09
1.6592e-09
2.55924e-09
3.83818e-09
4.0703e-09
1.24279e-09
2.38103e-10
8.35785e-11
3.36178e-11
2.04466e-11
5.795e-11
2.01583e-09
8.06239e-09
1.12566e-09
-2.50384e-09
-4.44545e-09
-5.71868e-09
-9.51136e-09
-1.2062e-08
-2.78138e-08
-5.55513e-08
-4.75807e-07
1.78113e-07
-1.60518e-09
-1.12463e-09
-9.64768e-10
-9.71879e-10
-1.09116e-09
-1.37137e-09
-1.53317e-09
-1.5064e-09
-1.44905e-09
-1.37397e-09
-1.29255e-09
-1.22478e-09
-1.16284e-09
-1.13019e-09
-1.10586e-09
-1.10168e-09
-1.15909e-09
-1.27097e-09
-1.2986e-09
-1.25327e-09
-1.15876e-09
-1.03946e-09
-8.82746e-10
-7.12841e-10
-5.45681e-10
-4.15708e-10
-3.25743e-10
-2.73e-10
-2.42063e-10
-2.29113e-10
-2.30026e-10
-2.51039e-10
-2.86139e-10
-3.2023e-10
-3.10488e-10
-2.43812e-10
-1.04221e-10
1.1786e-10
4.10878e-10
7.51093e-10
1.16656e-09
1.92267e-09
2.32566e-09
1.76902e-09
9.36837e-10
3.79277e-10
8.27246e-11
9.35324e-11
5.34178e-09
6.67322e-09
1.35969e-10
-2.90743e-09
-4.68034e-09
-9.40856e-09
-1.43449e-08
-1.45512e-08
-2.76338e-08
-5.55984e-08
-4.73945e-07
3.9342e-08
-1.78866e-09
-4.74713e-10
-1.37295e-09
-1.68668e-09
-1.90944e-09
-2.12889e-09
-2.10127e-09
-1.89884e-09
-1.62967e-09
-1.33444e-09
-1.05109e-09
-8.46452e-10
-7.07445e-10
-6.92453e-10
-7.24557e-10
-8.9657e-10
-9.86738e-10
-1.10117e-09
-1.12507e-09
-1.0925e-09
-9.33763e-10
-7.27648e-10
-4.41992e-10
-1.44723e-10
1.37103e-10
3.32057e-10
4.44058e-10
4.79179e-10
4.63376e-10
4.12357e-10
3.33125e-10
2.34973e-10
1.33813e-10
4.02718e-11
-3.58062e-12
1.94705e-11
1.2524e-10
3.21686e-10
5.89453e-10
8.89049e-10
1.12885e-09
1.16411e-09
9.71851e-10
6.54932e-10
3.30861e-10
4.82183e-11
1.59053e-10
2.4224e-09
8.89647e-09
4.11246e-09
-7.27312e-10
-3.36762e-09
-7.16793e-09
-1.62281e-08
-1.81041e-08
-1.82107e-08
-2.62631e-08
-5.5128e-08
-4.73474e-07
1.26018e-08
-3.7572e-09
-9.99029e-10
7.22048e-11
3.28274e-11
-6.63851e-10
-9.30416e-10
-1.05631e-09
-8.81665e-10
-6.13982e-10
-3.14542e-10
-2.87169e-11
1.60415e-10
2.84517e-10
2.4692e-10
1.73959e-10
-4.72606e-11
-2.2366e-10
-4.50142e-10
-5.08051e-10
-4.81307e-10
-2.84772e-10
-3.04095e-11
3.24839e-10
6.80402e-10
1.01678e-09
1.24492e-09
1.37735e-09
1.41214e-09
1.37611e-09
1.29348e-09
1.18356e-09
1.06216e-09
9.47137e-10
8.59824e-10
8.39776e-10
9.09156e-10
1.08155e-09
1.35101e-09
1.68076e-09
2.01438e-09
2.25229e-09
2.34106e-09
2.43517e-09
2.6164e-09
2.92438e-09
3.31096e-09
4.37592e-09
6.22205e-09
6.53243e-09
2.14198e-09
-1.44744e-09
-4.82352e-09
-1.4331e-08
-1.96629e-08
-2.18876e-08
-2.29493e-08
-2.51114e-08
-5.13609e-08
-4.72653e-07
8.60921e-10
-3.98745e-09
-2.00793e-09
-1.3629e-09
-8.22655e-10
-7.67281e-10
-5.8501e-10
-3.65248e-10
6.89263e-11
6.76696e-10
1.39323e-09
2.25642e-09
2.94549e-09
3.40681e-09
3.47316e-09
3.28913e-09
2.85381e-09
2.44882e-09
1.98207e-09
1.79414e-09
1.72657e-09
1.94148e-09
2.20588e-09
2.55657e-09
2.80524e-09
2.96089e-09
2.96124e-09
2.8764e-09
2.70878e-09
2.49696e-09
2.24558e-09
1.9945e-09
1.74602e-09
1.52596e-09
1.35018e-09
1.25738e-09
1.26833e-09
1.38112e-09
1.5805e-09
1.83484e-09
2.10305e-09
2.4177e-09
2.78845e-09
3.35303e-09
4.23029e-09
5.25767e-09
5.75559e-09
5.59483e-09
4.9645e-09
3.62675e-09
5.46743e-10
-1.72711e-09
-8.11997e-09
-1.98144e-08
-2.64961e-08
-2.97873e-08
-3.16322e-08
-3.2432e-08
-4.38409e-08
-4.68624e-07
3.8233e-09
-2.28562e-09
-7.03666e-10
-8.45345e-10
-6.63862e-10
-7.77057e-10
-6.77747e-10
-5.92075e-10
-4.03731e-10
-1.05788e-10
2.44761e-10
7.08719e-10
1.18872e-09
1.68414e-09
2.07793e-09
2.31967e-09
2.36744e-09
2.40224e-09
2.33112e-09
2.4864e-09
2.83689e-09
3.6207e-09
4.71686e-09
6.25157e-09
8.0538e-09
1.00174e-08
1.17201e-08
1.28924e-08
1.33034e-08
1.30222e-08
1.21901e-08
1.11022e-08
9.89476e-09
8.67959e-09
7.50514e-09
6.48506e-09
5.66481e-09
5.04977e-09
4.6307e-09
4.44201e-09
4.46075e-09
4.63299e-09
4.94998e-09
5.39747e-09
5.79516e-09
5.84294e-09
5.32418e-09
4.69759e-09
3.65708e-09
2.68487e-09
1.19245e-08
3.6122e-08
-7.03531e-09
-2.86414e-08
-4.15669e-08
-4.79874e-08
-5.18362e-08
-5.35536e-08
-5.74391e-08
-4.37823e-07
1.74347e-09
4.12728e-09
7.41774e-09
8.09954e-09
8.73317e-09
8.92711e-09
9.11166e-09
9.21611e-09
9.26517e-09
9.31609e-09
9.29817e-09
9.28668e-09
9.1953e-09
9.08087e-09
8.89133e-09
8.66376e-09
8.37004e-09
8.07007e-09
7.7545e-09
7.51505e-09
7.35359e-09
7.35096e-09
7.49784e-09
7.85332e-09
8.40422e-09
9.15672e-09
1.00604e-08
1.11106e-08
1.22805e-08
1.35899e-08
1.50356e-08
1.67214e-08
1.8756e-08
2.1386e-08
2.49106e-08
2.98978e-08
3.727e-08
4.84375e-08
6.56452e-08
9.19672e-08
1.33056e-07
1.95439e-07
2.86322e-07
4.17185e-07
6.07982e-07
8.79407e-07
1.17552e-06
1.43564e-06
1.60747e-06
1.4354e-06
7.49896e-07
3.53774e-07
9.77624e-08
-2.55755e-08
-1.05366e-07
-1.48978e-07
-1.71784e-07
-1.89044e-07
-1.92215e-07
-1.90085e-07
8.43394e-11
2.8565e-09
6.44443e-09
7.32718e-09
8.26844e-09
8.69048e-09
9.04973e-09
9.26723e-09
9.35937e-09
9.43649e-09
9.3964e-09
9.36705e-09
9.22868e-09
9.09459e-09
8.87931e-09
8.65877e-09
8.387e-09
8.1185e-09
7.83612e-09
7.62008e-09
7.47132e-09
7.47727e-09
7.65213e-09
8.06078e-09
8.66878e-09
9.48988e-09
1.04803e-08
1.16425e-08
1.29384e-08
1.43831e-08
1.5976e-08
1.77612e-08
1.97664e-08
2.2166e-08
2.52581e-08
2.97017e-08
3.6525e-08
4.70786e-08
6.35023e-08
8.88292e-08
1.28005e-07
1.87109e-07
2.71737e-07
3.89603e-07
5.55896e-07
7.97778e-07
1.07834e-06
1.34755e-06
1.56476e-06
1.57102e-06
8.38908e-07
3.84184e-07
1.04467e-07
-2.5632e-08
-1.07542e-07
-1.5153e-07
-1.74186e-07
-1.91304e-07
-1.93833e-07
-1.86445e-07
1.31316e-09
-3.77625e-09
-1.59353e-09
-1.49538e-09
-9.62845e-10
-8.20416e-10
-5.05344e-10
-2.77018e-10
-4.66574e-11
2.60331e-10
5.31932e-10
9.22286e-10
1.24298e-09
1.62395e-09
1.93053e-09
2.18616e-09
2.361e-09
2.5279e-09
2.58332e-09
2.83591e-09
3.22522e-09
4.01671e-09
5.14508e-09
6.71897e-09
8.47532e-09
1.02097e-08
1.14559e-08
1.20164e-08
1.17814e-08
1.09707e-08
9.83469e-09
8.61012e-09
7.3882e-09
6.25677e-09
5.26498e-09
4.4946e-09
3.97169e-09
3.65579e-09
3.55673e-09
3.66561e-09
3.89053e-09
4.15854e-09
4.40627e-09
4.58053e-09
4.71068e-09
4.79466e-09
4.42559e-09
3.81451e-09
2.97087e-09
2.25711e-09
6.24019e-09
3.43866e-08
-6.92001e-09
-2.83085e-08
-4.10922e-08
-4.73166e-08
-5.13133e-08
-5.28424e-08
-5.71163e-08
-4.3654e-07
-6.73687e-09
-6.32742e-09
-3.66568e-09
-3.00424e-09
-2.08064e-09
-1.50243e-09
-7.92777e-10
-2.11805e-10
4.16663e-10
1.10829e-09
1.71945e-09
2.44759e-09
2.86408e-09
3.14837e-09
3.14932e-09
2.96203e-09
2.63354e-09
2.30493e-09
1.9163e-09
1.70744e-09
1.55198e-09
1.6061e-09
1.70751e-09
1.87926e-09
1.95983e-09
1.989e-09
1.92614e-09
1.82126e-09
1.66108e-09
1.47851e-09
1.27741e-09
1.07849e-09
8.80237e-10
7.03771e-10
5.7159e-10
5.17181e-10
5.60567e-10
6.99618e-10
9.25241e-10
1.22627e-09
1.56727e-09
1.92012e-09
2.27603e-09
2.66917e-09
3.23216e-09
3.98172e-09
4.44683e-09
4.32e-09
3.87408e-09
3.10981e-09
5.89451e-10
-1.9658e-09
-8.27646e-09
-1.94808e-08
-2.59906e-08
-2.91772e-08
-3.11311e-08
-3.18781e-08
-4.4054e-08
-4.72583e-07
-8.41104e-09
-7.11701e-09
-3.82422e-09
-2.67657e-09
-1.53877e-09
-1.05265e-09
-6.43978e-10
-5.6463e-10
-4.93425e-10
-4.1073e-10
-3.50955e-10
-2.74887e-10
-2.62143e-10
-2.67695e-10
-3.18996e-10
-3.85243e-10
-4.83821e-10
-5.70346e-10
-6.81343e-10
-7.17104e-10
-7.18541e-10
-5.95345e-10
-4.14511e-10
-1.624e-10
7.35611e-11
2.79126e-10
4.08926e-10
4.80778e-10
4.93472e-10
4.69931e-10
4.11469e-10
3.31066e-10
2.28557e-10
1.2174e-10
3.74334e-11
1.14252e-11
6.56955e-11
1.97775e-10
3.99862e-10
6.61799e-10
9.42229e-10
1.18291e-09
1.36705e-09
1.46289e-09
1.5649e-09
1.90874e-09
2.43003e-09
3.14712e-09
4.22482e-09
5.21112e-09
2.19417e-09
-1.49552e-09
-4.20301e-09
-1.33299e-08
-1.88532e-08
-2.10802e-08
-2.23798e-08
-2.50981e-08
-5.2239e-08
-4.79081e-07
-5.69561e-09
-6.83229e-09
-3.51806e-09
-2.76126e-09
-2.23964e-09
-2.0148e-09
-1.79419e-09
-1.66701e-09
-1.53908e-09
-1.42811e-09
-1.31525e-09
-1.21214e-09
-1.14497e-09
-1.09449e-09
-1.07783e-09
-1.06467e-09
-1.08265e-09
-1.08925e-09
-1.12089e-09
-1.11059e-09
-1.07945e-09
-9.69963e-10
-8.16924e-10
-6.13668e-10
-4.14332e-10
-2.36551e-10
-1.12984e-10
-3.74899e-11
-4.21631e-12
3.93952e-12
-1.24296e-11
-4.78288e-11
-1.00901e-10
-1.58191e-10
-1.96989e-10
-1.89316e-10
-1.07444e-10
6.04816e-11
3.2064e-10
6.84331e-10
1.15704e-09
1.71847e-09
2.21302e-09
2.06897e-09
1.44103e-09
8.9646e-10
4.5207e-10
1.31236e-10
6.52632e-10
4.56449e-09
4.87078e-09
-5.85773e-10
-3.10556e-09
-4.7872e-09
-1.1225e-08
-1.42514e-08
-1.55492e-08
-2.68953e-08
-5.54925e-08
-4.7838e-07
1.3816e-08
-4.11505e-09
-2.38661e-09
-1.93448e-09
-1.72705e-09
-1.60569e-09
-1.48797e-09
-1.40063e-09
-1.31906e-09
-1.24842e-09
-1.1738e-09
-1.10444e-09
-1.05164e-09
-1.0051e-09
-9.84476e-10
-9.69808e-10
-9.68045e-10
-9.74663e-10
-9.9688e-10
-9.90539e-10
-9.57548e-10
-8.74887e-10
-7.6001e-10
-6.13494e-10
-4.69298e-10
-3.45147e-10
-2.58117e-10
-2.03099e-10
-1.70936e-10
-1.5613e-10
-1.64048e-10
-1.85872e-10
-2.13565e-10
-2.32609e-10
-2.22259e-10
-1.52898e-10
3.65006e-12
2.65209e-10
6.48172e-10
1.19911e-09
2.01667e-09
3.23256e-09
4.61867e-09
4.50755e-09
3.46045e-09
2.35832e-09
1.31543e-09
5.35398e-10
2.26742e-10
6.76378e-10
5.95732e-09
3.45654e-10
-2.54477e-09
-4.06572e-09
-5.3915e-09
-8.91707e-09
-1.17673e-08
-2.79993e-08
-5.5799e-08
-4.7695e-07
5.97599e-08
-1.70003e-09
-1.35072e-09
-1.22503e-09
-1.15567e-09
-1.10691e-09
-1.05875e-09
-1.01264e-09
-9.59803e-10
-9.00405e-10
-8.27737e-10
-7.42693e-10
-6.52076e-10
-5.48306e-10
-4.50982e-10
-3.70669e-10
-2.91524e-10
-2.12202e-10
-1.57894e-10
-4.33428e-11
1.56943e-10
4.61291e-10
8.74091e-10
1.37159e-09
1.88024e-09
2.27585e-09
2.47917e-09
2.55464e-09
2.58622e-09
2.56706e-09
2.39407e-09
2.06338e-09
1.68974e-09
1.33148e-09
9.29038e-10
7.30963e-10
7.71139e-10
1.01804e-09
1.49789e-09
2.34174e-09
3.74826e-09
5.86071e-09
8.16711e-09
8.12127e-09
5.66929e-09
2.12309e-09
4.34693e-10
9.33489e-11
4.70375e-11
2.69155e-10
4.79915e-09
1.03055e-09
-2.13741e-09
-3.7372e-09
-4.69467e-09
-7.57789e-09
-1.13745e-08
-2.80278e-08
-5.5709e-08
-4.77386e-07
6.92784e-08
-1.27315e-09
-1.05333e-09
-9.24951e-10
-8.7543e-10
-8.11859e-10
-7.27043e-10
-5.84018e-10
-3.5695e-10
-1.84478e-11
4.68854e-10
1.16969e-09
2.05092e-09
3.15844e-09
4.34888e-09
4.97103e-09
5.60509e-09
6.41351e-09
6.9456e-09
7.48032e-09
8.65469e-09
1.03785e-08
1.27268e-08
1.55834e-08
1.87497e-08
2.16686e-08
2.35549e-08
2.44057e-08
2.48745e-08
2.53829e-08
2.52792e-08
2.3948e-08
2.13416e-08
1.79637e-08
1.42281e-08
1.04853e-08
7.62406e-09
6.0382e-09
5.66225e-09
6.22808e-09
7.6695e-09
9.93413e-09
1.23049e-08
1.04587e-08
2.22621e-09
2.47565e-10
3.98526e-11
1.31153e-11
1.33149e-11
3.78035e-10
6.42053e-09
2.01257e-09
-1.86452e-09
-3.81451e-09
-4.85577e-09
-6.67502e-09
-1.12559e-08
-2.79133e-08
-5.55993e-08
-4.78649e-07
3.93723e-08
-1.04882e-09
-7.17509e-10
-2.29972e-10
1.49463e-10
6.9189e-10
1.34134e-09
2.28521e-09
3.64746e-09
5.39943e-09
7.54845e-09
1.09715e-08
1.45596e-08
1.81647e-08
2.07303e-08
2.20288e-08
2.31654e-08
2.47731e-08
2.6078e-08
2.65366e-08
2.69742e-08
2.83801e-08
3.08226e-08
3.39996e-08
3.73741e-08
4.04129e-08
4.26338e-08
4.40896e-08
4.47199e-08
4.46342e-08
4.37335e-08
4.17995e-08
3.87691e-08
3.49703e-08
3.11023e-08
2.69706e-08
2.2189e-08
1.7522e-08
1.38633e-08
1.16723e-08
1.10473e-08
1.18585e-08
1.5149e-08
1.41839e-08
1.81285e-09
4.9823e-11
9.69352e-12
6.09281e-12
1.99341e-11
1.73728e-09
1.0321e-08
3.55335e-09
-1.51757e-09
-4.21922e-09
-5.53613e-09
-6.77463e-09
-1.112e-08
-2.78499e-08
-5.55922e-08
-4.82235e-07
2.0062e-07
1.59252e-10
1.0479e-09
3.28787e-09
5.40672e-09
7.25737e-09
8.67379e-09
9.99079e-09
1.16221e-08
1.35664e-08
1.56303e-08
1.74192e-08
1.90707e-08
2.05734e-08
2.1919e-08
2.34572e-08
2.51794e-08
2.60682e-08
2.65836e-08
2.6679e-08
2.63657e-08
2.5663e-08
2.46074e-08
2.32419e-08
2.11948e-08
1.84702e-08
1.57327e-08
1.38232e-08
1.27392e-08
1.19475e-08
1.1165e-08
1.03253e-08
9.34738e-09
8.33071e-09
7.52668e-09
7.08744e-09
6.81195e-09
6.74145e-09
7.21032e-09
7.52992e-09
7.38368e-09
7.59823e-09
1.06523e-08
1.48048e-08
2.07857e-09
3.09671e-11
1.4806e-11
1.79661e-11
8.26127e-11
8.32855e-09
1.88653e-08
7.51728e-09
-4.6483e-10
-4.65083e-09
-6.52993e-09
-7.76544e-09
-1.09696e-08
-2.78013e-08
-5.54332e-08
-4.8032e-07
2.62704e-07
-7.33844e-10
1.57407e-09
5.89519e-09
7.97544e-09
9.73587e-09
1.08746e-08
1.18241e-08
1.27515e-08
1.39267e-08
1.52502e-08
1.65661e-08
1.75756e-08
1.82217e-08
1.8567e-08
1.8625e-08
1.84052e-08
1.79514e-08
1.73099e-08
1.65007e-08
1.5437e-08
1.43567e-08
1.36096e-08
1.31448e-08
1.28339e-08
1.25148e-08
1.21623e-08
1.19386e-08
1.18266e-08
1.16686e-08
1.13354e-08
1.05373e-08
9.05696e-09
7.25701e-09
5.82826e-09
4.99508e-09
4.45226e-09
4.32213e-09
4.64288e-09
5.11406e-09
5.45195e-09
6.55874e-09
1.13419e-08
1.60751e-08
1.46923e-09
3.48188e-11
3.18687e-11
4.66529e-11
3.27806e-10
1.86173e-08
2.29348e-08
8.76398e-09
-2.12829e-10
-4.90097e-09
-6.95957e-09
-8.21674e-09
-1.10172e-08
-2.78368e-08
-5.54049e-08
-4.78589e-07
3.91666e-07
-1.09418e-09
1.73155e-09
7.15486e-09
1.06045e-08
1.46049e-08
1.75459e-08
1.91949e-08
2.08095e-08
2.2429e-08
2.37134e-08
2.46629e-08
2.52552e-08
2.5341e-08
2.49292e-08
2.55908e-08
2.52626e-08
2.11317e-08
1.9186e-08
1.84844e-08
1.95427e-08
1.80008e-08
1.62023e-08
1.67248e-08
1.72541e-08
1.75314e-08
1.78045e-08
1.79654e-08
1.78265e-08
1.72959e-08
1.62982e-08
1.46465e-08
1.19477e-08
8.61635e-09
6.47578e-09
5.26048e-09
4.50898e-09
4.26198e-09
4.10847e-09
4.07446e-09
5.10755e-09
8.53391e-09
1.62701e-08
1.80788e-08
7.01548e-10
3.47436e-11
3.45815e-11
5.72718e-11
1.15296e-09
2.22632e-08
2.38587e-08
9.29898e-09
1.42845e-11
-4.87883e-09
-7.00462e-09
-8.26558e-09
-1.10268e-08
-2.7799e-08
-5.53744e-08
-4.77117e-07
3.85723e-07
-8.96888e-10
1.80975e-09
1.7218e-09
2.75506e-09
8.14323e-09
1.7673e-08
1.89733e-08
1.95212e-08
2.04745e-08
2.15956e-08
2.26323e-08
2.35692e-08
2.48457e-08
2.64071e-08
2.80662e-08
2.86109e-08
2.71005e-08
2.19426e-08
2.09442e-08
2.20304e-08
2.39706e-08
2.09351e-08
1.93528e-08
2.0704e-08
2.19715e-08
2.33299e-08
2.46904e-08
2.58009e-08
2.66358e-08
2.70164e-08
2.66911e-08
2.53156e-08
2.25706e-08
1.83093e-08
1.32077e-08
9.1534e-09
6.67024e-09
5.27762e-09
5.11881e-09
6.45808e-09
1.00984e-08
1.62328e-08
1.85512e-08
1.21186e-09
3.47267e-11
3.05604e-11
4.6383e-11
4.94066e-10
1.87699e-08
2.19656e-08
8.77012e-09
-1.18191e-10
-4.76202e-09
-6.79684e-09
-8.04288e-09
-1.10047e-08
-2.77923e-08
-5.53974e-08
-4.77194e-07
2.68599e-07
4.10787e-11
1.64705e-09
4.47644e-09
6.19267e-09
7.91734e-09
8.23868e-09
9.01855e-09
1.03469e-08
1.17412e-08
1.30244e-08
1.45075e-08
1.64099e-08
1.86029e-08
2.08956e-08
2.29024e-08
2.43651e-08
2.49145e-08
2.45083e-08
2.33071e-08
2.18795e-08
2.06858e-08
2.07786e-08
2.17944e-08
2.3336e-08
2.48744e-08
2.61454e-08
2.7772e-08
2.95726e-08
3.15428e-08
3.24723e-08
3.21964e-08
3.08091e-08
2.83275e-08
2.46726e-08
1.93875e-08
1.41096e-08
1.09127e-08
8.84825e-09
8.18731e-09
7.99623e-09
8.20629e-09
1.06642e-08
1.46101e-08
2.40886e-09
3.57386e-11
2.36411e-11
3.0029e-11
1.21973e-10
8.40313e-09
1.81278e-08
7.57315e-09
-4.89943e-10
-4.55695e-09
-6.39058e-09
-7.5953e-09
-1.09409e-08
-2.77702e-08
-5.54186e-08
-4.77429e-07
5.86457e-08
1.96985e-10
2.48561e-09
4.53388e-09
5.48865e-09
6.7084e-09
7.95274e-09
9.29022e-09
1.09563e-08
1.30657e-08
1.56793e-08
1.87936e-08
2.22673e-08
2.61547e-08
3.0417e-08
3.44063e-08
3.75418e-08
3.92959e-08
3.91439e-08
3.628e-08
3.41627e-08
3.37348e-08
3.39543e-08
3.39248e-08
3.56419e-08
3.81537e-08
4.12371e-08
4.38851e-08
4.56498e-08
4.58226e-08
4.33126e-08
3.73779e-08
2.9743e-08
2.3628e-08
1.85028e-08
1.43843e-08
1.08535e-08
8.147e-09
6.2091e-09
4.92102e-09
4.52089e-09
5.34862e-09
7.53443e-09
1.12967e-08
3.64963e-09
5.20052e-11
1.96966e-11
1.95649e-11
3.96225e-11
1.8785e-09
1.26425e-08
4.92316e-09
-1.04077e-09
-4.09123e-09
-5.54677e-09
-6.65088e-09
-1.08734e-08
-2.78259e-08
-5.53818e-08
-4.77734e-07
3.55218e-08
-6.9104e-11
6.54773e-10
1.46851e-09
2.67529e-09
4.30718e-09
6.84568e-09
9.74184e-09
1.45382e-08
1.99167e-08
2.5446e-08
3.07292e-08
3.5607e-08
3.97292e-08
4.27348e-08
4.42965e-08
4.46119e-08
4.33881e-08
4.01146e-08
3.64591e-08
3.42575e-08
3.41972e-08
3.50564e-08
3.5077e-08
3.41966e-08
3.62302e-08
4.10582e-08
4.3999e-08
3.89566e-08
2.71131e-08
2.59106e-08
2.59889e-08
1.97605e-08
1.34786e-08
9.31234e-09
6.73649e-09
5.03384e-09
3.80929e-09
3.21246e-09
3.35477e-09
4.61424e-09
7.0577e-09
1.14882e-08
1.51022e-08
4.41044e-09
1.31959e-10
2.07412e-11
1.28222e-11
1.94467e-11
6.89994e-10
6.86757e-09