/*--------------------------------*- C++ -*----------------------------------*\
| =========                 |                                                 |
| \\      /  F ield         | OpenFOAM: The Open Source CFD Toolbox           |
|  \\    /   O peration     | Version:  2.1.1                                 |
|   \\  /    A nd           | Web:      www.OpenFOAM.org                      |
|    \\/     M anipulation  |                                                 |
\*---------------------------------------------------------------------------*/
FoamFile
{
    version     2.0;
    format      ascii;
    class       volScalarField;
    location    "0.0011";
    object      epsilon;
}
// * * * * * * * * * * * * * * * * * * * * * * * * * * * * * * * * * * * * * //

dimensions      [0 2 -3 0 0 0 0];

internalField   nonuniform List<scalar> 
36520
(
59.0494
146.318
297.902
339.775
396.266
417.591
442.778
453.289
455.762
449.985
434.228
414.165
388.468
361.383
332.912
306.032
279.131
254.188
229.654
206.338
183.207
160.815
138.79
117.807
98.1568
80.5
64.9873
51.795
40.8312
31.961
24.904
19.4094
15.191
11.9969
9.59352
7.78772
6.41606
5.34591
4.47645
3.73212
3.0573
2.41796
1.81361
1.26546
0.807989
0.496442
0.308451
0.184055
0.0628465
0.0160412
0.0109503
0.00919591
0.00843386
0.00765471
0.00766407
0.00725779
0.00751865
0.00724661
0.00763921
0.00893721
10.2387
33.5389
43.2196
37.8366
35.774
33.2397
33.367
32.3912
31.1646
28.9066
26.2223
23.4293
20.884
19.1316
17.956
17.2998
16.7767
16.2633
15.532
14.5291
13.1799
11.6034
9.82582
8.02228
6.37862
5.01526
3.93221
3.11732
2.55446
2.19524
1.99233
1.91405
1.9414
2.0559
2.24969
2.52363
2.88703
3.36284
3.98899
4.81261
5.88226
7.2376
8.92918
10.7338
12.6593
14.7671
17.3707
17.0242
7.97574
0.758568
0.0186131
0.00500572
0.00525211
0.0054701
0.00564993
0.00568975
0.00576482
0.00578476
0.00628293
0.00231182
2.85877
6.7195
6.37593
4.34044
3.44484
2.84733
2.70018
2.52461
2.33335
2.09485
1.83912
1.62139
1.45983
1.39401
1.40559
1.46619
1.5499
1.62537
1.67782
1.69207
1.66496
1.61275
1.54594
1.49508
1.49118
1.54908
1.66565
1.83681
2.05604
2.31741
2.62293
2.98482
3.42198
3.96749
4.66596
5.57421
6.77559
8.37804
10.5236
13.3834
17.1513
21.979
27.9852
35.1962
42.2024
48.0124
53.5669
51.5246
27.5597
4.21336
0.119082
0.00345514
0.00112636
0.00112326
0.00113016
0.00112653
0.00111892
0.00115125
0.00192678
0.00175859
0.893162
1.54671
1.10459
0.625598
0.455548
0.368627
0.358455
0.356478
0.364543
0.379249
0.404634
0.448189
0.510931
0.595859
0.703498
0.833742
0.988568
1.17326
1.39286
1.66021
1.98837
2.39672
2.90509
3.53962
4.31485
5.24318
6.31975
7.52684
8.76314
9.92186
10.9551
11.8503
12.6599
13.5794
14.8477
16.6932
19.3848
23.1986
28.5536
35.9948
46.3345
60.4559
79.1252
101.647
123.671
135.98
137.568
119.364
66.0459
14.7312
0.658699
0.0192274
0.000549856
0.000152617
0.000135256
0.000127663
0.000122574
0.00015875
0.000957343
0.00167025
0.30633
0.477045
0.37017
0.478209
0.394725
0.362104
0.422186
0.517689
0.646368
0.814576
1.03985
1.32478
1.67915
2.13057
2.63598
3.21915
4.02736
5.14406
6.63528
8.66819
11.4787
15.3997
20.8548
28.4038
38.6018
52.102
69.6175
91.8057
116.53
140.845
165.127
184.046
177.149
147.634
111.471
85.8285
82.7544
88.8351
100.622
119.221
146.875
186.119
243.519
320.925
385.857
380.166
328.97
256.438
138.792
37.5125
2.76947
0.113858
0.00336925
9.32645e-05
1.62459e-05
1.31573e-05
1.27783e-05
5.21751e-05
0.000837028
0.00165676
0.144273
1.04895
2.74871
10.8563
7.54073
5.24262
5.55311
6.67062
8.09415
9.99292
12.6082
15.8237
19.1665
23.0371
26.4044
29.5684
35.388
44.614
58.374
78.9858
109.768
155.347
223.862
327.447
476.655
676.851
939.657
1302.99
1742.26
2154.26
2365.8
2377.38
2163.94
1759.17
1302.73
918.769
663.181
557.606
539.76
555.789
607.824
685.548
797.991
953.335
1045.6
936.843
684.904
471.392
276.305
81.9604
9.26213
0.5465
0.0231691
0.000613907
1.38064e-05
3.32058e-06
4.22647e-06
4.40468e-05
0.00082563
0.00165449
0.21962
17.2582
73.2055
315.332
245.433
133.462
94.7166
105.612
125.019
151.189
189.38
241.708
304.896
390.978
506.816
524.318
571.001
659.747
738.331
827.963
1041.5
1382.41
1847.63
2550.91
3611.97
4858.07
6018.56
7325.39
8632.91
9520.45
9967.93
10025.8
9562.3
8454.53
6892.29
5262.26
3807.39
2668.14
1924.65
1543.56
1397.98
1325.94
1315.16
1362.33
1381.01
1212.6
908.265
619.325
406.262
167.312
26.8872
2.08488
0.106421
0.00336587
7.00365e-05
3.48401e-06
3.77107e-06
4.33703e-05
0.000822746
0.0016513
6.04415
411.786
1983.34
5548.51
5981.84
3200.73
1791.3
1988.56
2461.65
3081.8
3981.3
5293.43
7013.01
9332.67
9647.73
8209.44
7401.2
7922.76
8596.65
9331.6
10540.3
12360
14470
16694.3
19148.9
21662.8
23543.4
24350.5
24334.2
23905.8
23039.6
21768
20218.3
18306.8
15980.9
13401.4
10846.9
8477
6385.47
4621.22
3359.03
2654.25
2207.25
1752.5
1359.5
1050.89
776.822
551.392
390.918
198.302
46.5903
4.93985
0.314807
0.0121964
0.00029667
7.10792e-06
3.77924e-06
4.30445e-05
0.000819609
0.00164682
22.8227
534.591
1583.13
3064.92
4458.56
6679.13
8779.73
11798.1
15011.6
17998.3
21429.3
26252.2
31020.9
34437.3
36325.5
35620.6
32564.5
29488.8
27632
26575.6
25752.6
25225.4
24857.6
24485.6
24118.5
23833.8
23516.9
22983.5
22152.4
21085.4
19895.8
18609.8
17231.1
15698.1
13941.2
12109.6
10443.4
9047.77
7922
6890.69
5654.17
4322.53
3294.29
2529.34
1810.2
1193.96
749.142
469.095
311.491
167.018
50.9567
7.88912
0.684672
0.0338043
0.000994994
2.05289e-05
3.9263e-06
4.2891e-05
0.000816656
0.00164185
22.7503
499.149
1536.16
2930.87
4770.66
6199.51
7156.77
7911.22
8709.37
9733.29
11101.2
12797.6
14831.9
16882.9
19106.8
21050.3
22770.5
24637.5
26319.8
26358.3
24765
22735.5
21110
20121.8
19526.8
19040
18617.9
18250.4
17750
16939.6
15860
14581.5
13121.1
11573.9
10080.4
8680.61
7232.9
5616.34
4061.88
2825.82
2075.54
1600.23
1197.04
878.815
667.305
499.336
357.703
268.384
218.98
136.123
45.5906
7.72357
0.726324
0.0381965
0.00117323
2.42538e-05
3.96556e-06
4.29364e-05
0.000816599
0.001642
14.5559
299.472
2057.19
6070.57
9851.09
13885.5
17198.8
19885.1
22219.5
24526.8
26802.8
30345.6
35262.4
40734.4
45658
50351.7
56203.2
63823.4
69708.2
69068.1
62866.4
56876.5
53362
52339.3
52892.8
53930.8
55067.6
55843.1
55482.7
53934
51242.8
47467.6
42945
37855.7
32426.2
26884.6
21366
15302
9625.2
5671.87
3331.46
2133.92
1557.49
1203.62
926.131
704.78
518.457
387.269
305.582
193.406
67.5519
11.5435
1.06889
0.0552194
0.00166059
3.25324e-05
4.04279e-06
4.2862e-05
0.000814718
0.00163907
11.9776
513.127
2758.73
9783.74
16051.5
21946.3
24824.4
28345.6
36261.1
48663.8
63724.2
80015.5
96080.8
110010
118172
121665
123227
122734
116998
104682
88199.5
73908.3
68186.6
69660.5
75736.6
84090.6
91927.6
96723.6
97500
94799.4
89710.2
83270.3
76374.2
68298.6
58931.7
48100.6
35925.3
24178.5
14623.1
7914
4267.4
2790.49
2372.01
2220.05
1909.02
1589.09
1243.51
898.982
625.098
381.032
136.449
21.5783
1.66214
0.0721302
0.00186751
3.21182e-05
3.9995e-06
4.27859e-05
0.000813565
0.00163771
19.2893
776.948
3187.99
9531.85
14772.4
20648.6
25266.6
31839.1
40811.6
53228
69390.2
88029.8
106412
122275
132860
137096
137095
132389
122198
107567
90615.3
76118.4
70530
72343.7
77784.1
82866
87160.2
89774.7
89425.3
86932.4
83392.8
78818.3
72454.9
63486.8
52563.8
41312
30372.1
20214.5
12133.8
6719.45
3811.52
2708.07
2760.21
3137.99
2880.94
2268.02
1640.35
1097.17
709.824
412.453
145.961
22.4558
1.70223
0.0731812
0.00188489
3.23144e-05
4.00008e-06
4.27672e-05
0.000813533
0.00163672
17.5367
642.31
3603.29
8202.81
14624.5
21844.5
25846.6
28420.3
30599.2
32693.5
35684
40072.4
45253.4
50278.7
54734.1
58614
62507.6
66492.5
67559
61963.9
52397.6
44440
39207
36707.8
36950.4
38671.7
40246.9
41407.7
41824.9
41119.1
39355.4
36778.5
33411.1
29427.5
25273.4
20718.8
15886
11203.4
7190.98
4324.36
2607.02
1808.61
1564.55
1433.27
1166.98
869.325
626.498
468.391
372.348
218.724
66.3277
10.501
0.934428
0.0473749
0.0014107
2.78336e-05
3.99287e-06
4.27382e-05
0.000815472
0.00163976
20.6467
408.905
1695.48
4669.41
11330.6
24832.8
32394.9
30797.8
30594.1
31510.7
33693.9
36459.4
39428.8
41818.9
43594.5
44677.6
44648.2
42937.5
39188.9
34737.5
31266.9
29159.3
27930.4
26650.2
25201.8
24466.9
24208.8
23844.2
23102
22130.6
20816.9
18898.2
16444.7
13717
11122.4
8830.59
6785.57
4975.88
3437.48
2263.95
1482.6
1026.29
792.51
645.364
521.766
420.398
339.494
288.56
248.681
133.257
35.0834
5.30076
0.467092
0.0237503
0.000712186
1.54065e-05
3.86707e-06
4.2784e-05
0.00081752
0.00164371
16.3464
500.558
3271.81
7097.43
9985.82
13677.9
14569.9
16906.3
19530.5
22691.5
26825.6
30958
34508.2
37314.8
38783
38701.4
37396.3
35372.1
33319.3
31271.7
29440.1
28236.4
26848
24913.1
22828.9
20977.3
19517.5
18208.8
16647.7
14880.6
13137.1
11534.3
10068.9
8673.99
7314.88
6028.84
4870.7
3849.44
2977.66
2282.38
1737.34
1412.01
1312.66
1201.32
947.184
676.067
471.698
350
280.787
149.139
38.0958
5.30357
0.427844
0.0203189
0.000582348
1.27977e-05
3.83752e-06
4.28386e-05
0.000817586
0.00164303
3.69141
134.29
514.253
1633.09
2300.57
2547.68
1890.02
1512.11
1479.5
1881.82
2456.36
3268.04
4376.32
5922.24
8070.9
9703.25
10090.9
9851.67
9134.75
8827.09
9399.91
10255.2
10726.9
11120.9
11816.7
13045.3
14487.7
15317.3
15314.8
14871.4
14331.1
13546.7
12297.3
10435.7
8301.86
6424.4
5008.94
4040.27
3383.95
2910.87
2621.42
2501.65
2292.57
1869.25
1424.44
1033.51
720.449
500.718
361.745
176.674
38.7333
4.02962
0.24724
0.00931272
0.000222498
5.90231e-06
3.74808e-06
4.31327e-05
0.000817832
0.00164262
0.203532
8.09117
29.5402
140.473
230.71
213.783
110.805
74.4743
80.8443
99.0707
124.537
162.632
222.083
325.417
510.348
792.345
924.267
899.555
767.988
648.605
665.485
766.048
889.729
1046.67
1262.94
1547.96
1855.86
2114.15
2311.44
2430.77
2323.86
2053.06
1683.53
1310.01
1061.78
965.241
999.509
1111.86
1294.63
1531.95
1919.74
2444.03
2911.61
2944.13
2637.63
2042.05
1358.85
819.573
472.849
170.971
24.0015
1.74756
0.0839538
0.00253816
5.24009e-05
3.77634e-06
4.10202e-06
4.36803e-05
0.000821996
0.00164993
0.217882
0.620304
1.29543
5.02757
11.5387
9.93063
4.77012
3.99963
4.8584
5.94821
7.33807
9.1525
11.5319
14.9421
20.036
27.1672
37.1272
37.9099
33.7026
34.8655
40.6955
47.9919
56.5566
67.0947
79.9548
94.7968
109.176
120.299
127.142
129.509
127.033
123.489
123.104
128.993
144.076
170.149
211.137
273.505
369.294
515.089
739.473
1094.18
1679.63
1976.26
1847.79
1512.82
1079.43
688.672
362.153
94.9565
8.83831
0.483833
0.0192999
0.000490861
1.44583e-05
5.69407e-06
5.85024e-06
4.53211e-05
0.000825136
0.00165234
0.545857
0.455442
0.221936
0.196307
0.430049
0.452223
0.386998
0.458386
0.588873
0.750928
0.959491
1.22152
1.54901
1.95297
2.4475
3.05549
3.84543
4.43944
4.97469
5.82368
6.93227
8.31844
10.0128
12.1059
14.653
17.6947
21.0953
24.6947
28.3979
32.2365
36.3706
41.1515
47.0603
54.707
65.1191
79.6614
100.85
132.359
179.922
253.202
370.282
529.619
679.524
697.945
626.189
538.34
464.9
356.886
185.255
46.8043
3.1303
0.121786
0.00332978
9.2476e-05
2.15654e-05
1.86148e-05
1.7651e-05
5.64622e-05
0.000839435
0.00165462
1.63765
1.70776
0.802498
0.276983
0.19476
0.175449
0.195554
0.226073
0.273865
0.332929
0.407007
0.49883
0.613283
0.751774
0.918948
1.11688
1.33378
1.56817
1.82933
2.15546
2.5515
3.04328
3.6437
4.37999
5.26723
6.31935
7.50886
8.80909
10.188
11.6701
13.3095
15.2092
17.5788
20.694
24.9727
31.0065
39.7805
52.7752
72.1779
100.895
142.374
200.692
256.076
270.783
254.056
233.782
218.767
176.152
92.8023
20.6728
0.929581
0.0269781
0.000639922
0.000111816
0.000110455
0.000113485
0.000116965
0.000156829
0.000952222
0.00166293
4.09839
7.27152
5.09962
2.26972
1.51333
1.10147
1.02486
0.946907
0.913716
0.886753
0.843587
0.785603
0.748504
0.741364
0.769571
0.841212
0.92642
1.02513
1.13852
1.27395
1.41388
1.55702
1.7076
1.87835
2.08035
2.3338
2.65063
3.03967
3.50361
4.05833
4.73083
5.57017
6.65058
8.09257
10.0809
12.8883
16.9466
22.9491
32.0562
46.0064
66.4321
88.7708
102.823
98.0706
83.159
71.4878
65.4971
57.038
29.5301
4.76242
0.13846
0.0033131
0.000746756
0.000798528
0.000869446
0.000905367
0.000939312
0.00098912
0.00177751
0.00173668
11.34
34.1892
37.0988
26.3956
22.8125
19.5757
19.0247
18.0307
17.3004
16.2956
15.1735
13.5815
12.1253
10.8577
9.85526
9.28693
8.86138
8.54448
8.31938
8.14597
7.78943
7.2524
6.55645
5.76612
4.93613
4.17078
3.56035
3.13853
2.88181
2.75946
2.75751
2.86699
3.07734
3.39477
3.84545
4.4712
5.33525
6.53356
8.21288
10.2811
12.4772
14.3713
15.0223
14.1317
13.0017
12.7238
12.7916
11.477
5.22911
0.550901
0.0138635
0.00389625
0.00419946
0.00446998
0.00471877
0.0048282
0.00495938
0.00502442
0.00554826
0.00217726
88.5051
152.835
280.149
310.231
345.567
357.798
369.397
371.885
367.686
358.699
343.162
325.301
303.194
280.443
256.257
232.974
210.358
190.086
170.736
152.679
135.057
118.283
101.93
86.529
72.1496
59.2656
48.0664
38.7162
31.0507
24.8833
19.9845
16.1587
13.1732
10.8347
8.97691
7.48439
6.258
5.20705
4.26892
3.40589
2.56348
1.79542
1.165
0.705216
0.409692
0.232603
0.129566
0.0704518
0.029343
0.0126774
0.00977931
0.00859952
0.0080254
0.00737352
0.00734595
0.00693781
0.00713601
0.00684132
0.00716293
0.00791329
61.155
119.115
234.779
275.072
321.635
342.895
359.84
365.205
361.556
352.94
336.593
318.454
295.607
272.973
248.929
226.141
203.66
182.957
163.126
144.787
126.996
110.098
93.7856
78.5593
64.6405
52.5237
42.2474
33.8009
26.9623
21.5256
17.2465
13.9194
11.3361
9.33586
7.78021
6.56144
5.57982
4.74407
3.98828
3.27131
2.54044
1.82877
1.22625
0.771185
0.464973
0.273938
0.159431
0.0893957
0.0373248
0.0133092
0.00948735
0.00833364
0.00781491
0.0072239
0.00722415
0.00684907
0.00705186
0.0067783
0.00714547
0.00857809
9.2861
27.0236
34.9102
29.8652
28.8656
25.2145
23.7145
21.6087
19.8312
17.8904
16.3017
14.2851
12.8168
11.4083
10.2972
9.49232
8.82589
8.35583
8.01936
7.63799
7.12926
6.47656
5.6886
4.857
4.07203
3.4334
2.97502
2.68898
2.54285
2.51604
2.5947
2.76872
3.03565
3.40957
3.91983
4.60958
5.54644
6.82526
8.4786
10.4171
12.4778
14.4033
15.7722
16.2987
16.1579
15.9348
15.8566
14.2665
7.31882
0.958209
0.0232319
0.00421044
0.00436216
0.00459642
0.00480137
0.00488353
0.00498379
0.00503755
0.00557075
0.00225805
2.41196
5.6694
5.29702
3.27569
2.636
1.87702
1.59682
1.31837
1.14702
1.00561
0.918036
0.818892
0.778899
0.757579
0.769392
0.811246
0.874779
0.959802
1.06632
1.18168
1.2998
1.42463
1.56215
1.73015
1.94386
2.22482
2.58462
3.03608
3.59099
4.27002
5.10341
6.14401
7.46045
9.18272
11.5313
14.8508
19.7014
26.9489
37.8989
54.1343
76.8861
100.409
115.838
113.38
95.3538
78.1958
69.049
61.5185
35.6199
6.86365
0.219866
0.00439896
0.000755357
0.000770468
0.000825093
0.000851422
0.000878756
0.000924818
0.00172029
0.00174716
0.933366
1.3397
0.915909
0.43804
0.332766
0.254638
0.261649
0.28528
0.340068
0.416263
0.519357
0.647805
0.806247
0.995593
1.21725
1.47429
1.77411
2.11832
2.50439
2.981
3.55333
4.25358
5.10712
6.14181
7.36218
8.76834
10.3442
12.1026
14.0603
16.2719
18.8446
22.0187
26.1725
31.9641
40.4712
53.6193
75.027
111.307
173.589
280.408
461.648
769.093
1020.24
996.143
719.79
454.199
305.36
214.294
120.184
30.2309
1.62947
0.0388702
0.000840819
8.80114e-05
8.35369e-05
8.73343e-05
9.18653e-05
0.000132542
0.000928999
0.00166455
0.410839
0.409043
0.270048
0.213238
0.276153
0.388156
0.568522
0.817525
1.16277
1.61265
2.19736
2.93252
3.83238
4.89409
6.10311
7.44019
8.96852
10.5952
12.3167
14.599
17.496
21.1063
25.5191
30.7517
36.6585
43.0441
49.6993
56.655
64.0497
71.7135
79.6913
88.8956
100.775
117.812
143.678
184.772
253.533
373.994
592.749
993.456
1720.03
2916.61
4419.35
4136.92
2483.22
1314.33
871.673
643.63
346.725
92.4274
8.3024
0.284889
0.00815988
0.000178246
1.11638e-05
9.12797e-06
1.05029e-05
5.0411e-05
0.000834467
0.00165429
0.218813
0.382097
0.505481
0.765681
1.18878
1.82866
2.78663
4.16908
6.18017
8.89456
12.5741
17.3999
23.3406
30.3408
37.736
44.5954
50.8191
55.2251
58.9545
65.8552
76.8779
91.4747
109.731
130.879
152.098
168.816
178.852
185.111
191.13
196.899
200.66
204.594
214.196
235.542
276.006
347.741
472.843
696.577
1111.89
1898.06
3428.67
6332.34
10350.9
9680.79
6122.67
3343.83
1936.56
1211.41
674.735
226.237
28.8848
1.40264
0.0537507
0.00122843
2.1122e-05
3.20385e-06
4.19661e-06
4.38653e-05
0.000823193
0.0016493
0.169004
2.23718
4.44943
7.8415
12.0024
18.0372
27.0109
40.2019
60.0487
87.9229
126.638
178.889
244.33
326.582
413.37
482.431
545.015
601.377
626.578
694.666
830.525
1041.68
1347.42
1749.2
2207.6
2608.62
2838.05
2932.89
2988.95
3018.72
2896.23
2604.38
2286.5
1977.64
1500.56
1291.69
1371.55
1679.79
2301.81
3483.99
5601.11
8707.46
11812.5
11325.5
8366.99
5418.1
3295.83
1800.67
882.223
339.174
65.893
4.6923
0.196561
0.00504239
8.55297e-05
3.51984e-06
3.78569e-06
4.33027e-05
0.00082098
0.00164674
0.433713
21.0847
50.4058
96.72
138.578
198.627
287.619
423.705
645.133
980.021
1478.13
2234.49
3217.9
4524.31
6098.16
6853.94
7465.62
8275.59
8621.38
8911.79
10333.5
12781
16562.2
21701.6
28066.3
34825.2
40055.1
43109.5
45170.5
47443.7
48182.9
45731.8
40157.6
33026.7
25357.4
17868.2
12281.2
9105.95
7938.2
7986.35
8650.37
9568.74
10249.9
8874.73
6496.63
4235.11
2528.95
1392.86
726.531
314.333
77.5275
8.06505
0.438937
0.0140659
0.00028486
6.24386e-06
3.76796e-06
4.31128e-05
0.000818589
0.00164344
7.72104
153.116
400.142
941.052
1470.65
2229.67
3203.81
4641.36
6876.71
9907.92
13738.4
20231.3
27324.1
34376.3
39659
41940.4
42874.9
45144.2
47435.2
47719.2
48428
52466.3
59980.6
70236.9
80942.1
90109.5
95784
97437.3
95778
91888
86381.5
79384
71144.3
62641.7
54641.7
46247.8
36313.6
26511
18726.5
13394.2
9867.05
7673.64
6675.91
5836.23
4278.77
2640.13
1520.99
857.083
498.026
240.752
66.18
8.526
0.601705
0.0250212
0.000639689
1.2784e-05
3.82252e-06
4.28878e-05
0.000815726
0.00163954
29.4764
1085.65
3108.75
7687.27
13012.6
17829.9
21740.4
24881.5
28592
33530.7
37412.9
40087.6
42709.6
45333.8
48244
51403.2
53763.4
54376.7
53895.6
52156.8
49490.9
47081.3
45442.5
44477.5
43299.9
41364.4
38656.1
35401.3
31951.5
28261.7
24617.9
21189.1
18007.1
15150.6
12657.8
10434.4
8406.22
6572.66
4959.03
3690.7
2808.91
2225.61
1884.91
1689.48
1400.82
1004.34
653.454
419.393
288.602
158.522
50.134
8.15072
0.738132
0.0383656
0.00118425
2.47953e-05
3.97293e-06
4.26672e-05
0.000814581
0.00163879
23.3987
496.761
3828.89
12101.1
15062
17073.8
17718
17828.4
17912.6
18058.5
18711.8
19882.2
20717.9
20964.1
20801.9
20337.8
19962.4
19544.7
18910.4
17998.5
16475.2
14539.9
12867.5
11767.7
11057.2
10683.4
10576.9
10629.7
10684.1
10641
10501.8
10216.2
9709.99
8921.72
7818.7
6465.37
5055.45
3785.75
2718.98
1880.38
1292.81
908.075
685.284
562.891
466.748
352.321
268.965
225.752
201.353
118.806
36.0756
6.02923
0.575045
0.0313865
0.00100346
2.17643e-05
3.93997e-06
4.26505e-05
0.000815269
0.00163992
19.8998
301.373
3997.9
16043
23853
30463.1
33939
36227.6
38701.3
41110.1
42692.9
43356.7
42977.1
41600.7
39561.2
36988.3
34201.5
31472.9
28720.9
26064.3
23527.1
21074.5
19219.6
18211.9
17776.6
17635.9
17729.2
17946.9
18063.2
17885.8
17414.6
16729.5
15613.2
13868.5
11614.6
9058.87
6541.68
4425.78
2826.12
1741.98
1090.27
733.496
553.687
450.761
374.114
311.767
264.287
249.456
217.015
106.419
27.9429
4.77974
0.472925
0.0265199
0.000861333
1.91379e-05
3.90169e-06
4.26032e-05
0.000813863
0.00163719
18.7434
194.382
2436.82
10818.9
24917.2
38399.1
40754.8
37470.9
35920.2
36013.4
36827.3
38196.7
39697.5
40678.7
40926.3
40177.2
38513.4
36236.1
33609.1
30845.8
28334.7
25871.6
23680.9
22229.1
21446.5
21198.1
21417.8
21935.1
22239.5
22102.8
21766.4
21277.9
20369.1
18797.7
16339.4
12987.9
9287.69
6058.61
3686.11
2149.34
1323.64
891.473
662.18
532.239
438.153
357.986
289.722
256.002
227.961
122.702
33.5511
5.60764
0.545082
0.0301212
0.000966272
2.09675e-05
3.91815e-06
4.25942e-05
0.000813
0.0016352
25.791
677.161
3784.6
11923.1
14397.5
14020.7
12476.8
12199.2
13331
14624.2
15338.7
15809
16626.5
17777.9
19128.9
20671
21979.4
22557.5
22147.5
20850.4
19048.3
17256.2
16043.1
15554.1
15589.7
16078.9
16969.6
18048.8
19096.4
20023.6
20868.4
21571.7
21283.3
20238.2
18872.5
16867.8
13892.3
10306.1
6993.54
4511.97
2849.26
1831.57
1284.05
980.824
739.706
543.628
402.08
311.973
261.475
164.771
54.7423
8.94857
0.825224
0.0432992
0.00133357
2.72673e-05
3.98708e-06
4.26732e-05
0.000813135
0.0016353
42.2115
815.344
2744.54
6789.32
7067.62
7807.68
8543.75
9496.63
10591.2
12132.7
14234.6
16912.4
19965.6
23558.9
27946.1
32697.4
37351.2
41204
42415
40426.5
37476.6
35603.1
35344.2
36684.2
39090.2
42639.8
47465.5
53148.4
59103.8
64958.4
70148.3
70989.1
62229.5
45988.1
30167.8
19038.4
11999.3
7411.58
4400.79
2518.7
1438.62
914.128
723.825
785.401
803.642
675.166
536.985
423.705
340.807
231.116
87.9259
14.3195
1.20706
0.0574173
0.00162471
3.0747e-05
4.02782e-06
4.28371e-05
0.000817481
0.00164198
50.4318
463.679
805.295
1497.16
2224.78
3389.12
5378.34
8219.27
13483.5
20489.6
28750.8
37231.1
45277.3
52604.4
57372.8
58406.9
56629.7
51985.1
44772.1
37734
34675.5
35579.5
39721.8
45317.3
51469.8
57722.7
62881.7
65384.5
64204.8
58633.4
49586
38524.3
26693.6
16831.6
10294.1
6402.71
4082.3
2620.48
1684.58
1125.2
862.164
888.291
1318.73
1954.53
1956.55
1533.91
1109.5
778.984
553.385
339.649
110.131
13.6073
0.872585
0.0329088
0.000766318
1.37811e-05
3.83635e-06
4.29781e-05
0.000820076
0.00164715
10.4866
273.641
731.823
1757.13
3337.07
5987.71
9369.54
14052.2
20678
29917.2
42099
55137.4
68575
79462.6
85247
85447.7
82632.6
77350.7
68808.7
59124.9
53932.2
56169.8
62140.3
69199.1
75638.4
80382.7
82416.6
81940.1
78252.9
70135.3
59412.8
48211.8
36570.9
23451.5
11218.6
4718.83
2872.02
2288.83
2118.38
2221.65
2562.49
2990.75
3283.68
3072.77
2475.4
1906.37
1425.54
1025.21
720.612
408.837
117.445
13.2132
0.794103
0.0280248
0.000619093
1.12965e-05
3.81731e-06
4.30739e-05
0.000820198
0.00164605
1.76718
49.9272
125.558
270.6
501.489
856.234
1390.18
2138.29
3109.21
4395.79
6090.17
6522.38
6959.94
8129.01
9456.9
11094.7
12329.4
12381.4
11274.5
10353.5
10802.7
12757.7
15563.6
18557.2
21603.5
24451.6
26010.1
26096.8
23623.8
19599.9
15710.1
12121.5
8510.56
5289.64
3195.73
2327
2026.13
1916.44
1925
2016.76
2187.31
2339.47
2411.8
2255.66
1963.99
1599.04
1227.77
883.185
556.335
204.103
33.0856
2.8204
0.152912
0.00511584
0.000111785
4.13343e-06
3.7716e-06
4.32866e-05
0.000820862
0.00164622
0.632725
2.86587
6.12623
11.9521
20.8639
33.8294
51.7727
72.6529
94.4863
113.131
127.202
135.266
157.776
200.495
265.6
369.417
505.638
533.31
456.398
402.7
483.043
639.005
827.892
1054.48
1363.1
1800.19
2405.59
3087.74
3089.35
2632.33
2181.11
1734.14
1293.21
969.941
815.08
802.717
905.305
1123.52
1480.91
2038.32
2921.04
3968.22
4667.21
4638.55
3885.09
2762.64
1611.75
806.071
320.356
90.6496
10.2589
0.604667
0.0274477
0.000787355
1.77166e-05
3.40367e-06
4.28278e-06
4.39857e-05
0.00082625
0.00165549
1.23542
0.928511
0.789922
0.967534
1.4485
2.11772
2.97
3.78582
4.44552
4.70081
4.61641
4.54137
4.99247
5.90918
7.12814
8.67088
10.4555
12.1947
13.089
15.899
20.0076
25.1636
31.3354
39.0026
49.032
61.9075
77.2627
93.2041
106.571
112.465
111.854
105.108
97.0046
99.3853
114.963
139.467
176.716
233.193
320.42
456.025
665.625
966.293
1390.25
1445.53
1183.82
875.828
611.178
364.194
155.247
41.6614
3.08034
0.129648
0.00403248
0.000107216
1.30052e-05
1.10632e-05
1.16915e-05
5.13743e-05
0.000836046
0.00165654
2.32691
2.38109
1.4191
0.656727
0.489867
0.406491
0.420286
0.440959
0.475524
0.507932
0.553247
0.623595
0.729419
0.862878
1.02163
1.20931
1.42995
1.68995
1.99512
2.36934
2.82187
3.37387
4.0418
4.85752
5.85436
7.05384
8.43707
9.97604
11.574
13.1942
14.997
17.0782
19.6034
22.8755
27.2725
33.3566
42.0231
54.6289
73.3951
101.727
144.367
206.512
268.198
283.097
265.754
246.178
221.229
156.645
74.4653
16.417
0.773276
0.0232931
0.000585813
0.000105541
0.000103217
0.000104949
0.000107081
0.000146123
0.00094427
0.00166784
5.19344
9.20252
7.49305
4.28215
3.21958
2.30925
1.93995
1.59378
1.34219
1.14899
1.03328
0.968937
0.957285
0.961026
0.984896
1.03929
1.11044
1.20215
1.30529
1.40443
1.48788
1.56872
1.66267
1.78975
1.96565
2.20974
2.52655
2.91326
3.35968
3.86553
4.44772
5.13628
5.97558
7.03335
8.40924
10.2421
12.7474
16.2217
21.0813
27.9019
37.4356
48.9451
59.1218
64.3365
65.4637
66.7272
69.0816
57.4566
27.6015
4.33996
0.132375
0.00343079
0.000828902
0.000867633
0.000923737
0.000950831
0.000972441
0.00101818
0.00180549
0.00175112
13.1411
37.7301
44.6432
35.6865
32.9244
28.5627
26.5455
23.9303
21.5023
19.0937
17.2262
15.5849
14.4396
13.3599
12.3661
11.7109
11.1406
10.7209
10.3196
9.77801
8.96477
7.95568
6.83291
5.70278
4.63175
3.73193
3.06756
2.63574
2.39933
2.30487
2.31202
2.39878
2.55042
2.76412
3.0486
3.42182
3.91689
4.57485
5.44533
6.58916
8.08602
9.66704
11.1832
12.3782
13.4001
14.7166
16.5703
14.3822
6.22541
0.651436
0.01682
0.0042893
0.00454698
0.00480532
0.00503583
0.00512026
0.00523857
0.00528259
0.00582371
0.00230049
76.8611
148.51
272.91
309.825
353.979
372.953
387.595
389.05
382.707
370.267
352.353
333.039
310.645
288.53
264.907
242.767
220.683
200.242
180.372
161.639
142.865
124.57
106.646
89.8115
74.166
60.2164
48.1874
38.2553
30.2521
23.9637
19.0734
15.2967
12.3681
10.079
8.26263
6.8051
5.62301
4.63563
3.77464
2.99519
2.28147
1.6446
1.09115
0.68048
0.41043
0.246471
0.154866
0.0899166
0.035217
0.0132229
0.00974941
0.00853208
0.00797293
0.00736065
0.0073773
0.00700276
0.00723263
0.00696262
0.00735494
0.00893755
72.1262
113.715
228.078
264.719
299.101
310.978
319.994
320.762
315.244
305.781
291.045
274.464
255.1
235.613
215.298
196.232
177.592
161.11
145.504
131.207
117.204
103.695
90.291
77.5288
65.5407
54.7992
45.5263
37.8527
31.5941
26.5447
22.4932
19.2973
16.7624
14.7235
13.0298
11.5671
10.2262
8.89452
7.51863
6.0565
4.59894
3.26404
2.14714
1.31987
0.779679
0.450699
0.253396
0.13041
0.044967
0.011717
0.00833773
0.00758731
0.00738712
0.00682401
0.00692579
0.00650532
0.00676114
0.00643105
0.00680533
0.00792242
41.6382
84.4425
166.196
189.589
211.841
220.068
223.949
222.302
216.146
207.812
196.405
184.289
171.07
158.301
145.515
133.951
122.889
113.386
104.572
96.6305
88.8137
81.123
73.2328
65.5607
58.1887
51.4134
45.3793
40.2201
35.8227
32.0686
28.8244
26.0473
23.654
21.5512
19.6142
17.722
15.8129
13.9133
11.9205
9.80385
7.6829
5.69307
3.96146
2.59514
1.64949
1.04436
0.652278
0.346414
0.106057
0.0137107
0.00679056
0.00637023
0.00647158
0.00605546
0.00623429
0.00585147
0.00611227
0.00579094
0.00615173
0.00713801
33.0626
53.1699
98.0658
110.467
121.229
124.991
125.599
123.415
119.041
113.966
107.733
101.634
95.4683
90.0903
84.8748
80.4488
76.3252
72.9342
69.8421
67.1011
64.2289
61.0832
57.4067
53.4579
49.2391
44.9411
40.7977
37.0791
33.8665
31.0509
28.5561
26.3455
24.4102
22.7391
21.2208
19.6917
18.1076
16.4588
14.6884
12.8081
10.8873
8.96794
7.07559
5.11924
3.57996
2.56533
1.91875
1.11882
0.351048
0.029652
0.00564296
0.00512709
0.00541969
0.00518029
0.00541389
0.00511959
0.00537947
0.0050975
0.00541721
0.006214
27.6076
34.396
53.4931
56.3122
60.1475
61.3495
61.2262
59.9686
58.0786
56.2621
54.3358
52.6185
51.0277
49.781
48.5936
47.5922
46.5871
45.6648
44.687
43.5788
42.1323
40.2685
37.9418
35.4971
33.1497
31.2291
30.013
29.7695
30.8438
31.8918
31.9136
30.3962
26.9848
23.7232
22.402
20.9983
19.3273
17.9324
17.0079
16.3956
16.181
16.092
16.6102
13.277
9.49912
7.0438
5.57786
3.57106
1.21341
0.106326
0.00628783
0.00425906
0.00460002
0.00449562
0.00476858
0.00455097
0.00481292
0.00458217
0.00487842
0.0055651
23.5795
18.8024
24.6703
26.5007
28.2809
28.992
29.1647
28.9613
28.5754
28.2309
27.7879
27.2751
26.84
26.5589
26.319
26.0802
25.737
25.2602
24.6377
24.0544
23.8399
23.9843
24.5828
26.0801
29.0054
33.9898
41.8868
54.1781
65.7545
74.297
80.7305
83.5313
83.9982
81.0597
74.0079
61.3546
44.7927
32.2485
28.0478
29.1406
35.0423
39.4001
33.9475
19.5983
12.2977
11
10.693
8.24403
3.28877
0.369859
0.0122904
0.00407256
0.00424865
0.00420771
0.00451872
0.00433447
0.00461137
0.00439696
0.00469501
0.0053841
19.6648
11.007
15.0763
17.0069
19.4681
20.749
22.2068
23.3248
24.3961
25.3107
25.995
26.3645
26.6579
27.0184
27.4225
27.7638
28.0133
28.0684
28.0029
27.7727
27.8852
28.3253
28.8567
29.501
30.4173
31.8793
34.4289
38.6698
43.4995
46.4238
50.0878
54.4122
57.875
60.4013
60.7956
61.9847
58.2489
55.7292
57.0177
61.248
66.4108
68.4989
60.2806
41.2429
27.29
20.2335
15.8779
10.1849
3.66527
0.413023
0.0134933
0.00419214
0.00438625
0.00436081
0.00471691
0.00451831
0.00482629
0.00459251
0.00491878
0.00566418
27.4281
21.2041
27.7952
27.5506
31.1607
32.9505
35.9999
38.2491
40.6234
42.6762
44.5633
45.9288
47.0018
47.8934
48.603
48.8492
48.8698
48.7091
48.4619
48.0468
47.5817
46.6985
45.2391
43.2495
40.947
38.5967
36.4509
34.6905
33.4099
32.1458
30.8524
29.4302
27.688
25.8544
24.051
21.9034
19.8947
18.1487
16.8039
15.5891
14.5571
13.7305
13.2527
13.0967
13.6717
16.0159
17.6957
14.2525
6.20914
0.809846
0.0196434
0.00475271
0.00488612
0.00482984
0.00523899
0.00498944
0.00534567
0.00506617
0.00544369
0.00630446
24.3312
36.5528
72.2358
81.1797
91.2436
93.4261
97.7001
99.625
101.084
101.122
100.992
99.7374
97.5894
94.6795
91.565
87.7993
83.7733
79.693
76.3997
74.0307
73.3074
74.2506
77.2781
83.5121
94.1519
110.3
134.118
172.215
222.566
265.977
306.372
343.2
375.328
407.137
438.028
445.193
408.588
343.932
273.696
214.443
169.012
132.082
105.714
74.3035
38.8649
20.1724
14.6411
9.7234
3.45181
0.307607
0.00958498
0.00527839
0.00587482
0.00571915
0.0061677
0.00579535
0.00620905
0.00584014
0.00629156
0.00734106
22.7721
45.4897
111.951
146.033
183.248
199.126
215.357
224.754
230.671
232.172
231.525
229.163
225.87
222.157
218.8
214.12
209.037
203.233
197.491
190.947
183.636
173.972
161.479
146.652
131.329
117.377
105.92
97.315
91.8402
91.574
90.4102
86.8934
81.6919
76.6168
71.4632
65.9406
58.3671
51.7429
45.4732
38.9293
32.7736
27.5074
23.8838
18.9639
11.5211
6.7609
4.96524
3.2861
1.15364
0.0910635
0.0070051
0.00621443
0.0070046
0.00669873
0.00719186
0.00667154
0.00716268
0.00668602
0.00723336
0.00851465
22.1674
55.6947
144.743
181.6
225.647
247.268
267.749
279.229
285.906
286.78
284.743
280.137
274.124
267.892
261.771
255.13
247.807
239.919
231.825
223.416
214.434
203.915
190.286
173.348
154.648
136.483
119.824
104.873
91.8517
80.8789
71.5744
63.7804
57.3238
52.1214
47.7843
43.9051
40.0642
36.0225
31.4793
26.4734
21.3718
16.6423
12.6917
9.6387
6.17684
3.92622
3.06468
2.27662
0.894224
0.0796984
0.00744195
0.00664827