/*--------------------------------*- C++ -*----------------------------------*\
| =========                 |                                                 |
| \\      /  F ield         | OpenFOAM: The Open Source CFD Toolbox           |
|  \\    /   O peration     | Version:  2.1.1                                 |
|   \\  /    A nd           | Web:      www.OpenFOAM.org                      |
|    \\/     M anipulation  |                                                 |
\*---------------------------------------------------------------------------*/
FoamFile
{
    version     2.0;
    format      ascii;
    class       volVectorField;
    location    "0.0011";
    object      fluctuation2;
}
// * * * * * * * * * * * * * * * * * * * * * * * * * * * * * * * * * * * * * //

dimensions      [0 1 -1 0 0 0 0];

internalField   nonuniform List<vector> 
36520
(
(0.281361 0.157061 0.178589)
(0.387079 0.225895 0.219071)
(0.485143 0.289678 0.28324)
(0.500861 0.30764 0.30089)
(0.526319 0.323229 0.318246)
(0.534373 0.329459 0.325094)
(0.545375 0.335411 0.331347)
(0.549642 0.338042 0.334044)
(0.550986 0.338353 0.334547)
(0.548869 0.336673 0.333189)
(0.542578 0.332571 0.329247)
(0.534279 0.327182 0.324119)
(0.523183 0.320187 0.317146)
(0.511041 0.312475 0.309214)
(0.497638 0.30402 0.300281)
(0.484427 0.295471 0.291165)
(0.470406 0.286419 0.281473)
(0.456668 0.277367 0.271892)
(0.442193 0.267855 0.261958)
(0.427424 0.258083 0.251988)
(0.411482 0.247667 0.241558)
(0.394581 0.236751 0.230797)
(0.376136 0.225087 0.219436)
(0.356468 0.212857 0.207633)
(0.335664 0.20011 0.195332)
(0.314361 0.187188 0.182824)
(0.292821 0.174228 0.170241)
(0.271565 0.161505 0.157853)
(0.250929 0.149198 0.145792)
(0.231318 0.137534 0.134283)
(0.212926 0.126623 0.12343)
(0.196032 0.116626 0.113375)
(0.180764 0.107621 0.104168)
(0.167216 0.0996662 0.0958787)
(0.155347 0.0927521 0.0885109)
(0.145046 0.0868177 0.0820462)
(0.136072 0.0817257 0.0764124)
(0.128089 0.0772703 0.0714746)
(0.120706 0.0732153 0.067071)
(0.113469 0.0693223 0.0630292)
(0.10588 0.0653208 0.0591352)
(0.0974476 0.0609065 0.0551408)
(0.0878782 0.055867 0.0508567)
(0.0771386 0.0501374 0.046173)
(0.0653758 0.0438023 0.0410343)
(0.0543388 0.0378729 0.0363087)
(0.0450956 0.0327226 0.0324284)
(0.0371175 0.0278604 0.0284496)
(0.0244657 0.0210439 0.0207018)
(0.012301 0.0154598 0.0137271)
(0.0104293 0.0136283 0.0121176)
(0.0103659 0.0124377 0.0113997)
(0.0105739 0.0116497 0.0110458)
(0.0104037 0.0110732 0.0107313)
(0.0106873 0.010838 0.0106956)
(0.0104601 0.0106239 0.0105474)
(0.0107609 0.0106235 0.0106206)
(0.0105423 0.0105387 0.0105295)
(0.0108626 0.0106442 0.0106648)
(0.0113839 0.0112597 0.0112626)
(0.211303 0.109478 0.111864)
(0.203626 0.119178 0.114624)
(0.213863 0.128784 0.12572)
(0.197055 0.121704 0.118962)
(0.189417 0.117021 0.115005)
(0.181845 0.112605 0.110876)
(0.180636 0.111596 0.109974)
(0.177473 0.109714 0.108109)
(0.174391 0.107683 0.106142)
(0.169382 0.104604 0.103054)
(0.163697 0.101118 0.0995376)
(0.157665 0.0973959 0.0957747)
(0.152042 0.0939354 0.0921865)
(0.148041 0.0914182 0.0895019)
(0.145294 0.0896329 0.0874734)
(0.143698 0.0884569 0.0860868)
(0.142261 0.0873654 0.0847777)
(0.140705 0.0861391 0.0834101)
(0.138318 0.0844307 0.0815914)
(0.134882 0.0820879 0.0792215)
(0.129982 0.0789293 0.0760872)
(0.123803 0.0750646 0.0723052)
(0.116121 0.0703906 0.0677698)
(0.107338 0.0651246 0.0626857)
(0.098138 0.0596699 0.05741)
(0.0891897 0.0544108 0.0523058)
(0.0807317 0.0494758 0.0475036)
(0.0730725 0.0450371 0.0431724)
(0.0666577 0.0413457 0.0395396)
(0.0616095 0.0384588 0.0366705)
(0.0579092 0.0363565 0.0345517)
(0.0555365 0.0350221 0.0331573)
(0.0544763 0.0344426 0.0324657)
(0.0544692 0.0344701 0.0323289)
(0.0552358 0.034957 0.0325974)
(0.0565066 0.0357589 0.0331438)
(0.0579824 0.0367119 0.0338476)
(0.0594871 0.037708 0.0346628)
(0.061014 0.0387199 0.0356335)
(0.0625722 0.0397242 0.0368188)
(0.0642536 0.0407179 0.0382954)
(0.0662305 0.0417195 0.0401516)
(0.068842 0.0428419 0.0425228)
(0.0714571 0.0436425 0.0449619)
(0.0745134 0.0444908 0.0475856)
(0.0782383 0.0456715 0.0504344)
(0.0828559 0.0474736 0.0535207)
(0.0809758 0.0459759 0.0523021)
(0.0574531 0.0332339 0.0376579)
(0.0199892 0.0121258 0.0134973)
(0.00492844 0.00440469 0.00494889)
(0.00426277 0.0043232 0.00469497)
(0.00457541 0.00452797 0.00479319)
(0.00468237 0.00464925 0.00482636)
(0.00484049 0.00474197 0.00487224)
(0.00481657 0.00477681 0.00486345)
(0.00491981 0.00482132 0.00489102)
(0.00485797 0.00482974 0.00487758)
(0.00527085 0.0051757 0.00522171)
(0.00924063 0.00918924 0.00924597)
(0.140836 0.0694271 0.0703355)
(0.100332 0.0586339 0.0563227)
(0.092375 0.0557447 0.0543399)
(0.0761976 0.0473274 0.0460244)
(0.0679786 0.0422601 0.0412284)
(0.0621441 0.038669 0.0377684)
(0.0602739 0.0374568 0.0365616)
(0.0582986 0.0362725 0.0354033)
(0.0564231 0.0351263 0.0342442)
(0.0541748 0.0338008 0.0328889)
(0.0517569 0.0323828 0.0314379)
(0.0495805 0.0311109 0.0301213)
(0.0478502 0.0301095 0.0290727)
(0.0470486 0.029664 0.0285701)
(0.0470939 0.0297098 0.0285581)
(0.0476455 0.0300343 0.0288404)
(0.0483764 0.0304596 0.0292371)
(0.048915 0.0307582 0.0295329)
(0.0490848 0.0308482 0.029638)
(0.0486943 0.0306199 0.0294627)
(0.0476629 0.0300522 0.0289823)
(0.0461173 0.029226 0.0282797)
(0.0440894 0.0281722 0.0273931)
(0.0419208 0.0270833 0.0265138)
(0.0401003 0.0262314 0.0258863)
(0.0389503 0.0257807 0.0256542)
(0.0385159 0.0257336 0.0258154)
(0.0387595 0.0260503 0.0263301)
(0.0396293 0.0266851 0.0271246)
(0.0409724 0.0275448 0.0281008)
(0.0426763 0.0285765 0.0292073)
(0.0447245 0.0297796 0.0304516)
(0.0471522 0.031183 0.0318508)
(0.0500367 0.0328422 0.0334573)
(0.0534803 0.0348254 0.0353318)
(0.057573 0.0371856 0.0375383)
(0.0624294 0.0399822 0.0401734)
(0.0681688 0.0432631 0.0433351)
(0.0749684 0.0470867 0.047126)
(0.0830098 0.0515104 0.0516374)
(0.0924425 0.0565629 0.0569759)
(0.103264 0.0621511 0.0631368)
(0.115309 0.0681337 0.0700625)
(0.128176 0.0742843 0.0774976)
(0.139447 0.0791878 0.0839745)
(0.148286 0.0825107 0.0888241)
(0.155936 0.0853882 0.0925917)
(0.150613 0.0822066 0.0891063)
(0.110969 0.0621387 0.0671072)
(0.0470933 0.0273884 0.0293885)
(0.00899285 0.00532482 0.00573853)
(0.00211007 0.00177386 0.00193989)
(0.00168689 0.00163811 0.00174471)
(0.00167537 0.00164595 0.00171441)
(0.00168887 0.00164659 0.00169355)
(0.00165978 0.00164029 0.00167126)
(0.00167414 0.00163887 0.00166227)
(0.00166853 0.00165741 0.00167394)
(0.00253337 0.00249177 0.00251238)
(0.00843544 0.00838969 0.00843681)
(0.0960186 0.046188 0.0480162)
(0.0523412 0.0304729 0.0295117)
(0.0423324 0.0256336 0.0248851)
(0.0319259 0.0200867 0.0193324)
(0.0272404 0.01725 0.0166054)
(0.0244247 0.0155848 0.0150206)
(0.0237183 0.0152266 0.0146822)
(0.0232096 0.0150452 0.0145445)
(0.0229929 0.0150714 0.014585)
(0.0228877 0.0151995 0.0147505)
(0.0229546 0.0154592 0.0150592)
(0.02338 0.0159351 0.0156012)
(0.024138 0.0166031 0.0163553)
(0.0252826 0.0174864 0.0173251)
(0.0267849 0.0185466 0.0184688)
(0.0285093 0.0197123 0.0197109)
(0.0303786 0.0209446 0.0210287)
(0.0323639 0.0222427 0.0224235)
(0.0344573 0.0236043 0.0239051)
(0.0366993 0.0250666 0.0255219)
(0.0391297 0.0266633 0.0273083)
(0.041847 0.028452 0.0293094)
(0.0448893 0.0304574 0.0315703)
(0.0483283 0.0327099 0.0341395)
(0.0521366 0.0351778 0.0369793)
(0.0562598 0.0378186 0.0400199)
(0.0605743 0.0405527 0.0431605)
(0.0649644 0.0432961 0.046335)
(0.0691205 0.0458481 0.0492992)
(0.0728454 0.0480542 0.0518634)
(0.0761183 0.049892 0.0540196)
(0.0790169 0.0514124 0.0558514)
(0.0817199 0.0527361 0.05745)
(0.0846389 0.0541341 0.0590416)
(0.0882204 0.0559094 0.0608766)
(0.0928786 0.0583323 0.0632117)
(0.0990896 0.0616739 0.0663853)
(0.107156 0.0660632 0.0706659)
(0.117436 0.0716223 0.0762773)
(0.130319 0.0785094 0.0833522)
(0.146315 0.0869414 0.0921107)
(0.165712 0.0969011 0.102578)
(0.188358 0.108159 0.114542)
(0.212567 0.119676 0.126938)
(0.234206 0.1293 0.137426)
(0.247279 0.133912 0.142515)
(0.252438 0.134234 0.142358)
(0.239047 0.126723 0.133233)
(0.180267 0.0980121 0.102142)
(0.0898919 0.0512842 0.0534772)
(0.0210796 0.0120988 0.0127236)
(0.00386941 0.00224554 0.00236187)
(0.000813079 0.000646771 0.000688432)
(0.000548659 0.000529403 0.000553195)
(0.000509554 0.000493742 0.000508496)
(0.000480784 0.00047319 0.000482653)
(0.000471236 0.00046054 0.000467363)
(0.00054843 0.000543595 0.00054923)
(0.00196963 0.0019385 0.00195532)
(0.00829251 0.00824362 0.00829432)
(0.0670955 0.0317925 0.0344996)
(0.0290154 0.0170331 0.0166691)
(0.0216205 0.0136617 0.0131579)
(0.017093 0.0118159 0.0112876)
(0.015705 0.0112014 0.0107427)
(0.0155449 0.0112513 0.0108756)
(0.0166729 0.0121386 0.0118048)
(0.0182033 0.013319 0.0130413)
(0.0201406 0.014781 0.0145421)
(0.0223784 0.0164613 0.0162688)
(0.0249893 0.0184 0.0182858)
(0.0279314 0.0205435 0.0205369)
(0.031219 0.0228774 0.0230277)
(0.034835 0.0254078 0.0257598)
(0.0386764 0.0280131 0.0286015)
(0.042789 0.0307317 0.0315805)
(0.047406 0.0337328 0.0349107)
(0.0527129 0.0371604 0.0387008)
(0.0587588 0.0410456 0.0429689)
(0.0658091 0.045562 0.0478928)
(0.0740621 0.0508622 0.0536726)
(0.0837489 0.0571038 0.0604701)
(0.0950272 0.0644024 0.0684083)
(0.108 0.0728279 0.0776639)
(0.122534 0.0822904 0.088154)
(0.138581 0.0927265 0.0997088)
(0.156056 0.104071 0.112101)
(0.174705 0.11614 0.125246)
(0.192378 0.127548 0.137647)
(0.207474 0.137188 0.148041)
(0.220623 0.145518 0.156824)
(0.229794 0.151106 0.162623)
(0.226788 0.148422 0.159936)
(0.212972 0.1383 0.149801)
(0.194385 0.124651 0.13645)
(0.179805 0.113455 0.125854)
(0.179152 0.11181 0.124443)
(0.185513 0.114886 0.127289)
(0.196669 0.120903 0.132964)
(0.212928 0.129877 0.141624)
(0.23496 0.142125 0.153589)
(0.263084 0.157825 0.16886)
(0.29933 0.177815 0.188232)
(0.342335 0.200158 0.210483)
(0.377759 0.215907 0.226294)
(0.385245 0.213966 0.224076)
(0.372444 0.200865 0.210117)
(0.342532 0.18126 0.187948)
(0.266624 0.142555 0.145546)
(0.147479 0.0820461 0.0836382)
(0.0434657 0.0246718 0.0254857)
(0.00938253 0.00529709 0.00547824)
(0.0016553 0.000946569 0.000981613)
(0.000311582 0.000228113 0.000238306)
(0.00016152 0.000153177 0.000158108)
(0.000138045 0.000134915 0.000137784)
(0.000132093 0.000128782 0.00013067)
(0.000329649 0.00032571 0.000328732)
(0.00192022 0.00188829 0.00190368)
(0.00827578 0.00822022 0.00826688)
(0.0514951 0.0245884 0.0281906)
(0.0205919 0.0138712 0.0136696)
(0.0235627 0.0179061 0.0171659)
(0.0388114 0.0295219 0.0283791)
(0.0353662 0.0273183 0.0263545)
(0.0320745 0.0248233 0.0242238)
(0.033929 0.0259897 0.0255812)
(0.0377592 0.0286499 0.0283649)
(0.0422344 0.0318126 0.0316557)
(0.0475737 0.0356492 0.0356298)
(0.0539739 0.0402916 0.0404525)
(0.0610937 0.0454817 0.0459023)
(0.0685171 0.0508583 0.0516489)
(0.0767461 0.0567812 0.0580919)
(0.0849066 0.062598 0.0645233)
(0.0934459 0.0685507 0.0711923)
(0.104349 0.0760385 0.0794668)
(0.117809 0.0851768 0.0894109)
(0.134315 0.096308 0.101308)
(0.15485 0.110057 0.115866)
(0.18023 0.127009 0.133745)
(0.211289 0.147752 0.155406)
(0.249724 0.173384 0.181756)
(0.296911 0.204745 0.213938)
(0.351673 0.241006 0.251604)
(0.411366 0.280384 0.293264)
(0.475983 0.322785 0.338221)
(0.550055 0.370558 0.388529)
(0.623721 0.417461 0.437873)
(0.681594 0.453839 0.475858)
(0.707237 0.469087 0.491299)
(0.705533 0.466823 0.488272)
(0.674317 0.445784 0.465374)
(0.614739 0.406707 0.423483)
(0.540469 0.357966 0.372066)
(0.467632 0.309666 0.32226)
(0.410248 0.270587 0.283297)
(0.383311 0.251117 0.265027)
(0.379909 0.247196 0.262348)
(0.388469 0.25092 0.266513)
(0.409236 0.262171 0.278465)
(0.438616 0.278634 0.296012)
(0.478167 0.300158 0.318405)
(0.528173 0.325364 0.343727)
(0.563758 0.338291 0.355865)
(0.553052 0.322653 0.340296)
(0.502142 0.282752 0.299432)
(0.445877 0.242356 0.25227)
(0.364756 0.195655 0.197013)
(0.219232 0.119166 0.119444)
(0.0799968 0.0446643 0.0453794)
(0.0205832 0.0115307 0.0117775)
(0.00433734 0.00243118 0.00248942)
(0.000716695 0.000404733 0.00041538)
(0.000109153 7.48487e-05 7.68233e-05)
(5.19327e-05 5.01112e-05 5.09477e-05)
(6.36314e-05 6.21359e-05 6.28727e-05)
(0.00031102 0.000306815 0.000309489)
(0.00191682 0.00188307 0.00189811)
(0.00827679 0.00821416 0.00826023)
(0.0555732 0.0313229 0.0358832)
(0.0536688 0.0398059 0.0392946)
(0.10162 0.0770726 0.0736741)
(0.196452 0.146106 0.138393)
(0.179946 0.135114 0.129119)
(0.138753 0.104472 0.101498)
(0.119878 0.0903357 0.0885141)
(0.128109 0.0957701 0.0942981)
(0.140738 0.10435 0.103018)
(0.156479 0.115233 0.113823)
(0.176709 0.129523 0.128062)
(0.200935 0.146937 0.145514)
(0.227622 0.16638 0.164909)
(0.260478 0.190269 0.188989)
(0.298426 0.217483 0.216511)
(0.311656 0.227077 0.227412)
(0.332742 0.241872 0.244141)
(0.36202 0.26192 0.266776)
(0.388337 0.27927 0.286853)
(0.417914 0.298397 0.308475)
(0.469873 0.332763 0.345075)
(0.537538 0.378025 0.392733)
(0.616758 0.431719 0.448553)
(0.718121 0.501147 0.518967)
(0.84331 0.586955 0.603814)
(0.965693 0.668841 0.683722)
(1.06322 0.734317 0.748541)
(1.16147 0.799083 0.813183)
(1.25165 0.855306 0.869599)
(1.31152 0.888162 0.903311)
(1.34292 0.90136 0.917507)
(1.34805 0.898157 0.916032)
(1.31841 0.873939 0.893758)
(1.24387 0.823913 0.84416)
(1.13064 0.751516 0.770958)
(0.997721 0.667963 0.686711)
(0.861792 0.582298 0.60072)
(0.739144 0.503389 0.521171)
(0.648029 0.44275 0.458689)
(0.598381 0.408727 0.420391)
(0.583542 0.397801 0.403847)
(0.582222 0.394652 0.398511)
(0.591771 0.398545 0.404495)
(0.613132 0.407127 0.415868)
(0.629634 0.409494 0.419363)
(0.611067 0.386301 0.398303)
(0.558958 0.33931 0.351906)
(0.49681 0.285938 0.295381)
(0.432927 0.236173 0.239906)
(0.304239 0.163669 0.164024)
(0.135156 0.0740271 0.0743808)
(0.0403119 0.0223358 0.0225722)
(0.00942955 0.00524349 0.00531821)
(0.00171283 0.000954988 0.000971299)
(0.000249417 0.000143203 0.000145931)
(5.10915e-05 4.44038e-05 4.50023e-05)
(5.89078e-05 5.74049e-05 5.80068e-05)
(0.000309577 0.000304867 0.000307429)
(0.00191524 0.00187902 0.0018938)
(0.0082776 0.0082056 0.00825162)
(0.153783 0.108116 0.116804)
(0.237328 0.169556 0.16859)
(0.491361 0.357002 0.341003)
(0.776758 0.554767 0.531729)
(0.804791 0.579751 0.557386)
(0.614159 0.446471 0.431257)
(0.499859 0.367351 0.355625)
(0.536876 0.391258 0.379144)
(0.597245 0.430442 0.418344)
(0.668712 0.476768 0.464613)
(0.75983 0.536218 0.523876)
(0.870898 0.610319 0.597651)
(0.991174 0.692713 0.6789)
(1.12549 0.783647 0.768302)
(1.15207 0.801886 0.785635)
(1.09232 0.767296 0.753777)
(1.06758 0.758815 0.749097)
(1.11222 0.794886 0.789021)
(1.1598 0.830426 0.827379)
(1.20928 0.866013 0.863832)
(1.28349 0.916906 0.913133)
(1.38194 0.982561 0.976658)
(1.48547 1.05088 1.04425)
(1.58855 1.11794 1.11217)
(1.69666 1.18699 1.18266)
(1.80202 1.25221 1.24717)
(1.88113 1.29903 1.29151)
(1.92164 1.32074 1.31102)
(1.93313 1.32298 1.31146)
(1.92979 1.31416 1.30026)
(1.91037 1.2938 1.27725)
(1.87409 1.26265 1.24327)
(1.82247 1.22222 1.20112)
(1.74859 1.17006 1.14911)
(1.64607 1.10325 1.08458)
(1.51899 1.02301 1.00786)
(1.37779 0.935278 0.923574)
(1.23008 0.84446 0.835666)
(1.08316 0.753585 0.746365)
(0.944039 0.664476 0.657172)
(0.834737 0.590768 0.580465)
(0.771056 0.545378 0.532664)
(0.727131 0.515375 0.504448)
(0.671812 0.479445 0.471819)
(0.619514 0.437333 0.431783)
(0.574226 0.393865 0.388285)
(0.525616 0.345461 0.340254)
(0.478468 0.295343 0.292769)
(0.435917 0.248476 0.250771)
(0.340605 0.18443 0.18759)
(0.18303 0.0990583 0.099935)
(0.0642492 0.035117 0.0354361)
(0.0169021 0.00929441 0.0093968)
(0.00341145 0.00188299 0.00190801)
(0.000539755 0.000300573 0.000305156)
(7.97046e-05 5.56468e-05 5.63632e-05)
(5.90479e-05 5.71947e-05 5.76817e-05)
(0.000308728 0.000303558 0.000305717)
(0.00191334 0.00187497 0.00188772)
(0.00827705 0.00819734 0.00823682)
(0.239349 0.192407 0.153954)
(0.304903 0.199416 0.199242)
(0.482935 0.328811 0.329263)
(0.650991 0.451969 0.452418)
(0.776524 0.541048 0.540884)
(0.934015 0.649871 0.647726)
(1.05655 0.735672 0.735269)
(1.21294 0.842549 0.8378)
(1.35576 0.939569 0.930011)
(1.47888 1.02394 1.01189)
(1.61581 1.11505 1.10096)
(1.78788 1.22462 1.2061)
(1.94496 1.32109 1.29759)
(2.058 1.38789 1.36141)
(2.12282 1.42514 1.39367)
(2.11605 1.42364 1.38668)
(2.04797 1.38949 1.35332)
(1.97628 1.35605 1.32676)
(1.93006 1.34015 1.31744)
(1.89944 1.33412 1.31289)
(1.87493 1.32962 1.30457)
(1.86307 1.32874 1.29759)
(1.8607 1.33059 1.29453)
(1.86178 1.33238 1.29376)
(1.86633 1.33363 1.29274)
(1.87507 1.33509 1.29097)
(1.88295 1.33339 1.28535)
(1.88323 1.32428 1.27337)
(1.87061 1.30665 1.25508)
(1.84512 1.28182 1.23142)
(1.8104 1.25178 1.20319)
(1.7679 1.21686 1.16903)
(1.71741 1.17664 1.12802)
(1.65555 1.12942 1.07927)
(1.57709 1.07388 1.02322)
(1.48568 1.01377 0.964167)
(1.39161 0.955151 0.906988)
(1.30199 0.902038 0.853546)
(1.21858 0.856248 0.806712)
(1.13383 0.812178 0.762142)
(1.03142 0.754338 0.705926)
(0.91741 0.683296 0.639647)
(0.825892 0.617124 0.580352)
(0.753388 0.554349 0.527555)
(0.672015 0.483385 0.465866)
(0.586118 0.409954 0.397652)
(0.510281 0.343438 0.334788)
(0.455276 0.287733 0.284958)
(0.420307 0.242567 0.248818)
(0.348423 0.186945 0.19733)
(0.214655 0.114496 0.119153)
(0.0900901 0.0484336 0.0498996)
(0.0274173 0.0148379 0.0152323)
(0.00621819 0.00337946 0.00346785)
(0.00108053 0.000590122 0.000605863)
(0.00015262 9.00832e-05 9.22028e-05)
(6.06865e-05 5.7562e-05 5.80135e-05)
(0.000308163 0.000302603 0.000304496)
(0.00191175 0.00187145 0.00188291)
(0.00827407 0.00818891 0.00822246)
(0.232896 0.193233 0.16085)
(0.303747 0.190954 0.199003)
(0.48575 0.329222 0.33908)
(0.646733 0.454794 0.467303)
(0.816296 0.581676 0.601869)
(0.928379 0.663715 0.679607)
(0.998473 0.715884 0.725929)
(1.05251 0.757984 0.762599)
(1.10837 0.800211 0.800437)
(1.1821 0.850069 0.84369)
(1.27579 0.908747 0.895614)
(1.38329 0.973541 0.956202)
(1.50125 1.04386 1.02507)
(1.61643 1.11212 1.09287)
(1.73 1.17946 1.16026)
(1.82688 1.23652 1.21231)
(1.9103 1.28806 1.2524)
(1.98618 1.34317 1.29518)
(2.04281 1.39653 1.34169)
(2.03544 1.41738 1.36166)
(1.9706 1.40252 1.34936)
(1.89377 1.37241 1.32069)
(1.83612 1.34637 1.29391)
(1.80647 1.33383 1.27971)
(1.7965 1.32923 1.27283)
(1.79494 1.32397 1.2644)
(1.79847 1.31575 1.25444)
(1.80345 1.30513 1.24468)
(1.79852 1.28906 1.23173)
(1.77464 1.26332 1.21076)
(1.73344 1.22765 1.18096)
(1.6782 1.18254 1.14289)
(1.60852 1.12768 1.09555)
(1.52726 1.06535 1.03972)
(1.44026 0.999832 0.977152)
(1.34782 0.932718 0.908966)
(1.23818 0.859015 0.831593)
(1.09855 0.772593 0.740708)
(0.94133 0.681651 0.646557)
(0.790475 0.599322 0.563409)
(0.679751 0.540368 0.503206)
(0.604667 0.494669 0.454642)
(0.543451 0.44415 0.405567)
(0.49683 0.390826 0.35768)
(0.467726 0.344731 0.320883)
(0.440189 0.305132 0.29281)
(0.412298 0.271082 0.266411)
(0.398604 0.245007 0.246851)
(0.393465 0.223443 0.232385)
(0.338991 0.181604 0.192741)
(0.213729 0.114829 0.118784)
(0.0927065 0.050275 0.0510652)
(0.029169 0.0159242 0.0160644)
(0.00679729 0.00372636 0.00375287)
(0.00120299 0.000662427 0.000667279)
(0.000170163 9.97286e-05 0.000100507)
(6.1219e-05 5.7733e-05 5.81284e-05)
(0.000308233 0.000302708 0.000304501)
(0.00191181 0.00187174 0.00188325)
(0.00827287 0.00819035 0.00822288)
(0.200824 0.160918 0.144565)
(0.255858 0.158882 0.175962)
(0.595174 0.425048 0.452856)
(0.960917 0.673132 0.705811)
(1.18992 0.831616 0.860296)
(1.3903 0.971725 0.986245)
(1.5371 1.08574 1.07684)
(1.64467 1.17846 1.14813)
(1.73556 1.25707 1.21396)
(1.8307 1.32799 1.27997)
(1.93473 1.39181 1.3469)
(2.07996 1.47467 1.43722)
(2.2573 1.5766 1.54979)
(2.4391 1.68151 1.66479)
(2.5947 1.7692 1.76192)
(2.73404 1.8469 1.84329)
(2.8892 1.93545 1.92188)
(3.06722 2.03993 2.00186)
(3.18465 2.11982 2.05588)
(3.15256 2.1365 2.05643)
(2.99879 2.09626 2.00953)
(2.85272 2.05023 1.95991)
(2.7676 2.02652 1.93255)
(2.74633 2.03026 1.93305)
(2.76858 2.04995 1.95451)
(2.80901 2.0701 1.9826)
(2.85913 2.08436 2.00788)
(2.90483 2.08849 2.02197)
(2.92298 2.07614 2.01582)
(2.90765 2.04682 1.99056)
(2.85843 1.99897 1.94794)
(2.77611 1.93127 1.88926)
(2.66673 1.84593 1.81672)
(2.53221 1.74343 1.72445)
(2.37378 1.62378 1.60605)
(2.19158 1.48761 1.45776)
(1.97471 1.33581 1.28581)
(1.68165 1.15248 1.08734)
(1.34043 0.953008 0.881458)
(1.03211 0.78032 0.707047)
(0.797626 0.646705 0.575435)
(0.656107 0.554149 0.486666)
(0.587685 0.490986 0.432654)
(0.548832 0.435977 0.394904)
(0.515558 0.384272 0.361079)
(0.481007 0.342722 0.332071)
(0.444757 0.306694 0.302609)
(0.419995 0.275667 0.274726)
(0.407022 0.249566 0.249157)
(0.355546 0.205111 0.204035)
(0.231357 0.129891 0.128391)
(0.102477 0.0572074 0.0563419)
(0.0324903 0.0181383 0.0178725)
(0.0075878 0.00423942 0.00418682)
(0.00133975 0.000750108 0.000742839)
(0.00018731 0.000110111 0.000109494)
(6.1703e-05 5.79162e-05 5.82219e-05)
(0.000308166 0.000302766 0.000304341)
(0.00191089 0.00187171 0.00188224)
(0.00826698 0.00818765 0.0082173)
(0.190324 0.121387 0.158441)
(0.314514 0.216889 0.245941)
(0.676094 0.485866 0.492368)
(1.15353 0.787686 0.781897)
(1.40038 0.967582 0.962568)
(1.62852 1.13285 1.11233)
(1.76133 1.2487 1.19541)
(1.90268 1.37658 1.28971)
(2.13212 1.55446 1.45308)
(2.44129 1.77152 1.67231)
(2.78005 1.9984 1.91074)
(3.11247 2.20801 2.13994)
(3.41203 2.38546 2.34177)
(3.65606 2.52217 2.5053)
(3.80334 2.5952 2.60631)
(3.87968 2.62292 2.65861)
(3.9288 2.63248 2.68563)
(3.95088 2.62852 2.68617)
(3.89681 2.59963 2.63345)
(3.73093 2.53911 2.51256)
(3.46878 2.43562 2.33505)
(3.20503 2.31333 2.16937)
(3.08213 2.26049 2.10287)
(3.10118 2.28473 2.12041)
(3.21754 2.35717 2.18856)
(3.37737 2.44509 2.28493)
(3.52385 2.51804 2.37983)
(3.61716 2.55673 2.44247)
(3.64702 2.55727 2.4602)
(3.62317 2.52421 2.4379)
(3.56042 2.46651 2.39005)
(3.47305 2.3918 2.32803)
(3.36978 2.30566 2.25899)
(3.22609 2.19522 2.16568)
(3.03392 2.05566 2.03504)
(2.78006 1.88098 1.85581)
(2.44137 1.66636 1.62104)
(2.03168 1.42117 1.3461)
(1.59434 1.16342 1.05823)
(1.18047 0.912977 0.791221)
(0.878762 0.720073 0.603387)
(0.733091 0.613516 0.513517)
(0.708636 0.570602 0.494572)
(0.718801 0.543639 0.497093)
(0.694838 0.507013 0.482601)
(0.657368 0.473248 0.458635)
(0.604401 0.428564 0.421423)
(0.540044 0.371905 0.369634)
(0.479808 0.3116 0.310576)
(0.402434 0.245083 0.239831)
(0.262121 0.153574 0.147731)
(0.111827 0.0648932 0.0621167)
(0.0327264 0.0189503 0.0181666)
(0.00709213 0.00410282 0.00394805)
(0.00117433 0.000679916 0.000657057)
(0.00015687 9.65022e-05 9.41379e-05)
(6.04891e-05 5.76811e-05 5.78215e-05)
(0.000308286 0.000303535 0.000304474)
(0.00191013 0.00187465 0.00188198)
(0.00826093 0.00819499 0.00821077)
(0.224779 0.135718 0.188419)
(0.381812 0.267311 0.280932)
(0.71986 0.514057 0.491531)
(1.17103 0.791127 0.774375)
(1.41366 0.961088 0.940322)
(1.65342 1.14016 1.12554)
(1.8247 1.29379 1.2618)
(2.02837 1.46897 1.40054)
(2.25906 1.65175 1.56937)
(2.54802 1.85794 1.77754)
(2.88591 2.08711 2.01373)
(3.23545 2.31051 2.25393)
(3.55255 2.49935 2.46753)
(3.81166 2.64228 2.63713)
(3.98538 2.72728 2.74783)
(4.07081 2.75461 2.79953)
(4.10288 2.74779 2.81144)
(4.0749 2.70855 2.77659)
(3.96524 2.64105 2.68428)
(3.7694 2.55632 2.53765)
(3.50019 2.44683 2.35571)
(3.23185 2.32207 2.19231)
(3.10775 2.27019 2.13349)
(3.12565 2.29636 2.15248)
(3.22436 2.35746 2.19692)
(3.32978 2.40854 2.24124)
(3.42844 2.45036 2.29938)
(3.49873 2.47643 2.35116)
(3.51802 2.47311 2.36883)
(3.49904 2.44461 2.35418)
(3.45725 2.39916 2.31972)
(3.3916 2.33657 2.26725)
(3.28763 2.24828 2.18694)
(3.12046 2.12461 2.07023)
(2.88479 1.96669 1.91554)
(2.59695 1.78337 1.72728)
(2.256 1.57276 1.49948)
(1.86305 1.33233 1.23133)
(1.46024 1.08449 0.958385)
(1.09933 0.858613 0.723826)
(0.843992 0.693851 0.567992)
(0.734804 0.613746 0.506897)
(0.768544 0.616881 0.535458)
(0.841634 0.641649 0.591805)
(0.829878 0.616882 0.590997)
(0.762323 0.558472 0.544884)
(0.675837 0.484714 0.480136)
(0.582826 0.404227 0.405108)
(0.50172 0.327991 0.329021)
(0.411984 0.253242 0.247495)
(0.266282 0.157079 0.151136)
(0.112228 0.0654464 0.0627117)
(0.0326441 0.0189726 0.0182051)
(0.00705292 0.00409206 0.00394077)
(0.00116629 0.000676892 0.000654568)
(0.000155818 9.60874e-05 9.37832e-05)
(6.04509e-05 5.76596e-05 5.78131e-05)
(0.000308223 0.000303445 0.000304448)
(0.00190971 0.00187407 0.00188189)
(0.00825929 0.00819253 0.00820997)
(0.208702 0.159454 0.171904)
(0.374695 0.242121 0.281289)
(0.759644 0.548393 0.554893)
(1.10946 0.75967 0.737101)
(1.44223 0.960062 0.909767)
(1.74388 1.15288 1.09404)
(1.90595 1.29168 1.23286)
(1.99516 1.39941 1.342)
(2.06407 1.47638 1.42365)
(2.13224 1.54427 1.49768)
(2.23121 1.62313 1.58624)
(2.37311 1.71674 1.68689)
(2.538 1.81062 1.78547)
(2.69672 1.89312 1.87226)
(2.83675 1.96128 1.94267)
(2.95523 2.01412 1.99436)
(3.06432 2.06058 2.03216)
(3.16092 2.10322 2.05903)
(3.18113 2.11513 2.05522)
(3.0526 2.0611 1.98911)
(2.82284 1.95751 1.87952)
(2.62035 1.86142 1.78173)
(2.48287 1.79328 1.71168)
(2.41768 1.76556 1.6769)
(2.43013 1.78313 1.68501)
(2.48591 1.8194 1.71422)
(2.54318 1.847 1.74515)
(2.59265 1.86271 1.77019)
(2.62167 1.86343 1.77984)
(2.61763 1.84538 1.76862)
(2.58146 1.80813 1.73768)
(2.5188 1.75346 1.68771)
(2.42774 1.67864 1.61266)
(2.30763 1.58261 1.51086)
(2.1602 1.47204 1.39332)
(1.96803 1.34304 1.25824)
(1.7289 1.1947 1.10415)
(1.4546 1.03011 0.933481)
(1.16942 0.859953 0.760083)
(0.913693 0.705945 0.60917)
(0.723178 0.586457 0.500763)
(0.623478 0.515908 0.448184)
(0.605851 0.489497 0.442719)
(0.604922 0.472849 0.446997)
(0.570228 0.435346 0.424587)
(0.520676 0.387606 0.384281)
(0.476192 0.340143 0.340099)
(0.448858 0.300199 0.300965)
(0.433628 0.268414 0.266514)
(0.365261 0.212949 0.209105)
(0.223206 0.126079 0.124407)
(0.0957338 0.0536302 0.0529516)
(0.0298924 0.0167182 0.016529)
(0.00693365 0.00387694 0.00384282)
(0.00121991 0.000683222 0.000679103)
(0.000171007 0.000101438 0.000101202)
(6.11452e-05 5.77786e-05 5.80812e-05)
(0.000308196 0.000303014 0.000304527)
(0.00191051 0.0018728 0.00188308)
(0.00826593 0.00819129 0.00821918)
(0.207399 0.192684 0.172422)
(0.295891 0.202965 0.229524)
(0.567778 0.390118 0.389603)
(0.876976 0.580471 0.541938)
(1.26719 0.828228 0.751711)
(1.79054 1.157 1.05178)
(2.05522 1.3438 1.26354)
(2.03499 1.37868 1.35019)
(2.0404 1.40629 1.39763)
(2.08342 1.4439 1.43752)
(2.1641 1.50222 1.48916)
(2.26117 1.56788 1.54423)
(2.3624 1.63064 1.59966)
(2.44789 1.67821 1.64495)
(2.51746 1.71384 1.67989)
(2.56509 1.73729 1.70022)
(2.5788 1.74227 1.69992)
(2.54154 1.7197 1.67325)
(2.44115 1.66309 1.6134)
(2.31077 1.59178 1.53688)
(2.20234 1.53109 1.46747)
(2.13505 1.49071 1.41697)
(2.09757 1.46879 1.3832)
(2.05993 1.45024 1.35534)
(2.01842 1.43108 1.33634)
(2.00311 1.42621 1.3377)
(2.00537 1.42387 1.34105)
(2.0041 1.4137 1.33325)
(1.98838 1.39289 1.31366)
(1.962 1.36515 1.28968)
(1.91768 1.3261 1.25753)
(1.84291 1.26847 1.20706)
(1.73571 1.1936 1.13642)
(1.60227 1.10556 1.04867)
(1.45853 1.0122 0.952107)
(1.31149 0.918647 0.853016)
(1.1576 0.823518 0.751634)
(0.997242 0.726471 0.649544)
(0.835109 0.629294 0.551124)
(0.68632 0.538751 0.465319)
(0.569298 0.462737 0.399309)
(0.493313 0.405857 0.357034)
(0.45778 0.368082 0.335743)
(0.440391 0.338724 0.320497)
(0.424124 0.311366 0.302884)
(0.41033 0.287016 0.284979)
(0.401181 0.265123 0.266773)
(0.402746 0.247665 0.251015)
(0.399968 0.228745 0.233949)
(0.32062 0.1747 0.180725)
(0.179752 0.0974025 0.10065)
(0.0739137 0.0402081 0.0411857)
(0.0226202 0.0123513 0.0125938)
(0.00519462 0.00284457 0.00289672)
(0.000909081 0.000500143 0.000509321)
(0.000130184 7.92393e-05 8.04496e-05)
(6.00348e-05 5.74431e-05 5.77997e-05)
(0.00030832 0.000303187 0.000304762)
(0.00191147 0.0018742 0.00188455)
(0.00827302 0.00819861 0.00822551)
(0.199878 0.178621 0.145533)
(0.344726 0.235381 0.221855)
(0.737267 0.481074 0.452262)
(1.00597 0.661887 0.612503)
(1.17485 0.778798 0.729199)
(1.37493 0.912696 0.88181)
(1.43105 0.962296 0.964593)
(1.53847 1.04799 1.05744)
(1.64665 1.12874 1.13254)
(1.76787 1.2149 1.21291)
(1.91468 1.31723 1.30827)
(2.05246 1.41331 1.40201)
(2.17053 1.49198 1.48164)
(2.26682 1.55078 1.53817)
(2.32297 1.58247 1.5651)
(2.33505 1.58887 1.56729)
(2.30884 1.57431 1.55182)
(2.25558 1.54513 1.52206)
(2.19501 1.51123 1.48207)
(2.13342 1.4756 1.43545)
(2.08203 1.44352 1.38788)
(2.05067 1.42109 1.35011)
(2.01254 1.39449 1.31478)
(1.95538 1.35799 1.27876)
(1.89036 1.3175 1.24654)
(1.83172 1.27889 1.21889)
(1.78759 1.24429 1.19094)
(1.74701 1.2097 1.15984)
(1.69154 1.167 1.12197)
(1.62128 1.1158 1.07766)
(1.54449 1.06027 1.02925)
(1.46513 1.00417 0.978179)
(1.38238 0.94831 0.924331)
(1.29319 0.891352 0.865708)
(1.19707 0.831833 0.800126)
(1.09604 0.770826 0.729462)
(0.993004 0.709689 0.659168)
(0.888749 0.648683 0.593231)
(0.787171 0.588473 0.535842)
(0.696059 0.531297 0.491623)
(0.619393 0.476948 0.458285)
(0.576414 0.436023 0.439979)
(0.576664 0.416153 0.438621)
(0.574527 0.399887 0.429309)
(0.536582 0.368354 0.394194)
(0.484528 0.328324 0.34775)
(0.440972 0.289521 0.302811)
(0.418558 0.259094 0.267424)
(0.406274 0.233503 0.241042)
(0.325651 0.177049 0.184517)
(0.180122 0.0972452 0.100792)
(0.0712216 0.0386402 0.039793)
(0.0209332 0.0114021 0.0117171)
(0.00466229 0.00254663 0.00261671)
(0.000799852 0.000439181 0.000451441)
(0.000115217 7.1735e-05 7.32866e-05)
(5.96839e-05 5.73089e-05 5.77022e-05)
(0.000308199 0.000302916 0.000304612)
(0.00191139 0.00187324 0.00188363)
(0.0082746 0.00819498 0.00822421)
(0.126051 0.0998052 0.0957866)
(0.155989 0.110987 0.108822)
(0.29127 0.205645 0.198405)
(0.496872 0.343013 0.332228)
(0.581603 0.400345 0.398717)
(0.61278 0.422933 0.429953)
(0.537123 0.377793 0.384662)
(0.492717 0.353634 0.353517)
(0.497679 0.36108 0.356566)
(0.562616 0.407431 0.399891)
(0.643957 0.464434 0.455585)
(0.743492 0.533399 0.524222)
(0.859727 0.613312 0.604142)
(0.993046 0.704754 0.695013)
(1.14307 0.808049 0.797427)
(1.24418 0.87795 0.867583)
(1.26896 0.897012 0.887448)
(1.25955 0.892568 0.882941)
(1.22564 0.869073 0.85997)
(1.21315 0.858388 0.851916)
(1.25433 0.882553 0.879402)
(1.30932 0.914947 0.914763)
(1.33947 0.931616 0.934184)
(1.36437 0.945698 0.951255)
(1.40653 0.970969 0.979352)
(1.47703 1.01235 1.02372)
(1.55493 1.05796 1.07262)
(1.60015 1.08412 1.10355)
(1.60467 1.08429 1.10884)