/*--------------------------------*- C++ -*----------------------------------*\
| =========                 |                                                 |
| \\      /  F ield         | OpenFOAM: The Open Source CFD Toolbox           |
|  \\    /   O peration     | Version:  2.1.1                                 |
|   \\  /    A nd           | Web:      www.OpenFOAM.org                      |
|    \\/     M anipulation  |                                                 |
\*---------------------------------------------------------------------------*/
FoamFile
{
    version     2.0;
    format      ascii;
    class       volVectorField;
    location    "0.0011";
    object      fluctuation1;
}
// * * * * * * * * * * * * * * * * * * * * * * * * * * * * * * * * * * * * * //

dimensions      [0 1 -1 0 0 0 0];

internalField   nonuniform List<vector> 
36520
(
(-1.53166e-05 5.58404e-06 4.35103e-05)
(-1.98446e-05 1.18293e-05 6.08981e-05)
(3.0185e-06 2.24156e-05 9.78868e-05)
(3.62612e-06 3.1191e-05 0.00012512)
(4.52398e-06 4.25592e-05 0.000159035)
(4.94369e-06 5.28341e-05 0.000182626)
(5.22404e-06 6.34885e-05 0.000204639)
(5.16336e-06 7.36716e-05 0.000219129)
(4.80447e-06 8.31648e-05 0.000231778)
(4.41735e-06 9.0866e-05 0.00024199)
(4.30525e-06 9.77421e-05 0.000253162)
(4.5955e-06 0.000103654 0.000265487)
(5.32727e-06 0.00010984 0.000279766)
(6.30268e-06 0.000116291 0.000294617)
(7.55577e-06 0.000123466 0.0003111)
(9.27324e-06 0.000131793 0.00033211)
(1.18658e-05 0.000142392 0.000359881)
(1.57199e-05 0.000157372 0.000399385)
(2.10217e-05 0.000178711 0.000451093)
(2.77393e-05 0.000208406 0.00051701)
(3.55212e-05 0.000246921 0.000593813)
(4.38024e-05 0.000293897 0.000678328)
(5.1487e-05 0.000347088 0.000762071)
(5.71697e-05 0.000403035 0.000834983)
(5.93067e-05 0.000456738 0.000882762)
(5.66904e-05 0.000502947 0.000894218)
(4.89075e-05 0.000535436 0.00085992)
(3.70852e-05 0.000549173 0.000777412)
(2.42327e-05 0.000541239 0.000649539)
(1.48645e-05 0.00051377 0.000490042)
(1.38628e-05 0.000475613 0.000321337)
(2.49002e-05 0.000443605 0.000169929)
(4.84808e-05 0.000438538 5.67778e-05)
(8.06758e-05 0.000476611 -1.5713e-05)
(0.000114031 0.000560907 -6.55885e-05)
(0.000141414 0.000680527 -0.000115104)
(0.000157927 0.000818702 -0.000174569)
(0.000159935 0.000957829 -0.000239282)
(0.000143067 0.00107836 -0.000297442)
(0.000102196 0.00114857 -0.000340403)
(4.02424e-05 0.00112631 -0.000366449)
(-1.83046e-05 0.00100036 -0.000380211)
(-4.14723e-05 0.000826514 -0.000354831)
(-4.58866e-05 0.00067193 -0.000349244)
(-8.61332e-05 0.00049072 -0.000323171)
(-0.000194684 0.000201964 -0.000825816)
(-0.000103684 -0.000615264 -0.00597943)
(3.14698e-05 -0.000820525 -0.00849869)
(2.51537e-06 8.08184e-06 6.46385e-05)
(-1.67279e-05 1.62001e-05 5.08719e-05)
(-1.23169e-06 2.77549e-07 1.07535e-06)
(-3.11284e-08 9.17108e-09 4.29638e-08)
(-7.20516e-10 1.04624e-10 5.25928e-10)
(-5.82947e-12 9.55108e-13 4.58257e-12)
(-3.86265e-14 8.24569e-15 3.30839e-14)
(-2.15844e-16 5.86503e-17 2.08573e-16)
(-1.17927e-18 2.98267e-19 9.71271e-19)
(-4.95907e-21 1.00154e-21 2.93292e-21)
(-1.46174e-23 2.08307e-24 5.63804e-24)
(-2.70932e-26 2.15901e-27 5.29953e-27)
(-8.05652e-06 4.31601e-05 9.12843e-05)
(-5.52622e-07 7.19226e-05 0.000105007)
(1.53865e-05 0.000104058 0.000135085)
(1.5905e-05 0.000124903 0.000143438)
(1.48001e-05 0.00014308 0.000152457)
(1.18925e-05 0.000154227 0.00014914)
(9.83355e-06 0.000166173 0.000146935)
(8.01846e-06 0.000173378 0.000136798)
(7.35298e-06 0.000179462 0.000126049)
(7.49825e-06 0.0001831 0.000112723)
(8.53433e-06 0.00018771 0.000100313)
(9.85972e-06 0.00019206 8.82919e-05)
(1.12318e-05 0.000198426 7.75291e-05)
(1.26796e-05 0.000207031 6.83225e-05)
(1.52093e-05 0.000219158 6.11526e-05)
(1.93585e-05 0.000236821 5.70515e-05)
(2.58442e-05 0.000262635 5.60144e-05)
(3.45748e-05 0.000299482 5.80503e-05)
(4.49796e-05 0.00034811 6.17183e-05)
(5.60473e-05 0.000408161 6.5711e-05)
(6.61251e-05 0.000476135 6.87803e-05)
(7.35027e-05 0.000548198 7.00884e-05)
(7.56427e-05 0.00061662 6.81676e-05)
(7.05493e-05 0.000674183 6.20728e-05)
(5.77936e-05 0.000715573 5.11914e-05)
(3.8478e-05 0.000737994 3.573e-05)
(1.46322e-05 0.000737516 1.9392e-05)
(-1.07995e-05 0.00071151 -5.78346e-06)
(-3.39418e-05 0.000664939 -3.10207e-05)
(-5.01105e-05 0.000604438 -5.28583e-05)
(-5.51903e-05 0.000542268 -6.79282e-05)
(-4.70769e-05 0.000500622 -7.35418e-05)
(-2.83937e-05 0.000495705 -7.80551e-05)
(-7.22542e-06 0.000527074 -9.05356e-05)
(7.52249e-06 0.000575342 -0.000112643)
(1.28986e-05 0.000610635 -0.000144556)
(1.27552e-05 0.000619244 -0.000185436)
(1.23822e-05 0.000616219 -0.00023372)
(1.16769e-05 0.000624049 -0.000286709)
(3.16436e-06 0.000624356 -0.000338219)
(-2.14111e-05 0.000560161 -0.000377798)
(-3.65877e-05 0.00040902 -0.000395494)
(-3.35228e-05 -0.00300685 -0.016409)
(-1.03281e-05 -0.00723949 -0.0384854)
(-2.14693e-05 -0.00823211 -0.0452541)
(-8.92028e-05 -0.00882995 -0.0489462)
(-0.000100519 -0.00972808 -0.0520494)
(5.47833e-05 -0.0100738 -0.0506965)
(0.0003334 -0.00770765 -0.0355337)
(-5.45522e-05 0.00017168 0.000383384)
(-9.29832e-06 1.31952e-06 3.08341e-06)
(-1.93097e-07 8.25361e-08 2.23796e-07)
(-8.53353e-09 1.60805e-09 4.44127e-09)
(-1.08923e-10 2.18752e-11 5.50097e-11)
(-1.003e-12 2.46664e-13 5.18908e-13)
(-7.20179e-15 2.02811e-15 3.75415e-15)
(-4.69134e-17 1.13453e-17 1.84213e-17)
(-2.14036e-19 4.1463e-20 5.81408e-20)
(-7.06787e-22 9.88245e-23 1.20588e-22)
(-2.34787e-24 1.81225e-25 1.92235e-25)
(-5.25035e-07 8.34242e-05 7.96474e-05)
(7.73835e-06 9.70122e-05 5.36407e-05)
(1.37589e-05 0.000120895 4.90795e-05)
(1.00339e-05 0.000124087 3.66192e-05)
(5.3856e-06 0.000121207 2.62153e-05)
(1.11171e-06 0.000114509 1.53423e-05)
(-1.51918e-06 0.000112284 7.30205e-06)
(-3.40447e-06 0.000107202 -6.17903e-07)
(-3.95305e-06 0.000103387 -8.25524e-06)
(-4.02767e-06 9.96028e-05 -1.58371e-05)
(-3.63961e-06 9.74895e-05 -2.37934e-05)
(-3.30831e-06 9.6894e-05 -3.10838e-05)
(-2.90568e-06 9.92499e-05 -3.54364e-05)
(-2.36179e-06 0.000104943 -3.76233e-05)
(-1.26281e-06 0.000113685 -4.09311e-05)
(4.05326e-07 0.000125785 -4.55443e-05)
(2.49437e-06 0.000141625 -5.17592e-05)
(4.62022e-06 0.000161046 -5.99509e-05)
(6.40153e-06 0.000182949 -7.02379e-05)
(7.78408e-06 0.000205369 -8.26605e-05)
(8.7302e-06 0.000225096 -9.67034e-05)
(8.99254e-06 0.000240888 -0.000112032)
(8.22422e-06 0.000251568 -0.000127644)
(6.20846e-06 0.000258417 -0.000142975)
(2.89296e-06 0.000263322 -0.00015761)
(-4.82752e-07 0.000265326 -0.00017075)
(-7.17229e-06 -6.54041e-05 -0.00135051)
(-1.19614e-05 -0.00167255 -0.00707245)
(-1.24351e-05 -0.00277469 -0.0110887)
(-1.02026e-05 -0.00369872 -0.0144959)
(-5.77573e-06 -0.00442201 -0.0171876)
(-1.75178e-06 -0.00499976 -0.019365)
(-4.11351e-07 -0.00546453 -0.0211446)
(-4.45656e-07 -0.00585437 -0.0226649)
(-4.80232e-07 -0.00621789 -0.0240991)
(-5.20639e-07 -0.00664505 -0.0257603)
(-5.80168e-07 -0.00734416 -0.0283606)
(-6.68797e-07 -0.00845159 -0.0323884)
(-7.93539e-07 -0.0100258 -0.0381096)
(-9.53165e-07 -0.0119837 -0.0452424)
(-1.12324e-06 -0.0140529 -0.0528692)
(-0.000410239 -0.0159455 -0.0601512)
(-0.00153311 -0.0176389 -0.0673632)
(-0.00255363 -0.0217999 -0.0739554)
(-0.00315719 -0.0273938 -0.0787174)
(-0.00249717 -0.0336773 -0.0810478)
(-0.000910145 -0.0398759 -0.0818527)
(0.00221798 -0.0501919 -0.0705295)
(0.00579425 -0.0507691 -0.038452)
(0.0229917 -0.0216981 -0.00795814)
(-0.000125336 1.08952e-05 1.44993e-05)
(-6.3543e-07 3.72167e-07 6.46019e-07)
(-3.84958e-08 1.0277e-08 1.96792e-08)
(-7.41634e-10 1.90059e-10 3.34811e-10)
(-9.19938e-12 2.54082e-12 4.12845e-12)
(-8.46512e-14 2.26533e-14 3.34245e-14)
(-6.19915e-16 1.34063e-16 1.78164e-16)
(-3.02114e-18 5.19718e-19 6.14611e-19)
(-1.4558e-20 1.79604e-21 1.89617e-21)
(-9.4121e-23 6.38634e-24 6.05351e-24)
(-1.0216e-05 7.63262e-05 2.18782e-05)
(-4.008e-06 7.49405e-05 -1.97136e-06)
(1.31832e-06 7.81486e-05 -1.33323e-05)
(-6.87667e-07 6.72892e-05 -1.94635e-05)
(-2.55605e-06 5.61687e-05 -2.51795e-05)
(-3.31623e-06 4.78919e-05 -2.55834e-05)
(-3.46028e-06 4.43604e-05 -2.49619e-05)
(-3.82836e-06 4.0684e-05 -2.35694e-05)
(-4.07837e-06 3.85281e-05 -2.24647e-05)
(-4.50314e-06 3.72144e-05 -2.13536e-05)
(-4.62588e-06 3.57743e-05 -3.31498e-05)
(-3.39731e-06 7.69241e-06 -0.000139988)
(-1.1325e-06 -8.21786e-05 -0.000451415)
(-1.2307e-08 -0.000238509 -0.000994258)
(-1.96188e-08 -0.0004516 -0.00174981)
(-2.97311e-08 -0.000740737 -0.00278478)
(-4.39916e-08 -0.00115079 -0.00424706)
(-6.30688e-08 -0.00170751 -0.00621619)
(-8.75599e-08 -0.00243961 -0.00877049)
(-1.17536e-07 -0.00336576 -0.0119479)
(-1.52531e-07 -0.00448654 -0.0157314)
(-1.91043e-07 -0.00575481 -0.0199556)
(-2.31375e-07 -0.00710776 -0.0244336)
(-2.70609e-07 -0.00842711 -0.0288291)
(-3.06625e-07 -0.00961679 -0.0328755)
(-5.51308e-05 -0.0106896 -0.0366039)
(-0.000287255 -0.0116638 -0.0400977)
(-0.000378694 -0.0125204 -0.043442)
(-0.000346085 -0.013271 -0.0464481)
(-0.000334005 -0.0138647 -0.049001)
(-0.000298741 -0.0143139 -0.0511308)
(-0.00023722 -0.0146577 -0.0529361)
(-0.000153138 -0.0149551 -0.0545083)
(-7.49766e-05 -0.0152739 -0.0560556)
(-4.14335e-05 -0.0156622 -0.0578006)
(-0.000143697 -0.0162126 -0.0599991)
(-0.000509836 -0.0170197 -0.0629973)
(-0.0013453 -0.0183577 -0.06704)
(-0.00312336 -0.020725 -0.0722508)
(-0.00679092 -0.025104 -0.0783362)
(-0.0124689 -0.03257 -0.0847524)
(-0.0179064 -0.0432444 -0.0909967)
(-0.0199365 -0.0552308 -0.0976837)
(-0.0181959 -0.0678109 -0.104009)
(-0.0142119 -0.0816269 -0.106244)
(-0.00861484 -0.0943428 -0.101014)
(6.31971e-05 -0.102883 -0.0914344)
(0.00743541 -0.111243 -0.0636715)
(0.0102187 -0.0900605 -0.0398733)
(0.0273063 -0.0394528 -0.0299876)
(0.0175496 1.90482e-05 1.16435e-05)
(-5.02032e-06 2.7913e-06 2.76962e-06)
(-1.33034e-07 4.58459e-08 6.78921e-08)
(-3.00436e-09 9.76434e-10 1.41578e-09)
(-4.83442e-11 1.42526e-11 1.94594e-11)
(-5.70654e-13 1.39627e-13 1.75615e-13)
(-4.60658e-15 8.99964e-16 1.03122e-15)
(-2.88772e-17 4.48511e-18 4.6271e-18)
(-3.57533e-19 3.98184e-20 3.70423e-20)
(-3.11307e-21 1.92203e-22 1.62103e-22)
(-1.40732e-05 5.51534e-05 -2.70018e-05)
(-9.29901e-06 4.28253e-05 -2.67902e-05)
(-5.39305e-06 4.60609e-05 -2.60643e-05)
(-5.43711e-06 6.08644e-05 -4.18228e-05)
(-4.07098e-06 2.1057e-05 -0.000117042)
(-1.30664e-06 1.26688e-05 -0.000248403)
(-7.85403e-08 9.57574e-06 -0.000503841)
(-2.51865e-09 1.53376e-06 -0.00097095)
(-2.63792e-09 -8.85297e-06 -0.00169308)
(-7.3452e-06 -9.73689e-05 -0.00289233)
(-6.79836e-05 -0.00039908 -0.00485228)
(-0.000216416 -0.00105568 -0.00782341)
(-0.000370394 -0.00212511 -0.0118555)
(-0.000442478 -0.00346201 -0.0164649)
(-0.000476904 -0.00482604 -0.0209688)
(-0.000536522 -0.00617877 -0.0252829)
(-0.000607284 -0.00762331 -0.0296919)
(-0.000699319 -0.00911431 -0.0342198)
(-0.000827564 -0.0106748 -0.0389739)
(-0.00101241 -0.0123849 -0.0441906)
(-0.00123555 -0.0143575 -0.0501218)
(-0.00155633 -0.0166001 -0.0569012)
(-0.00192521 -0.019172 -0.0646668)
(-0.00214772 -0.0220647 -0.0736069)
(-0.00222574 -0.025188 -0.0836602)
(-0.00229788 -0.0285059 -0.0946938)
(-0.00248999 -0.0320067 -0.106514)
(-0.00256541 -0.0356333 -0.119064)
(-0.00232369 -0.0389816 -0.130921)
(-0.00187087 -0.0417614 -0.140868)
(-0.00144058 -0.0442095 -0.149253)
(-0.00118812 -0.0458654 -0.154781)
(-0.000741767 -0.0450449 -0.152228)
(0.000294485 -0.0420386 -0.142569)
(0.00101899 -0.0380136 -0.129827)
(0.000900877 -0.0346939 -0.119719)
(0.000193061 -0.0343894 -0.118314)
(-0.00130809 -0.0359261 -0.120811)
(-0.00407966 -0.0392422 -0.125655)
(-0.00906392 -0.0455124 -0.132445)
(-0.0174074 -0.0565431 -0.140411)
(-0.0291592 -0.0720794 -0.149029)
(-0.0386277 -0.0927024 -0.15877)
(-0.0379875 -0.118103 -0.16832)
(-0.0253653 -0.142229 -0.169574)
(-0.0131099 -0.150393 -0.159203)
(-0.00070978 -0.153721 -0.135246)
(0.00831191 -0.141571 -0.117281)
(0.0134687 -0.0981851 -0.105264)
(0.03658 -0.0381679 -0.0710673)
(0.0433098 -0.000367216 -0.00115605)
(-3.00896e-05 1.87845e-05 5.89493e-07)
(-1.03247e-06 5.45147e-07 6.14729e-07)
(-1.54162e-08 4.51414e-09 5.45711e-09)
(-2.06604e-10 5.6943e-11 6.62505e-11)
(-2.64578e-12 5.97e-13 6.4492e-13)
(-2.41968e-14 4.32389e-15 4.26469e-15)
(-3.68812e-16 5.22564e-17 4.6424e-17)
(-8.2774e-18 8.41167e-19 6.74041e-19)
(-8.09516e-20 4.59264e-21 3.33569e-21)
(-2.28114e-05 1.05501e-05 -0.000119598)
(-1.10243e-05 5.97784e-05 -0.00010015)
(-1.84068e-05 0.000591217 -4.65886e-05)
(-0.000151281 0.00353313 -0.000631358)
(-0.000228466 0.000585399 -0.00901706)
(-0.000255484 -1.4686e-05 -0.012528)
(-0.000340589 -0.00032441 -0.0163845)
(-0.000371548 -0.00177319 -0.0217428)
(-0.000428061 -0.00320155 -0.0266229)
(-0.000521583 -0.00494415 -0.0317586)
(-0.000638721 -0.00706962 -0.0373371)
(-0.000773834 -0.00944211 -0.0431932)
(-0.000905135 -0.0117958 -0.0490567)
(-0.00103569 -0.0140905 -0.055387)
(-0.00124192 -0.016041 -0.0616284)
(-0.00153499 -0.0177685 -0.0681444)
(-0.00193304 -0.0197596 -0.0762126)
(-0.00245961 -0.0224713 -0.0857809)
(-0.00322917 -0.026048 -0.0971175)
(-0.00460478 -0.0306177 -0.110909)
(-0.00698832 -0.036422 -0.127734)
(-0.0116299 -0.0437805 -0.147916)
(-0.0208447 -0.0532649 -0.172056)
(-0.0345257 -0.0649411 -0.20114)
(-0.0468801 -0.0783239 -0.235377)
(-0.0514112 -0.0927746 -0.274129)
(-0.0420931 -0.109323 -0.316661)
(-0.0252231 -0.130998 -0.362851)
(-0.00735916 -0.157848 -0.405165)
(0.00583586 -0.178757 -0.437197)
(0.00814441 -0.184166 -0.451657)
(0.0033184 -0.18618 -0.447603)
(-0.00749081 -0.182231 -0.424519)
(-0.0166426 -0.170274 -0.384241)
(-0.0150465 -0.145381 -0.339701)
(-0.011116 -0.117496 -0.29796)
(-0.0103585 -0.0981174 -0.263843)
(-0.0143866 -0.0889432 -0.247589)
(-0.0238228 -0.0842935 -0.246035)
(-0.0375059 -0.0845321 -0.249586)
(-0.0584741 -0.0890199 -0.258866)
(-0.0895744 -0.104619 -0.267603)
(-0.109674 -0.133262 -0.275794)
(-0.0768343 -0.163436 -0.292978)
(-0.0464376 -0.197038 -0.287781)
(-0.0239682 -0.219971 -0.248516)
(-0.00888987 -0.19237 -0.219386)
(0.00520716 -0.153603 -0.195109)
(0.0330328 -0.108755 -0.162798)
(0.141429 -0.0422417 -0.0808496)
(0.0799632 -0.00040314 -0.0010852)
(0.0185308 1.2658e-05 2.55143e-05)
(-1.74212e-06 8.54334e-06 8.68438e-06)
(-2.37641e-07 6.3051e-08 6.2887e-08)
(-1.30483e-09 2.61204e-10 2.51432e-10)
(-1.1369e-11 2.42554e-12 2.16558e-12)
(-1.5652e-13 2.6377e-14 2.14426e-14)
(-5.38354e-15 7.14273e-16 5.20605e-16)
(-1.45305e-16 1.3823e-17 9.02897e-18)
(-1.59297e-18 8.51109e-20 4.99754e-20)
(-9.06037e-05 -7.14919e-05 -0.00136128)
(8.4412e-06 -0.00788293 -0.0336521)
(-6.69811e-06 -0.0174274 -0.0705895)
(-0.000502669 -0.0314705 -0.133746)
(-0.00298721 -0.0176766 -0.123904)
(-0.00272729 -0.0077051 -0.0980369)
(-0.00556885 0.00596168 -0.0845534)
(-0.00576687 -0.000809696 -0.0919123)
(-0.00542857 -0.0088818 -0.101188)
(-0.005752 -0.0156872 -0.111821)
(-0.00661072 -0.0217885 -0.125568)
(-0.00795342 -0.0271678 -0.142463)
(-0.00919846 -0.0323663 -0.161273)
(-0.00945296 -0.0387399 -0.184587)
(-0.0105631 -0.0467576 -0.211007)
(-0.0119087 -0.0528885 -0.220723)
(-0.0133196 -0.0609306 -0.235826)
(-0.0163705 -0.0697545 -0.256626)
(-0.0210889 -0.0769608 -0.275087)
(-0.0260393 -0.0866568 -0.294353)
(-0.0293296 -0.103202 -0.327162)
(-0.0340927 -0.124503 -0.369798)
(-0.0472652 -0.152353 -0.418093)
(-0.0727423 -0.197545 -0.473835)
(-0.0930274 -0.270706 -0.531379)
(-0.10715 -0.373282 -0.562005)
(-0.117515 -0.392771 -0.626814)
(-0.070535 -0.32475 -0.741175)
(-0.0244506 -0.282738 -0.820379)
(-0.0459417 -0.378246 -0.816552)
(-0.0342329 -0.654093 -0.630731)
(0.0119669 -0.625042 -0.657683)
(0.0355605 -0.599015 -0.650257)
(0.00915624 -0.539308 -0.638071)
(-0.0366242 -0.3429 -0.685484)
(-0.0638787 -0.239479 -0.639459)
(-0.0803493 -0.272431 -0.527871)
(-0.139612 -0.239445 -0.447662)
(-0.30135 -0.186974 -0.35681)
(-0.457891 -0.106328 -0.247467)
(-0.51211 -0.0446828 -0.18816)
(-0.562728 0.00804696 -0.10189)
(-0.589195 0.018645 -0.0325797)
(-0.608318 0.00365027 -0.0518686)
(-0.393589 -0.208271 -0.248297)
(-0.0652473 -0.262493 -0.289113)
(-0.017632 -0.225965 -0.262285)
(0.0158648 -0.185228 -0.224829)
(0.12184 -0.147332 -0.174922)
(0.295089 -0.0255899 -0.0305988)
(0.13515 -0.000294293 -0.000387592)
(0.0400025 2.27582e-05 2.66414e-05)
(-0.000107542 0.000100515 8.78124e-05)
(-3.36718e-06 9.1795e-07 7.45136e-07)
(-2.1114e-08 3.51899e-09 2.6532e-09)
(-9.36115e-11 1.7334e-11 1.18167e-11)
(-1.4126e-12 2.26589e-13 1.37246e-13)
(-6.03282e-14 7.61693e-15 4.02937e-15)
(-1.87294e-15 1.69945e-16 7.82221e-17)
(-2.33171e-17 1.19544e-18 4.79679e-19)
(-0.121301 0.00025048 -3.10363e-05)
(-0.230241 0.00216901 -0.00235544)
(-0.000589805 -0.346838 0.0807437)
(0.000715852 -0.548598 0.0789473)
(0.00563223 -0.552538 -0.168374)
(0.00222096 -0.0500643 -0.428146)
(-0.00625217 0.00823198 -0.354578)
(-0.0162061 -0.0132225 -0.378326)
(-0.0283956 -0.0157292 -0.417176)
(-0.0461439 -0.0167205 -0.462806)
(-0.039311 -0.0355314 -0.521778)
(-0.0292906 -0.0716901 -0.593021)
(-0.0307963 -0.055473 -0.676234)
(-0.0352329 -0.0489118 -0.76624)
(-0.0466925 -0.0417904 -0.783697)
(-0.0622614 -0.0283752 -0.751774)
(-0.0571979 -0.0228353 -0.747426)
(-0.058628 -0.0277472 -0.787185)
(-0.0746601 -0.0742826 -0.822084)
(-0.0940364 -0.130968 -0.851008)
(-0.102182 -0.180185 -0.892145)
(-0.0898467 -0.225291 -0.948309)
(-0.0723653 -0.259526 -1.01045)
(-0.0675479 -0.276365 -1.07646)
(-0.0739968 -0.278006 -1.14849)
(-0.0809508 -0.274916 -1.21536)
(-0.0858095 -0.261299 -1.26368)
(-0.084429 -0.224592 -1.29059)
(-0.081571 -0.193603 -1.29612)
(-0.0987533 -0.178681 -1.28643)
(-0.118371 -0.163946 -1.26444)
(-0.0660267 -0.149102 -1.23376)
(0.00615159 -0.137108 -1.19351)
(0.0445853 -0.123999 -1.14224)
(0.0521577 -0.097843 -1.07973)
(0.0266836 -0.051777 -1.0064)
(0.00995049 -0.0322418 -0.922984)
(0.0221041 -0.00717719 -0.835485)
(0.0270381 0.0518211 -0.744344)
(-0.100125 0.413069 -0.509951)
(-0.219723 0.482246 0.298377)
(-0.192918 0.314681 0.414112)
(-0.261794 0.28499 0.379031)
(-0.509439 0.158666 0.264996)
(-0.609109 0.0298272 0.0730917)
(-0.396198 -0.213108 -0.186694)
(-0.0452836 -0.265066 -0.216229)
(0.0853465 -0.236175 -0.167856)
(0.319419 -0.146236 -0.0856677)
(0.339387 -0.014795 -0.00498654)
(0.183027 -0.00024848 -1.84254e-05)
(0.0638882 0.000113783 5.23613e-05)
(-0.00134546 0.000686974 0.000456813)
(-3.61292e-05 8.24567e-06 5.62368e-06)
(-2.64097e-07 3.76709e-08 2.41355e-08)
(-9.32755e-10 1.25397e-10 7.08654e-11)
(-1.01549e-11 1.50195e-12 7.02877e-13)
(-4.90408e-13 5.8613e-14 2.14178e-14)
(-1.73946e-14 1.52157e-15 4.1229e-16)
(-2.45984e-16 1.23952e-17 2.37953e-18)
(0.000174916 -0.17715 -0.0600712)
(0.000222871 -0.183629 -0.0776901)
(-0.000759629 -0.302814 -0.128314)
(-0.000149903 -0.416287 -0.176189)
(0.000987171 -0.498274 -0.210778)
(0.00162734 -0.598551 -0.252279)
(0.000924785 -0.6777 -0.286084)
(0.000383123 -0.776249 -0.325758)
(0.000791163 -0.865246 -0.362521)
(0.000143085 -0.942089 -0.396432)
(-0.00108169 -1.02511 -0.433183)
(-0.000274918 -1.12619 -0.473752)
(0.00132111 -1.21567 -0.50793)
(0.00197163 -1.27735 -0.532408)
(0.00229444 -1.31149 -0.54536)
(0.00193507 -1.3101 -0.542664)
(0.00125739 -1.27873 -0.529468)
(0.000821195 -1.24773 -0.51961)
(-0.00046501 -1.23127 -0.520141)
(-0.00574387 -1.21774 -0.536254)
(-0.0106838 -1.20656 -0.548062)
(-0.0140502 -1.19999 -0.557111)
(-0.0175345 -1.19842 -0.562313)
(-0.0215539 -1.19973 -0.562541)
(-0.0216344 -1.20575 -0.552182)
(-0.0151284 -1.21403 -0.537055)
(-0.00732304 -1.21844 -0.522047)
(-0.00274015 -1.21473 -0.507121)
(-0.00100113 -1.20094 -0.494548)
(-0.000570687 -1.17849 -0.484395)
(-0.000902881 -1.15088 -0.473254)
(-0.00151029 -1.11896 -0.459421)
(-0.00111825 -1.08204 -0.443134)
(7.8412e-05 -1.03849 -0.424267)
(0.000636353 -0.986933 -0.403334)
(0.000608288 -0.930945 -0.381689)
(0.00165351 -0.876538 -0.360329)
(0.00523998 -0.827651 -0.3394)
(0.0103451 -0.785649 -0.320694)
(0.00939563 -0.745023 -0.303389)
(0.00309305 -0.69177 -0.281486)
(-9.39035e-05 -0.626551 -0.255215)
(-0.000445004 -0.567893 -0.227142)
(-0.103295 -0.516229 -0.178123)
(-0.657289 -0.100596 -0.00277659)
(-0.425319 -0.255354 -0.116233)
(-0.113073 -0.266727 -0.19742)
(0.16275 -0.229867 -0.13784)
(0.35274 -0.122496 -0.0501627)
(0.346345 -0.019824 -0.00501248)
(0.214647 -0.000833835 -9.64235e-05)
(0.0894938 0.000521268 0.000258172)
(-0.00456109 0.00255879 0.00165261)
(-0.000249343 5.0521e-05 3.07519e-05)
(-2.41178e-06 3.19603e-07 1.8429e-07)
(-9.19898e-09 1.036e-09 5.68308e-10)
(-6.03506e-11 8.88845e-12 4.57945e-12)
(-3.17255e-12 3.89431e-13 1.91418e-13)
(-1.25425e-13 1.13203e-14 5.34985e-15)
(-1.95678e-15 1.02261e-16 4.67514e-17)
(0.0295888 0.129467 0.00573729)
(0.000209433 -0.185881 -0.0455343)
(0.000327859 -0.320444 -0.0777646)
(3.39371e-05 -0.442533 -0.10777)
(0.000408876 -0.565928 -0.139097)
(0.000779548 -0.645764 -0.156989)
(0.000790735 -0.69644 -0.168036)
(0.000336728 -0.737341 -0.176761)
(-0.000494212 -0.77833 -0.1859)
(-0.00102012 -0.826711 -0.196415)
(-0.000304252 -0.883702 -0.208814)
(0.000653351 -0.946608 -0.223361)
(0.000875751 -1.01479 -0.240239)
(0.000843856 -1.08097 -0.25688)
(0.00123482 -1.14621 -0.273526)
(0.00194281 -1.20148 -0.286574)
(0.00215844 -1.25138 -0.296755)
(0.0018638 -1.30472 -0.307647)
(0.00136522 -1.35634 -0.319578)
(0.000184049 -1.3762 -0.325809)
(-0.00438074 -1.36041 -0.328125)
(-0.0119749 -1.32837 -0.331762)
(-0.0139463 -1.30425 -0.320959)
(-0.016443 -1.29379 -0.310944)
(-0.0173957 -1.29045 -0.304959)
(-0.0130199 -1.2856 -0.302048)
(-0.00580459 -1.27751 -0.300217)
(-0.000715494 -1.26687 -0.299156)
(0.000922935 -1.25114 -0.296551)
(0.000872643 -1.22616 -0.291494)
(0.000698951 -1.19155 -0.284275)
(0.000688764 -1.14778 -0.27506)
(0.000715301 -1.09456 -0.263587)
(0.000710201 -1.03397 -0.250474)
(0.000668442 -0.970251 -0.23593)
(0.000706833 -0.905048 -0.219758)
(0.00107703 -0.833545 -0.200997)
(0.00159875 -0.749722 -0.178891)
(0.00150213 -0.66128 -0.156877)
(0.000710531 -0.580731 -0.139239)
(0.000346891 -0.523205 -0.125816)
(0.00163178 -0.478877 -0.11395)
(0.0034603 -0.430059 -0.101313)
(-0.0312529 -0.377599 -0.0894799)
(-0.395554 -0.17796 -0.0434171)
(-0.258413 -0.242242 -0.0463955)
(-0.0848297 -0.258807 -0.0572512)
(0.151895 -0.22049 -0.0523091)
(0.332901 -0.116647 -0.025057)
(0.336889 -0.0199698 -0.00315806)
(0.213722 -0.000724073 4.14988e-07)
(0.0915358 0.000836597 0.000260889)
(-0.00393798 0.00299167 0.00103452)
(-0.000295708 5.83998e-05 1.86452e-05)
(-2.92623e-06 3.75794e-07 1.16413e-07)
(-1.14745e-08 1.21292e-09 3.67262e-10)
(-7.02551e-11 9.48012e-12 2.78877e-12)
(-3.72671e-12 4.11068e-13 1.17335e-13)
(-1.47372e-13 1.1714e-14 3.26327e-15)
(-2.26676e-15 1.02873e-16 2.80655e-17)
(4.83199e-05 -0.157995 -0.0274206)
(6.15987e-05 -0.155979 -0.0334792)
(-0.000532173 -0.417224 -0.0864821)
(-0.000249115 -0.660621 -0.135444)
(0.00057214 -0.816025 -0.165799)
(0.00116392 -0.953283 -0.191226)
(0.000704031 -1.06485 -0.210183)
(0.000357819 -1.15547 -0.225657)
(0.000112484 -1.2325 -0.238838)
(-0.000211126 -1.30223 -0.25088)
(-0.000284151 -1.36484 -0.263874)
(-3.92196e-05 -1.44554 -0.284256)
(0.000229972 -1.54495 -0.309001)
(0.00040697 -1.64743 -0.333498)
(0.000651519 -1.73306 -0.354296)
(0.000813951 -1.80873 -0.372827)
(0.000669617 -1.89478 -0.39193)
(0.000295711 -1.99656 -0.410606)
(-0.000783194 -2.07454 -0.422647)
(-0.00459308 -2.09084 -0.422873)
(-0.0219081 -2.0471 -0.432393)
(-0.121398 -2.00193 -0.414392)
(0.02139 -2.0169 0.186372)
(-0.0212039 -2.02928 -0.0568625)
(-0.0224765 -2.02245 -0.318652)
(-0.00781402 -2.02375 -0.417151)
(-0.00124633 -2.0397 -0.413421)
(0.000244332 -2.04353 -0.417279)
(0.000559799 -2.03059 -0.419937)
(0.000493017 -2.0015 -0.416538)
(0.000226104 -1.95366 -0.412375)
(-7.76593e-05 -1.88476 -0.412133)
(-0.00023414 -1.80123 -0.397389)
(5.21751e-05 -1.70111 -0.377642)
(0.000535092 -1.58601 -0.344388)
(0.000933964 -1.45364 -0.309771)
(0.00142318 -1.30532 -0.273135)
(0.00223793 -1.12684 -0.228076)
(0.00290535 -0.933884 -0.175688)
(0.00139842 -0.769676 -0.116375)
(-0.0020368 -0.64221 -0.0676988)
(0.00264564 -0.550406 -0.0564248)
(0.0049369 -0.485026 -0.0671041)
(-0.0895105 -0.420711 -0.0811238)
(-0.479412 -0.1392 -0.0230691)
(-0.324389 -0.253046 0.00218791)
(-0.123126 -0.28766 -0.0632109)
(0.17085 -0.198654 -0.154243)
(0.33698 -0.0458423 -0.132033)
(0.349906 0.00165208 -0.0361613)
(0.23128 0.00101659 -0.00309776)
(0.101405 0.000346929 0.00112793)
(-0.00643284 0.00336018 0.0014628)
(-0.000419011 6.57784e-05 2.16999e-05)
(-4.06455e-06 4.21052e-07 1.18586e-07)
(-1.55056e-08 1.3286e-09 3.18167e-10)
(-8.53821e-11 9.33911e-12 2.02016e-12)
(-4.39726e-12 3.92938e-13 8.09654e-14)
(-1.69076e-13 1.07853e-14 2.20982e-15)
(-2.51666e-15 9.0657e-17 1.87554e-17)
(0.00772619 0.119866 -0.0192894)
(0.00102659 -0.193233 -0.111638)
(0.000139999 -0.43416 -0.221017)
(1.41629e-05 -0.705408 -0.34792)
(-2.69327e-05 -0.862973 -0.435328)
(-0.000392325 -1.00814 -0.507355)
(-0.00706084 -1.1141 -0.539809)
(-0.188373 -1.10728 -0.754887)
(-0.165187 -1.19845 -0.917731)
(-0.079516 -1.55392 -0.800727)
(-0.0272978 -1.80403 -0.821597)
(-0.00807317 -2.00507 -0.896052)
(-0.00379819 -2.17211 -0.96795)
(-0.00675658 -2.30386 -1.01947)
(-0.0234496 -2.37679 -1.04632)
(-0.0575957 -2.40213 -1.0668)
(-0.0278072 -2.42122 -1.05374)
(0.159819 -2.47123 -0.908324)
(-0.0127806 -2.59371 -0.171864)
(-2.91409 -1.41712 0.702284)
(-3.19501 0.0674233 0.905748)
(0.502193 -0.355209 2.11606)
(0.544343 -2.16926 0.459201)
(-0.253157 -2.24421 -0.357363)
(-1.33856 -2.12264 -0.276407)
(-1.17951 -2.28138 -0.19613)
(0.554046 -1.82219 -1.5992)
(0.483375 -1.63052 -1.85275)
(0.264938 -2.19997 -1.24139)
(-0.399471 -2.43654 -0.577196)
(-1.6291 -2.15381 -0.400531)
(-1.9124 -1.9904 -0.151024)
(0.136225 -2.24449 -0.508339)
(1.05444 -1.3722 -1.53502)
(1.01647 -1.46434 -1.25494)
(0.210089 -1.51201 -1.09491)
(-0.0945288 -1.62675 -0.345509)
(0.10154 -1.4039 -0.197911)
(0.109893 -1.11254 -0.300748)
(0.0250814 -0.838156 -0.313204)
(0.00183568 -0.640399 -0.275849)
(0.0214288 -0.581264 -0.163561)
(0.227371 0.0275241 0.467534)
(-0.632657 0.257309 -0.0176467)
(-0.688866 -0.0566041 -0.0329143)
(-0.507984 -0.297366 -0.0410881)
(-0.249041 -0.387308 -0.048931)
(0.149434 -0.315183 -0.167443)
(0.39433 -0.112894 -0.136547)
(0.400486 -0.00527361 -0.022999)
(0.262109 0.000482183 -0.00130307)
(0.11174 0.000116115 0.000128455)
(-0.0167957 0.00190419 0.000859449)
(-0.000508262 4.691e-05 1.70986e-05)
(-4.11315e-06 2.66219e-07 9.1143e-08)
(-1.37905e-08 7.03765e-10 2.16398e-10)
(-7.72714e-11 4.70882e-12 1.32395e-12)
(-3.44952e-12 1.66285e-13 4.32525e-14)
(-1.13018e-13 3.83624e-15 9.64355e-16)
(-1.45238e-15 2.72975e-17 6.7566e-18)
(-0.0741882 0.119982 0.0578398)
(-0.0170926 -0.253431 0.0883764)
(-0.0191589 -0.507607 0.0764814)
(-0.0149636 -0.789039 0.0553268)
(-0.00324606 -0.959521 0.0536105)
(0.0289579 -1.12427 0.186213)
(0.110122 -1.21002 0.440073)
(0.0359977 -1.19735 0.810272)
(-0.160129 -1.24936 1.01968)
(-0.066649 -1.55833 0.966403)
(-0.00317536 -1.82826 0.971163)
(0.0125568 -2.06323 1.01437)
(0.00678536 -2.26021 1.05321)
(-0.00520626 -2.42503 1.04709)
(-0.0156247 -2.51955 1.05171)
(-0.0248198 -2.54451 1.07209)
(-0.0223553 -2.51614 1.12952)
(-0.0104687 -2.44541 1.19347)
(-0.501659 -2.42446 1.00802)
(-3.11894 -1.39306 0.339737)
(-1.89499 0.0915536 1.97823)
(-0.111353 0.595338 2.11724)
(0.551157 -1.72544 1.3335)
(0.179391 -2.03668 0.9864)
(-0.00780614 -1.98332 1.18745)
(-1.06258 -1.53219 1.57437)
(-1.92819 -1.34773 1.41956)
(0.356842 -1.94879 1.43066)
(1.88914 -1.99006 0.599708)
(0.740674 -2.32358 0.535375)
(0.043371 -2.21657 0.887049)
(-0.191893 -1.67388 1.5766)
(-1.02082 -1.52363 1.45772)
(-1.12011 -1.27837 1.4771)
(0.0815717 -1.92878 0.36995)
(1.24518 -1.54014 -0.268757)
(0.898968 -1.43998 0.0805847)
(0.141907 -1.29637 0.2681)
(-0.0608208 -1.04005 0.26851)
(-0.100441 -0.82704 0.18283)
(-0.0152993 -0.680815 0.10902)
(0.178092 -0.592684 -0.0470843)
(0.226704 0.521354 -0.238593)
(-0.654529 0.39158 -0.0892405)
(-0.819753 -0.0839308 -0.0447755)
(-0.545197 -0.38716 -0.0485129)
(-0.25016 -0.433244 0.121549)
(0.128502 -0.296943 0.259951)
(0.380864 -0.113762 0.181243)
(0.409507 -0.00373972 0.0268524)
(0.266272 0.000688572 0.00114043)
(0.112156 0.000105919 -9.08112e-05)
(-0.0167588 0.00187457 -0.00121947)
(-0.000491526 4.60043e-05 -2.71586e-05)
(-3.92654e-06 2.63031e-07 -1.34741e-07)
(-1.32477e-08 7.00183e-10 -3.08215e-10)
(-7.52743e-11 4.72284e-12 -1.86914e-12)
(-3.37981e-12 1.67313e-13 -6.06001e-14)
(-1.11093e-13 3.87063e-15 -1.33549e-15)
(-1.43073e-15 2.76083e-17 -9.24082e-18)
(-0.207407 0.0115395 0.0105979)
(-0.120379 -0.22906 -0.0116573)
(-0.0470419 -0.544458 0.0567667)
(-0.0153378 -0.754373 0.0862918)
(0.00482406 -0.952669 0.112648)
(0.0206578 -1.13986 0.163449)
(0.0203785 -1.27029 0.223046)
(0.00422521 -1.37469 0.251119)
(-0.000224943 -1.45035 0.266145)
(-0.000326082 -1.51716 0.279364)
(-0.000908222 -1.59459 0.296171)
(-0.00144528 -1.68659 0.314717)
(-0.00160993 -1.77892 0.332644)
(-0.00119922 -1.86002 0.348614)
(-0.000417917 -1.92688 0.362279)
(0.000111955 -1.97847 0.373554)
(0.000489143 -2.02362 0.383127)
(0.000338026 -2.06533 0.389045)
(-0.000879504 -2.07739 0.386485)
(-0.00304787 -2.0246 0.372706)
(-0.00913315 -1.91709 0.379899)
(-0.0980833 -1.5485 0.98637)
(-0.21203 1.12272 1.32644)
(-0.180482 -1.33965 1.08477)
(-0.0199915 -1.77922 0.110453)
(-0.0123843 -1.81149 0.159379)
(-0.00672559 -1.81811 0.307413)
(-0.00258289 -1.8251 0.353927)
(-0.00132347 -1.82769 0.346899)
(-0.00119127 -1.81096 0.33999)
(-0.0010592 -1.77412 0.335426)
(-0.00121359 -1.72031 0.326586)
(-0.00180698 -1.64631 0.314972)
(-0.00262086 -1.55277 0.291997)
(-0.00178308 -1.44595 0.261131)
(0.000354804 -1.3198 0.233089)
(0.00249463 -1.17498 0.199757)
(0.00418979 -1.01259 0.171385)
(0.00280142 -0.845734 0.137633)
(-0.00138098 -0.694891 0.10737)
(-0.00470193 -0.577517 0.0870366)
(0.00435053 -0.509194 0.0719947)
(0.00264736 -0.481052 0.0818541)
(-0.276584 -0.410931 0.0844465)
(-0.533179 -0.153486 0.0160121)
(-0.27878 -0.323885 -0.0472082)
(-0.0636308 -0.327906 0.078153)
(0.189952 -0.163551 0.217881)
(0.295352 0.00334046 0.195107)
(0.338874 0.0182691 0.0759433)
(0.222613 0.0030034 0.00852331)
(0.0746374 0.0139816 -0.0145072)
(-0.00873928 0.00208991 -0.00157265)
(-0.000283378 3.98353e-05 -2.44569e-05)
(-2.42734e-06 2.66097e-07 -1.23169e-07)