/*--------------------------------*- C++ -*----------------------------------*\
| =========                 |                                                 |
| \\      /  F ield         | OpenFOAM: The Open Source CFD Toolbox           |
|  \\    /   O peration     | Version:  2.1.1                                 |
|   \\  /    A nd           | Web:      www.OpenFOAM.org                      |
|    \\/     M anipulation  |                                                 |
\*---------------------------------------------------------------------------*/
FoamFile
{
    version     2.0;
    format      ascii;
    class       volVectorField;
    location    "0.0011";
    object      grad1Alpha;
}
// * * * * * * * * * * * * * * * * * * * * * * * * * * * * * * * * * * * * * //

dimensions      [0 -1 0 0 0 0 0];

internalField   nonuniform List<vector> 
36520
(
(1.47938e-09 -9.66185e-10 -6.6209e-09)
(1.39328e-09 -1.42314e-09 -7.55462e-09)
(-1.691e-10 -2.10309e-09 -9.39275e-09)
(-1.9678e-10 -2.75576e-09 -1.13025e-08)
(-2.3365e-10 -3.57913e-09 -1.35839e-08)
(-2.51495e-10 -4.3595e-09 -1.52713e-08)
(-2.60412e-10 -5.14598e-09 -1.67902e-08)
(-2.55401e-10 -5.92515e-09 -1.78347e-08)
(-2.3708e-10 -6.68279e-09 -1.88367e-08)
(-2.18826e-10 -7.33836e-09 -1.97475e-08)
(-2.15756e-10 -7.99143e-09 -2.09076e-08)
(-2.33892e-10 -8.61489e-09 -2.22735e-08)
(-2.76906e-10 -9.32902e-09 -2.39893e-08)
(-3.35416e-10 -1.01215e-08 -2.59127e-08)
(-4.1297e-10 -1.10458e-08 -2.8179e-08)
(-5.20721e-10 -1.21333e-08 -3.10274e-08)
(-6.86262e-10 -1.35254e-08 -3.47847e-08)
(-9.36706e-10 -1.54393e-08 -3.99714e-08)
(-1.29398e-09 -1.81604e-08 -4.68713e-08)
(-1.76712e-09 -2.19877e-08 -5.5866e-08)
(-2.35158e-09 -2.7159e-08 -6.69655e-08)
(-3.02566e-09 -3.38347e-08 -8.01065e-08)
(-3.73316e-09 -4.20546e-08 -9.47134e-08)
(-4.37674e-09 -5.16726e-08 -1.09745e-07)
(-4.82474e-09 -6.23268e-08 -1.23409e-07)
(-4.92701e-09 -7.34084e-08 -1.33632e-07)
(-4.56477e-09 -8.39913e-08 -1.38051e-07)
(-3.73254e-09 -9.29396e-08 -1.3461e-07)
(-2.6389e-09 -9.91281e-08 -1.21743e-07)
(-1.75503e-09 -1.02024e-07 -9.96681e-08)
(-1.77697e-09 -1.02518e-07 -7.10556e-08)
(-3.46518e-09 -1.03765e-07 -4.08882e-08)
(-7.31678e-09 -1.11166e-07 -1.48699e-08)
(-1.31713e-08 -1.30551e-07 4.47404e-09)
(-2.00661e-08 -1.65314e-07 2.02569e-08)
(-2.67028e-08 -2.14686e-07 3.84239e-08)
(-3.18617e-08 -2.75011e-07 6.27172e-08)
(-3.43668e-08 -3.4118e-07 9.21439e-08)
(-3.27064e-08 -4.06428e-07 1.22374e-07)
(-2.49042e-08 -4.5814e-07 1.49337e-07)
(-1.0519e-08 -4.77208e-07 1.71502e-07)
(5.19595e-09 -4.54327e-07 1.90734e-07)
(1.3035e-08 -4.0863e-07 1.92712e-07)
(1.64144e-08 -3.69804e-07 2.08713e-07)
(3.62944e-08 -3.08619e-07 2.16956e-07)
(9.9696e-08 -1.4839e-07 6.32891e-07)
(7.66797e-08 6.27071e-07 6.14948e-06)
(-3.29151e-08 1.14337e-06 1.15973e-05)
(-2.80209e-09 -1.0467e-08 -8.50986e-08)
(3.70979e-08 -2.85865e-08 -1.01099e-07)
(3.20908e-09 -5.53392e-10 -2.41138e-09)
(8.15874e-11 -2.00333e-11 -1.02395e-10)
(1.85131e-12 -2.43998e-13 -1.2936e-12)
(1.52234e-14 -2.34341e-15 -1.16019e-14)
(9.81945e-17 -2.06703e-17 -8.40388e-17)
(5.60626e-19 -1.49988e-19 -5.37258e-19)
(2.97739e-21 -7.62791e-22 -2.48463e-21)
(1.27801e-23 -2.58195e-24 -7.56769e-24)
(3.656e-26 -5.3169e-27 -1.43631e-26)
(6.46606e-29 -5.20951e-30 -1.27841e-29)
(1.03683e-09 -1.07206e-08 -2.21906e-08)
(7.38142e-11 -1.6414e-08 -2.49167e-08)
(-1.9573e-09 -2.19821e-08 -2.92318e-08)
(-2.19636e-09 -2.79272e-08 -3.28107e-08)
(-2.12667e-09 -3.32788e-08 -3.60817e-08)
(-1.78023e-09 -3.72826e-08 -3.66153e-08)
(-1.48199e-09 -4.05368e-08 -3.63727e-08)
(-1.23001e-09 -4.30211e-08 -3.44482e-08)
(-1.14789e-09 -4.53716e-08 -3.23304e-08)
(-1.2052e-09 -4.76546e-08 -2.97794e-08)
(-1.41944e-09 -5.05415e-08 -2.74385e-08)
(-1.70273e-09 -5.36924e-08 -2.51007e-08)
(-2.01162e-09 -5.75212e-08 -2.29011e-08)
(-2.33257e-09 -6.16754e-08 -2.07894e-08)
(-2.85127e-09 -6.65989e-08 -1.90421e-08)
(-3.6702e-09 -7.2939e-08 -1.80551e-08)
(-4.95095e-09 -8.19263e-08 -1.80065e-08)
(-6.69984e-09 -9.4795e-08 -1.89759e-08)
(-8.8723e-09 -1.1249e-07 -2.06381e-08)
(-1.13468e-08 -1.35776e-07 -2.26499e-08)
(-1.39065e-08 -1.64903e-07 -2.47109e-08)
(-1.62504e-08 -1.99891e-07 -2.65319e-08)
(-1.7856e-08 -2.40121e-07 -2.7572e-08)
(-1.8045e-08 -2.84218e-07 -2.71864e-08)
(-1.61947e-08 -3.29783e-07 -2.45211e-08)
(-1.18825e-08 -3.73576e-07 -1.88146e-08)
(-4.99873e-09 -4.11124e-07 -1.12588e-08)
(4.07976e-09 -4.36111e-07 3.698e-09)
(1.40607e-08 -4.44093e-07 2.16642e-08)
(2.24527e-08 -4.33854e-07 3.9791e-08)
(2.62894e-08 -4.11433e-07 5.42309e-08)
(2.33688e-08 -3.94072e-07 6.11454e-08)
(1.43705e-08 -3.96812e-07 6.62878e-08)
(3.66088e-09 -4.21991e-07 7.72862e-08)
(-3.76336e-09 -4.54807e-07 9.54901e-08)
(-6.313e-09 -4.7227e-07 1.20622e-07)
(-6.08463e-09 -4.66548e-07 1.51533e-07)
(-5.75696e-09 -4.51979e-07 1.86487e-07)
(-5.29495e-09 -4.45911e-07 2.22611e-07)
(-1.39944e-09 -4.34937e-07 2.54201e-07)
(9.20933e-09 -3.80201e-07 2.72646e-07)
(1.52205e-08 -2.70121e-07 2.71387e-07)
(2.17675e-08 3.13736e-06 1.72497e-05)
(3.06502e-08 3.51767e-05 0.000181513)
(2.51199e-07 0.000161315 0.00082912)
(2.96791e-06 0.000503274 0.00252629)
(5.37143e-06 0.000907276 0.00430585)
(-2.94442e-06 0.000953607 0.00421858)
(-5.56966e-06 0.000222595 0.00090565)
(7.65853e-08 -3.97317e-07 -7.97105e-07)
(5.13615e-08 -8.1554e-09 -1.69616e-08)
(1.23079e-09 -5.18725e-10 -1.29515e-09)
(5.06721e-11 -9.64864e-12 -2.51741e-11)
(6.32011e-13 -1.27831e-13 -3.09663e-13)
(5.62966e-15 -1.41324e-15 -2.89355e-15)
(4.0623e-17 -1.15352e-17 -2.09718e-17)
(2.59071e-19 -6.39319e-20 -1.02327e-19)
(1.19702e-21 -2.33242e-22 -3.23852e-22)
(3.64315e-24 -5.18758e-25 -6.27424e-25)
(6.90305e-27 -5.35807e-28 -5.64873e-28)
(1.01452e-10 -3.27002e-08 -3.08166e-08)
(-2.09948e-09 -4.50379e-08 -2.59245e-08)
(-4.05623e-09 -5.90605e-08 -2.45966e-08)
(-3.58751e-09 -7.14295e-08 -2.16762e-08)
(-2.15879e-09 -7.81525e-08 -1.73263e-08)
(-4.87486e-10 -8.06947e-08 -1.10696e-08)
(6.86841e-10 -8.1689e-08 -5.44248e-09)
(1.59128e-09 -8.05339e-08 4.75589e-10)
(1.90911e-09 -8.02023e-08 6.56896e-09)
(2.02594e-09 -8.02996e-08 1.31219e-08)
(1.91649e-09 -8.20472e-08 2.06264e-08)
(1.81883e-09 -8.48949e-08 2.81293e-08)
(1.65563e-09 -8.98722e-08 3.32325e-08)
(1.36901e-09 -9.64801e-08 3.59135e-08)
(7.31513e-10 -1.04388e-07 3.90996e-08)
(-2.32167e-10 -1.14295e-07 4.30974e-08)
(-1.40787e-09 -1.26956e-07 4.83381e-08)
(-2.58069e-09 -1.43056e-07 5.54632e-08)
(-3.56607e-09 -1.62164e-07 6.48e-08)
(-4.37491e-09 -1.83557e-07 7.6783e-08)
(-5.01753e-09 -2.05181e-07 9.1402e-08)
(-5.34661e-09 -2.25998e-07 1.08625e-07)
(-5.1195e-09 -2.45076e-07 1.27887e-07)
(-4.06828e-09 -2.62105e-07 1.4813e-07)
(-1.98332e-09 -2.75972e-07 1.67383e-07)
(3.40909e-10 -2.8308e-07 1.83075e-07)
(5.33889e-09 7.28682e-08 1.49987e-06)
(1.15834e-08 2.40992e-06 1.00822e-05)
(1.47449e-08 4.886e-06 1.92098e-05)
(1.4488e-08 7.81273e-06 3.00135e-05)
(9.39139e-09 1.07379e-05 4.08351e-05)
(3.10899e-09 1.33265e-05 5.04768e-05)
(7.56284e-10 1.51918e-05 5.7551e-05)
(8.07919e-10 1.61698e-05 6.14497e-05)
(8.27166e-10 1.64468e-05 6.28303e-05)
(8.44658e-10 1.66912e-05 6.40973e-05)
(9.33257e-10 1.84464e-05 7.08946e-05)
(1.17167e-09 2.333e-05 8.92576e-05)
(1.75606e-09 3.53241e-05 0.00013416)
(3.33713e-09 6.7613e-05 0.000254634)
(8.37989e-09 0.000171345 0.000639953)
(8.09196e-06 0.000522584 0.00194057)
(8.61266e-05 0.00167702 0.00622825)
(0.000385604 0.00567998 0.0184702)
(0.00111363 0.0170155 0.0461079)
(0.00165199 0.0400393 0.0895096)
(0.000805655 0.0644609 0.122024)
(-0.00161438 0.0669326 0.0867708)
(-0.00200497 0.0313726 0.022002)
(-0.000430481 0.000698551 0.000238768)
(3.84157e-07 -5.63975e-08 -6.9643e-08)
(8.18568e-09 -5.703e-09 -9.0522e-09)
(6.20024e-10 -1.70453e-10 -3.06453e-10)
(1.20267e-11 -3.13719e-12 -5.30583e-12)
(1.4799e-13 -4.19237e-14 -6.62303e-14)
(1.38564e-15 -3.75215e-16 -5.43364e-16)
(1.00603e-17 -2.22246e-18 -2.91197e-18)
(4.91935e-20 -8.51936e-21 -9.97539e-21)
(1.56126e-22 -1.95829e-23 -2.0505e-23)
(3.03144e-25 -2.06812e-26 -1.94939e-26)
(2.89562e-09 -4.49739e-08 -1.24006e-08)
(2.08557e-09 -6.69795e-08 1.81933e-09)
(-8.4872e-10 -8.30859e-08 1.4601e-08)
(5.87255e-10 -9.1333e-08 2.7449e-08)
(2.55852e-09 -8.87845e-08 4.13457e-08)
(3.70181e-09 -8.37839e-08 4.64377e-08)
(3.97709e-09 -7.94204e-08 4.63475e-08)
(4.49559e-09 -7.37001e-08 4.41664e-08)
(4.83352e-09 -6.9662e-08 4.19724e-08)
(5.36072e-09 -6.67103e-08 3.94435e-08)
(5.49271e-09 -6.30734e-08 5.99986e-08)
(3.98365e-09 -1.32342e-08 2.45994e-07)
(1.31147e-09 1.38354e-07 7.71507e-07)
(1.40541e-11 3.93801e-07 1.6569e-06)
(2.20577e-11 7.33276e-07 2.85318e-06)
(3.31844e-11 1.19574e-06 4.49566e-06)
(4.9758e-11 1.88792e-06 6.93961e-06)
(7.43241e-11 2.92788e-06 1.0573e-05)
(1.11563e-10 4.53761e-06 1.61076e-05)
(1.69622e-10 7.11141e-06 2.47939e-05)
(2.64855e-10 1.14329e-05 3.91407e-05)
(4.28097e-10 1.89667e-05 6.3846e-05)
(7.30739e-10 3.30848e-05 0.000109723)
(1.29885e-09 5.97609e-05 0.00019588)
(2.28613e-09 0.000106267 0.00034558)
(6.23811e-07 0.000179933 0.000582248)
(4.69405e-06 0.000284701 0.000919606)
(8.40822e-06 0.000417121 0.00135236)
(9.47389e-06 0.000547687 0.00178271)
(1.02878e-05 0.000647365 0.00211989)
(9.7425e-06 0.000712185 0.00234961)
(7.96403e-06 0.000756309 0.00251432)
(5.23312e-06 0.00079193 0.00264959)
(2.52352e-06 0.000803769 0.00270465)
(1.26792e-06 0.000756274 0.00256326)
(3.83263e-06 0.000688505 0.00235132)
(1.19366e-05 0.000640218 0.00220154)
(2.99985e-05 0.000663979 0.00226684)
(7.83972e-05 0.000852955 0.00279207)
(0.000239749 0.00147115 0.00432394)
(0.000799098 0.0035128 0.00862787)
(0.00264834 0.0109376 0.0217417)
(0.00785694 0.0379058 0.0633063)
(0.0190536 0.126122 0.182381)
(0.0341786 0.355578 0.435448)
(0.0368868 0.745938 0.750471)
(-0.000368116 1.12699 0.944428)
(-0.0476428 1.3446 0.731999)
(-0.0425048 0.688992 0.29271)
(-0.0113045 0.0286289 0.0208681)
(-0.00013507 -2.55428e-07 -1.48468e-07)
(3.53255e-08 -3.38445e-08 -3.19276e-08)
(4.44619e-09 -1.92623e-09 -2.67989e-09)
(1.48772e-10 -5.01106e-11 -6.95329e-11)
(2.57765e-12 -7.84269e-13 -1.03971e-12)
(3.22472e-14 -8.01687e-15 -9.88546e-15)
(2.65589e-16 -5.30918e-17 -5.99471e-17)
(1.43055e-18 -2.24165e-19 -2.28889e-19)
(4.93173e-21 -5.5807e-22 -5.14694e-22)
(1.01994e-23 -6.33448e-25 -5.30983e-25)
(5.70954e-09 -4.72225e-08 2.13049e-08)
(8.73339e-09 -6.85141e-08 4.37965e-08)
(6.80367e-09 -9.19608e-08 5.40299e-08)
(8.69735e-09 -1.40843e-07 1.01309e-07)
(7.1213e-09 -5.16443e-08 2.99316e-07)
(2.33714e-09 -3.13074e-08 6.35069e-07)
(1.3369e-10 -2.23882e-08 1.21129e-06)
(4.06152e-12 -3.3803e-09 2.18548e-06)
(4.02733e-12 1.84168e-08 3.57996e-06)
(1.0847e-08 1.95476e-07 5.87528e-06)
(1.00734e-07 8.03097e-07 9.82553e-06)
(3.41993e-07 2.26819e-06 1.68145e-05)
(6.76171e-07 5.29402e-06 2.93415e-05)
(9.96415e-07 1.06887e-05 5.01397e-05)
(1.35744e-06 1.89656e-05 8.07086e-05)
(1.95268e-06 3.13107e-05 0.000124676)
(2.90309e-06 5.12145e-05 0.000192744)
(4.37941e-06 8.09656e-05 0.000291887)
(6.7942e-06 0.000125459 0.000437552)
(1.10068e-05 0.000194482 0.000660159)
(1.86658e-05 0.000315839 0.00104486)
(3.37412e-05 0.000527819 0.00170852)
(6.31229e-05 0.000927516 0.0029453)
(0.000112764 0.00171797 0.00537422)
(0.000184732 0.00311292 0.00965163)
(0.000274435 0.00508798 0.0157182)
(0.000368013 0.00709348 0.0219151)
(0.000412324 0.00861517 0.0266934)
(0.000366607 0.0092761 0.0288683)
(0.000270669 0.0091373 0.028562)
(0.000188249 0.00875878 0.0274383)
(0.000143208 0.00840718 0.0263622)
(9.09694e-05 0.00844104 0.0264725)
(-4.10605e-05 0.00902628 0.0282613)
(-0.000168485 0.0098016 0.0305806)
(-0.000172447 0.010525 0.0327409)
(-3.97233e-05 0.0113374 0.0350459)
(0.00028433 0.0126096 0.0382715)
(0.000992305 0.0155266 0.0452067)
(0.00283122 0.0233071 0.0621998)
(0.00852027 0.0457533 0.105137)
(0.026975 0.111151 0.214795)
(0.0799946 0.323173 0.522862)
(0.187996 0.999649 1.35481)
(0.294103 2.88534 3.28216)
(0.274753 5.67497 5.73637)
(0.0219061 8.79693 7.3989)
(-0.324382 10.4407 8.34158)
(-0.396041 5.39977 5.6701)
(-0.170045 0.318928 0.582529)
(-0.0110776 0.000165472 0.000504295)
(8.75485e-08 -9.68082e-08 -2.93757e-09)
(1.69641e-08 -1.56635e-08 -1.70322e-08)
(1.34431e-09 -5.37675e-10 -6.22189e-10)
(3.47522e-11 -1.00999e-11 -1.13843e-11)
(5.20718e-13 -1.20222e-13 -1.27168e-13)
(4.97676e-15 -9.12197e-16 -8.86709e-16)
(3.03964e-17 -4.35892e-18 -3.8368e-18)
(1.17115e-19 -1.21027e-20 -9.61971e-21)
(2.65758e-22 -1.51792e-23 -1.09626e-23)
(1.20871e-08 -1.17074e-08 1.15759e-07)
(1.46703e-08 -1.18091e-07 2.00761e-07)
(2.19513e-08 -9.27793e-07 7.62635e-08)
(1.20586e-07 -3.70243e-06 6.88253e-07)
(2.67089e-07 -8.85972e-07 1.41459e-05)
(4.48271e-07 3.32951e-08 2.91056e-05)
(7.59035e-07 9.43835e-07 4.84302e-05)
(1.15779e-06 7.2823e-06 9.01924e-05)
(1.80067e-06 1.78795e-05 0.000149417)
(3.04388e-06 3.85046e-05 0.000247468)
(5.3222e-06 7.89125e-05 0.000415107)
(9.47831e-06 0.00015535 0.000704142)
(1.61732e-05 0.000283953 0.00116283)
(2.49329e-05 0.000458483 0.00176155)
(3.61922e-05 0.000634067 0.00236335)
(5.44199e-05 0.000858723 0.00317111)
(8.12439e-05 0.00113969 0.00420611)
(0.00011896 0.00150321 0.00546654)
(0.000178955 0.00201322 0.00713561)
(0.000295139 0.00276112 0.00950031)
(0.000509577 0.00376871 0.0125514)
(0.000923911 0.0049737 0.0159765)
(0.00178223 0.00655933 0.020212)
(0.00326041 0.00889327 0.0263613)
(0.00502812 0.0122581 0.0352861)
(0.00595968 0.0157786 0.0445748)
(0.00533358 0.0204266 0.0564668)
(0.00337923 0.0260515 0.0688224)
(0.00090997 0.0291617 0.071363)
(-0.000687279 0.0316165 0.0737486)
(-0.0010563 0.036012 0.0843246)
(-0.000455059 0.0385867 0.0886928)
(0.000937525 0.0344997 0.0769862)
(0.00201352 0.0311381 0.0674828)
(0.0021963 0.0320401 0.0720284)
(0.0021941 0.0350222 0.0853425)
(0.00273102 0.0392205 0.100734)
(0.00503558 0.0475201 0.125338)
(0.0119009 0.0647173 0.177986)
(0.0300319 0.104791 0.291301)
(0.0772384 0.183547 0.502514)
(0.213923 0.393309 0.946975)
(0.592038 1.14599 2.23578)
(1.45807 5.03474 8.54318)
(2.35623 16.661 23.1322)
(2.31163 36.3646 38.9536)
(1.5063 57.8863 62.3384)
(-1.05505 57.2578 69.8717)
(-4.27419 26.2344 39.0001)
(-2.98339 1.63932 3.13034)
(-0.291124 0.00262879 0.00696483)
(-0.000245312 -2.99119e-07 -5.90295e-07)
(1.0967e-08 -9.59497e-08 -9.52519e-08)
(9.01216e-09 -4.23413e-09 -4.11488e-09)
(3.24783e-10 -9.48138e-11 -8.89208e-11)
(5.94775e-12 -1.31505e-12 -1.15483e-12)
(6.68294e-14 -1.15333e-14 -9.26582e-15)
(4.70271e-16 -6.32495e-17 -4.57017e-17)
(2.05954e-18 -1.99437e-19 -1.29237e-19)
(5.22897e-21 -2.81508e-22 -1.64374e-22)
(4.60462e-08 6.44624e-08 1.07144e-06)
(-3.53169e-08 4.44672e-05 0.0001923)
(1.15175e-07 0.00039511 0.00167421)
(7.04701e-06 0.000593218 0.0026616)
(1.43785e-05 0.000113315 0.000831162)
(1.71785e-05 6.44577e-05 0.000844169)
(3.05276e-05 -4.33687e-05 0.000627749)
(5.04846e-05 9.48179e-06 0.00109312)
(7.86281e-05 0.000173506 0.00200226)
(0.000132845 0.000491982 0.00355038)
(0.000228485 0.00102742 0.00598861)
(0.000374471 0.00174922 0.00926231)
(0.000530136 0.00255198 0.0128293)
(0.000602285 0.00337906 0.0162095)
(0.000706059 0.00428857 0.0194403)
(0.000921003 0.00561383 0.0233941)
(0.00114769 0.00722256 0.0276944)
(0.00146784 0.0086448 0.0312253)
(0.00202451 0.0102735 0.0357508)
(0.00272163 0.0126852 0.0416808)
(0.0032609 0.0162019 0.0495292)
(0.00386688 0.0200802 0.0574084)
(0.00524251 0.0241413 0.0637633)
(0.00759474 0.0295545 0.0684558)
(0.0091691 0.0383351 0.0731483)
(0.0107268 0.053955 0.0794655)
(0.0124757 0.0603741 0.0945188)
(0.00803885 0.0537962 0.12065)
(0.00312252 0.0528399 0.150798)
(0.00704678 0.0856723 0.181846)
(0.00794083 0.226055 0.214145)
(-0.00340246 0.266732 0.275185)
(-0.0105786 0.268823 0.285348)
(-0.00261311 0.232366 0.268325)
(0.00863592 0.121644 0.237044)
(0.0140688 0.0787817 0.20462)
(0.0199886 0.100303 0.18839)
(0.0390333 0.0982976 0.177505)
(0.0843129 0.0765666 0.141038)
(0.165961 0.0564202 0.127669)
(0.340961 0.0436404 0.181019)
(0.919358 -0.0193951 0.243201)
(4.03203 -0.189455 0.326176)
(11.2661 -0.101811 1.41627)
(17.0576 13.8785 16.1564)
(21.9823 139.891 149.435)
(16.2831 343.762 384.733)
(-13.8042 280.029 329.03)
(-36.2571 80.3686 93.9343)
(-20.6272 3.3251 3.96735)
(-1.61606 0.00642486 0.0084215)
(-0.00351257 -3.60669e-06 -4.17787e-06)
(3.18697e-07 -5.35674e-07 -4.61405e-07)
(5.35338e-08 -2.61757e-08 -2.08911e-08)
(2.30014e-09 -6.67689e-10 -4.94006e-10)
(4.97796e-11 -1.0606e-11 -7.13399e-12)
(6.51502e-13 -1.07241e-13 -6.42823e-14)
(5.29444e-15 -6.78796e-16 -3.56092e-16)
(2.65687e-17 -2.45724e-18 -1.12218e-18)
(7.65314e-20 -3.9581e-21 -1.57936e-21)
(0.000101461 -2.98006e-07 3.41786e-08)
(0.00088816 -1.17113e-05 1.27908e-05)
(0.00101132 0.818532 -0.199494)
(-0.000737301 0.791137 -0.118783)
(-0.00101518 0.13825 0.0438192)
(-0.000109976 0.00341016 0.0301923)
(0.00013003 -0.00023296 0.0103652)
(0.000726641 0.000813511 0.0240202)
(0.00130231 0.00100095 0.0273151)
(0.00211432 0.00107458 0.0305212)
(0.00302567 0.0038752 0.0582478)
(0.00361473 0.0126246 0.106644)
(0.00367318 0.00946723 0.117757)
(0.00351616 0.00701057 0.112019)
(0.00386008 0.00496352 0.0950064)
(0.00447363 0.00290247 0.0782772)
(0.00427631 0.00240192 0.0796376)
(0.00439966 0.00291352 0.0832706)
(0.00571631 0.00794322 0.0882313)
(0.0076328 0.0148442 0.0966984)
(0.00893297 0.0220499 0.109626)
(0.00859691 0.0303188 0.128392)
(0.00786658 0.0398794 0.156253)
(0.00873345 0.0507737 0.198793)
(0.0121585 0.0652933 0.270725)
(0.0179828 0.0878862 0.390101)
(0.0251366 0.110843 0.539171)
(0.0306221 0.11852 0.68611)
(0.0349809 0.121315 0.819303)
(0.0477504 0.126872 0.923188)
(0.0633867 0.129629 1.01273)
(0.0405874 0.136039 1.14322)
(-0.00444473 0.147718 1.30845)
(-0.0361358 0.15019 1.40873)
(-0.0455333 0.127442 1.43059)
(-0.0255801 0.0737004 1.45406)
(-0.0105638 0.0504243 1.46178)
(-0.0243258 0.0115054 1.35342)
(-0.0241049 -0.0664045 0.963042)
(0.0350475 -0.205422 0.256421)
(0.105466 -0.327067 -0.205955)
(0.197856 -0.456285 -0.614791)
(0.821717 -1.26206 -1.71488)
(9.83919 -4.29397 -7.2875)
(89.8935 -6.23568 -15.477)
(220.38 172.82 153.576)
(104.991 935.053 774.449)
(-174.015 780.121 559.324)
(-193.696 155.573 90.3033)
(-56.7541 4.56916 1.51406)
(-2.48317 0.00622894 0.000457838)
(-0.00481418 -1.56866e-05 -7.15375e-06)
(2.45486e-06 -2.27938e-06 -1.49919e-06)
(2.91178e-07 -1.20397e-07 -8.10361e-08)
(1.33002e-08 -3.4068e-09 -2.14993e-09)
(3.1795e-10 -6.12242e-11 -3.41596e-11)
(4.67242e-12 -7.13461e-13 -3.31063e-13)
(4.3157e-14 -5.24593e-15 -1.90338e-15)
(2.46997e-16 -2.20478e-17 -5.93383e-18)
(8.07423e-19 -4.1082e-20 -7.84877e-21)
(-0.000694061 0.874416 0.370572)
(-0.002231 2.81053 1.19012)
(0.0262036 15.3419 6.49202)
(0.00956673 38.2659 16.1795)
(-0.0525913 38.0986 16.1212)
(-0.0593751 31.3873 13.273)
(-0.0205723 21.6515 9.14497)
(-0.00675706 19.709 8.3179)
(-0.0134501 21.2254 8.98441)
(-0.00248236 23.6058 10.0517)
(0.0194044 26.6479 11.4047)
(0.00546372 32.6764 13.957)
(-0.0318533 43.1528 18.3566)
(-0.0495794 47.6297 20.2385)
(-0.0533022 45.3827 19.2977)
(-0.0373297 37.5653 15.9749)
(-0.0183787 27.5481 11.7114)
(-0.00843845 18.6857 7.95334)
(0.00253017 9.64851 4.1462)
(0.0121777 3.67576 1.64486)
(0.0186251 2.96603 1.37315)
(0.0270445 3.23864 1.53968)
(0.040625 3.88279 1.87259)
(0.0653448 5.0824 2.45424)
(0.105166 8.20234 3.87514)
(0.140665 15.8537 7.25298)
(0.140147 32.9291 14.6358)
(0.100562 63.3957 27.5244)
(0.0524534 90.0798 38.6192)
(0.0312368 92.8517 39.7273)
(0.0484373 89.2947 38.2016)
(0.0817022 87.9428 37.5849)
(0.0627951 88.6877 37.8862)
(-0.0045357 88.0547 37.6457)
(-0.036504 83.1441 35.661)
(-0.0333441 74.7861 32.2397)
(-0.0873085 67.4321 29.1921)
(-0.272963 62.2306 26.9691)
(-0.54239 58.622 25.3983)
(-0.50184 55.5526 24.1074)
(-0.168754 51.6054 22.4387)
(0.00508777 45.5781 19.8324)
(0.0195749 33.4312 14.2188)
(2.68464 18.2341 6.61116)
(119.008 25.3214 0.725188)
(548.428 470.758 220.91)
(304.824 1068.36 811.188)
(-466.904 1043.45 631.797)
(-421.886 253.862 101.346)
(-85.1654 9.0853 2.17631)
(-2.81401 0.0204942 0.0022773)
(-0.00412234 -4.46624e-05 -2.14704e-05)
(6.13287e-06 -6.35744e-06 -3.99967e-06)
(1.13923e-06 -4.24719e-07 -2.51935e-07)
(6.07825e-08 -1.47484e-08 -8.2833e-09)
(1.63766e-09 -3.12473e-10 -1.6747e-10)
(2.70184e-11 -4.19528e-12 -2.14464e-12)
(2.79703e-13 -3.49645e-14 -1.70793e-14)
(1.78247e-15 -1.64343e-16 -7.71936e-17)
(6.42529e-18 -3.39277e-19 -1.54477e-19)
(-1.08844e-05 -5.74006e-05 -3.05579e-06)
(-0.000519887 0.733977 0.172527)
(-0.00268132 3.86668 0.911075)
(-0.00105485 19.5602 4.63594)
(-0.0255483 49.6248 11.7878)
(-0.0521476 60.4239 14.3459)
(-0.0470624 57.8123 13.7558)
(-0.0178961 54.4145 12.9657)
(0.025305 55.1996 13.1804)
(0.0524265 59.0816 14.1431)
(0.0175043 71.3762 17.1132)
(-0.046282 95.278 22.8894)
(-0.0707165 117.849 28.4108)
(-0.0651579 121.314 29.3371)
(-0.0864673 117.727 28.5586)
(-0.118357 108.14 26.3083)
(-0.114237 98.2243 23.9564)
(-0.0851076 88.1002 21.5432)
(-0.0496783 72.1951 17.7058)
(-0.00429479 46.1172 11.3648)
(0.0460793 20.1058 5.04043)
(0.0752873 11.5242 2.99091)
(0.092169 11.755 3.01003)
(0.126837 13.5164 3.38583)
(0.193534 19.4037 4.78865)
(0.279201 37.3756 9.19496)
(0.26493 79.6987 19.6448)
(0.0594058 145.347 35.9886)
(-0.0932293 176.332 43.7405)
(-0.0880655 173.825 43.1172)
(-0.0695617 167.445 41.5275)
(-0.0706159 167.001 41.4093)
(-0.077024 168.118 41.673)
(-0.0816293 170.371 42.2887)
(-0.0828942 173.324 43.1243)
(-0.0935843 173.157 43.1436)
(-0.147909 164.997 41.0985)
(-0.21607 144.073 35.8572)
(-0.19856 120.712 30.191)
(-0.104236 112.366 28.6589)
(-0.0590462 112.029 28.9293)
(-0.298386 107.039 27.7127)
(-0.523412 79.5955 20.535)
(2.7428 42.1268 10.9079)
(121.672 74.2704 19.4665)
(519.873 703.046 140.317)
(251.651 1167.71 262.841)
(-455.749 1076.3 253.434)
(-372.278 229.703 47.4437)
(-68.3287 7.56051 1.12655)
(-2.08623 0.0131556 -7.28877e-06)
(-0.00215042 -3.62415e-05 -1.11269e-05)
(4.82713e-06 -6.71726e-06 -2.30256e-06)
(1.23959e-06 -4.46559e-07 -1.41565e-07)
(6.62532e-08 -1.54515e-08 -4.75173e-09)
(1.83218e-09 -3.30455e-10 -9.92844e-11)
(3.1179e-11 -4.46128e-12 -1.30345e-12)
(3.28485e-13 -3.68943e-14 -1.04691e-14)
(2.09431e-15 -1.70031e-16 -4.70778e-17)
(7.4442e-18 -3.41247e-19 -9.27296e-20)
(-0.000625518 2.55252 0.493108)
(-0.00167208 6.81827 1.32142)
(0.0369797 40.5963 7.89806)
(0.0314442 119.036 23.2753)
(-0.0614634 125.433 24.6357)
(-0.082356 96.5072 19.0741)
(-0.0302142 64.6975 12.8756)
(-0.0102405 46.1511 9.25111)
(-0.00277415 41.9668 8.4213)
(0.00516493 43.9171 8.77825)
(0.00851077 56.8253 11.3528)
(0.00169151 87.9352 17.7425)
(-0.0120302 115.712 23.5438)
(-0.0200519 117.741 24.0744)
(-0.0284479 110.981 22.782)
(-0.0290932 95.7036 19.7657)
(-0.0198089 83.6734 17.4299)
(-0.00740184 75.1423 15.7475)
(0.0155254 61.7813 12.9782)
(0.0563017 37.818 7.94653)
(0.0895295 11.9674 2.63689)
(0.0479146 1.09941 0.238063)
(-0.00389089 0.501045 -0.0485501)
(0.0124498 1.61173 0.0474332)
(0.0518897 6.30584 1.04205)
(0.0564044 19.8224 4.26628)
(0.0232599 52.2156 10.9866)
(-0.0091404 106.33 22.4262)
(-0.0283088 144.571 30.7928)
(-0.0253284 146.072 31.2586)
(-0.0112873 139.461 30.2083)
(0.00374469 130.639 29.2015)
(0.0115212 128.043 28.7031)
(-0.00268642 127.215 28.5522)
(-0.0291725 126.405 27.7506)
(-0.0532206 122.032 26.5376)
(-0.0786331 106.616 23.1767)
(-0.106175 78.008 16.7349)
(-0.0992976 44.8931 9.13109)
(-0.0276362 20.1188 3.35722)
(0.0304734 11.8507 1.40397)
(-0.0480728 11.8413 1.38224)
(-0.0984899 11.5818 1.8184)
(1.93179 11.43 2.43323)
(108.064 42.0967 7.42465)
(599.955 656.842 -5.86142)
(353.774 1198.6 266.937)
(-514.683 911.759 710.351)
(-459.583 101.967 294.163)
(-87.6264 -0.717171 15.7804)
(-2.64136 -0.0206794 0.0637508)
(-0.00262431 -1.60832e-05 -5.30924e-05)
(7.50478e-06 -7.02192e-06 -3.10233e-06)
(1.59199e-06 -4.4731e-07 -1.49418e-07)
(8.26801e-08 -1.52977e-08 -4.35063e-09)
(2.24923e-09 -3.27845e-10 -7.89537e-11)
(3.7595e-11 -4.38103e-12 -9.42692e-13)
(3.87675e-13 -3.52604e-14 -7.22785e-15)
(2.40389e-15 -1.56553e-16 -3.18971e-17)
(8.27078e-18 -3.00823e-19 -6.20108e-20)
(-0.000261148 -0.00635243 0.000783188)
(-0.000953748 0.260329 0.132635)
(-0.000733454 3.16511 1.58998)
(-0.000217502 15.8646 7.88263)
(0.000429159 19.9018 10.0918)
(0.00314972 11.6351 5.96347)
(0.00901659 2.00676 1.01567)
(0.00915826 0.0744075 0.054144)
(0.00598881 0.0595962 0.0488203)
(0.00683849 0.184164 0.100529)
(0.00626164 0.575668 0.274202)
(0.0040047 1.40204 0.646491)
(0.0024497 2.00382 0.909614)
(0.00396112 1.95788 0.872207)
(0.011575 1.71938 0.753684)
(0.0209248 1.29085 0.565582)
(0.00628819 0.817142 0.34859)
(-0.018956 0.440572 0.158461)
(0.000640876 0.194959 0.0127524)
(0.131606 0.09404 -0.047096)
(0.128512 -0.00386231 -0.0541201)
(-0.0203837 0.0199752 -0.126893)
(-0.045822 0.248978 -0.0566555)
(0.0519274 0.624831 0.107207)
(0.315758 0.683479 0.0958588)
(0.212458 0.567614 0.052218)
(-0.195912 0.901704 0.837322)
(-0.275473 1.31464 1.56369)
(-0.119448 1.41452 0.829676)
(0.154195 1.34997 0.331117)
(0.585825 1.11801 0.21456)
(0.428441 0.6475 0.0504754)
(-0.026774 0.644733 0.149037)
(-0.369779 0.707188 0.801893)
(-0.48862 1.03889 0.899361)
(-0.104813 1.11489 0.818294)
(0.0405596 1.02262 0.22327)
(-0.0552211 1.09148 0.16245)
(-0.0870711 1.20798 0.359012)
(-0.027681 1.19605 0.51572)
(-0.00257792 1.09753 0.56418)
(-0.023299 0.755172 0.253877)
(-0.0162402 -0.00244151 -0.0478478)
(1.06476 -0.57258 0.0429456)
(51.3142 5.77851 3.53007)
(584.368 475.168 67.7477)
(612.459 1343.3 172.583)
(-379.347 1161.84 621.031)
(-654.03 288.323 349.879)
(-206.239 4.45938 19.8739)
(-9.89829 -0.0310795 0.0873122)
(-0.0349972 -6.26703e-05 -7.24295e-05)
(2.93607e-05 -5.74856e-06 -2.70652e-06)
(2.09972e-06 -3.3499e-07 -1.2689e-07)
(9.54967e-08 -1.06755e-08 -3.78203e-09)
(2.38863e-09 -1.98152e-10 -6.24591e-11)
(3.47066e-11 -2.21793e-12 -6.22087e-13)
(3.04001e-13 -1.48838e-14 -3.8595e-15)
(1.60752e-15 -5.55973e-17 -1.39217e-17)
(4.77662e-18 -9.04989e-20 -2.2357e-20)
(0.00116855 -0.00313001 -0.00108686)
(0.012858 0.272308 -0.0903549)
(0.093465 3.46772 -0.546427)
(0.227779 17.7786 -1.27359)
(0.0512728 22.2929 -1.27306)
(-0.22449 12.6392 -2.12063)
(-0.133954 2.07588 -0.774122)
(-0.00160919 0.0739075 -0.0524586)
(0.00553708 0.0590857 -0.0507551)
(0.00567128 0.181851 -0.117877)
(0.000718408 0.571942 -0.314885)
(-0.00611492 1.40698 -0.709091)
(-0.00428738 2.02992 -0.958105)
(0.00298208 2.00376 -0.866883)
(0.00750935 1.76951 -0.733104)
(0.00885451 1.3415 -0.556152)
(0.00513439 0.862879 -0.378584)
(0.00130929 0.460122 -0.219057)
(0.0257119 0.186567 -0.0763199)
(0.097627 0.0642969 -0.015796)
(0.100527 -0.00694765 -0.155927)
(0.00479062 -0.0356476 -0.13428)
(-0.0449577 0.19267 -0.158444)
(-0.0381221 0.589111 -0.304388)
(0.00210443 0.731293 -0.469834)
(0.417196 0.831674 -0.918358)
(0.744861 0.728442 -0.817644)
(-0.0829304 0.639864 -0.49477)
(-0.695903 1.04281 -0.328087)
(-0.279056 1.25303 -0.2998)
(-0.0163178 1.20175 -0.4974)
(0.0955866 1.21029 -1.17481)
(0.507583 1.10782 -1.08962)
(0.442112 0.741083 -0.87878)
(-0.0212272 0.736234 -0.144983)
(-0.417945 0.75278 0.135627)
(-0.474069 1.08926 -0.0639368)
(-0.098896 1.26333 -0.282697)
(0.0555523 1.2791 -0.373677)
(0.114242 1.2044 -0.315833)
(0.0182087 0.98562 -0.192801)
(-0.146927 0.585414 0.05631)
(-0.0940737 -0.269532 0.142105)
(1.32472 -1.03954 0.256863)
(52.8156 7.27467 4.05088)
(547.71 530.916 68.185)
(566.184 1367.19 -387.23)
(-345.626 1151.55 -1005.9)
(-608.568 278.059 -441.609)
(-203.397 3.0218 -22.2014)
(-10.4599 -0.0458542 -0.0789309)
(-0.042291 -6.84883e-05 6.128e-05)
(2.94927e-05 -5.67612e-06 3.84815e-06)
(2.03797e-06 -3.28758e-07 2.01533e-07)
(9.17803e-08 -1.05933e-08 5.61165e-09)
(2.3101e-09 -1.97994e-10 8.92968e-11)
(3.3831e-11 -2.22536e-12 8.78389e-13)
(2.97918e-13 -1.49802e-14 5.40791e-15)
(1.58049e-15 -5.61131e-17 1.92804e-17)
(4.70636e-18 -9.15568e-20 3.05801e-20)
(0.0161886 -0.00117887 -0.00100426)
(0.414943 1.22189 0.0535255)
(2.6576 42.6077 -4.39036)
(3.0805 221.275 -26.0863)
(-1.16415 345.359 -43.0945)
(-3.35322 279.874 -42.2909)
(-1.45422 133.758 -24.6066)
(-0.0846022 39.2437 -7.47545)
(0.00137244 12.3714 -2.35429)
(0.00194918 12.5219 -2.37747)
(0.00981588 23.6904 -4.50246)
(0.0325522 52.5115 -9.97195)
(0.059205 91.7005 -17.3888)
(0.0506864 111.987 -21.2231)
(0.0167828 111.92 -21.2441)
(-0.00410962 106.56 -20.3189)
(-0.0155257 95.5192 -18.3373)
(-0.00883505 81.1294 -15.6102)
(0.0174412 61.9587 -11.863)
(0.0363798 35.7909 -6.82719)
(0.0343567 10.3996 -2.14634)
(0.0261211 0.580528 -0.386326)
(0.0209284 -0.153433 -0.189913)
(0.0177829 0.18075 -0.154099)
(0.0259767 3.15076 -0.206986)
(0.06262 12.5152 -1.16867)
(0.092104 34.283 -6.135)
(0.0700581 68.9029 -14.0601)
(0.0457492 88.8869 -17.6632)
(0.0410318 88.4795 -17.332)
(0.035144 84.0417 -16.5336)
(0.0394427 80.316 -15.8412)
(0.0604579 79.6628 -15.8647)
(0.0912535 78.8324 -15.5283)
(0.0631585 75.1608 -14.3405)
(-0.0122282 66.6532 -12.565)
(-0.0799341 54.4841 -10.0224)
(-0.119889 40.9148 -7.64181)
(-0.0671716 27.5764 -5.0774)
(0.0252496 16.4442 -2.9445)
(0.0642633 9.7333 -1.71791)
(-0.0580384 8.20929 -1.3361)
(-0.0356877 8.02624 -1.51002)
(4.80003 9.12351 -1.98332)
(162.106 61.1236 -6.53818)
(536.307 836.987 123.051)
(175.247 1264.31 -301.374)
(-489.818 630.585 -837.922)
(-336.282 -6.14445 -361.437)
(-51.3305 -4.74659 -20.094)
(-1.20183 -0.0287057 -0.0825584)
(-0.000158688 -5.30642e-05 5.57647e-05)
(1.18888e-05 -5.08349e-06 3.86908e-06)
(1.15982e-06 -2.91584e-07 1.80608e-07)
(5.41696e-08 -1.06031e-08 4.93765e-09)
(1.53413e-09 -2.40966e-10 8.42226e-11)
(2.67819e-11 -3.30938e-12 9.29106e-13)
(2.81711e-13 -2.67692e-14 6.50709e-15)
(1.75136e-15 -1.17898e-16 2.62664e-17)
(5.983e-18 -2.23735e-19 4.7256e-20)
(0.137817 4.71785 -1.0582)
(1.73762 22.4587 -4.26517)
(7.28501 74.6351 -14.7449)
(8.94677 264.352 -60.25)
(-2.1006 444.436 -101.689)
(-10.1476 327.037 -73.7112)
(-5.19625 96.5243 -21.439)
(-0.409497 6.59433 -1.45307)
(0.00877882 0.0453483 0.0119236)
(0.0178853 0.0184658 0.0336978)
(0.0377546 0.56758 -0.0664132)
(0.077895 3.3074 -0.6465)
(0.0905473 12.7287 -2.69561)
(0.0414401 27.8361 -6.0168)
(-0.0302602 31.4129 -6.79664)
(-0.0826271 28.7301 -6.1901)
(-0.0616427 21.866 -4.65777)
(0.0203918 15.0496 -3.11914)
(0.0481149 8.67554 -1.69318)
(-0.0234016 2.60079 -0.470392)
(-0.082225 0.149741 -0.113956)
(-0.0402884 -0.0996898 -0.105111)