/*--------------------------------*- C++ -*----------------------------------*\
| =========                 |                                                 |
| \\      /  F ield         | OpenFOAM: The Open Source CFD Toolbox           |
|  \\    /   O peration     | Version:  2.1.1                                 |
|   \\  /    A nd           | Web:      www.OpenFOAM.org                      |
|    \\/     M anipulation  |                                                 |
\*---------------------------------------------------------------------------*/
FoamFile
{
    version     2.0;
    format      ascii;
    class       volVectorField;
    location    "0.0011";
    object      gradAlphaUSE;
}
// * * * * * * * * * * * * * * * * * * * * * * * * * * * * * * * * * * * * * //

dimensions      [0 0 0 0 0 0 0];

internalField   nonuniform List<vector> 
36520
(
(-5.44378e-05 3.55534e-05 0.000243634)
(-5.12677e-05 5.23664e-05 0.000277983)
(6.22187e-06 7.7381e-05 0.000345597)
(7.23978e-06 0.000101388 0.000415835)
(8.59552e-06 0.000131669 0.000499725)
(9.25139e-06 0.000160366 0.000561763)
(9.57879e-06 0.000189286 0.000617597)
(9.39404e-06 0.000217936 0.00065599)
(8.71978e-06 0.000245793 0.000692814)
(8.0481e-06 0.000269894 0.000726284)
(7.93481e-06 0.000293898 0.000768913)
(8.6013e-06 0.00031681 0.000819102)
(1.01824e-05 0.000343048 0.000882138)
(1.2333e-05 0.000372162 0.000952795)
(1.51833e-05 0.000406111 0.00103603)
(1.91427e-05 0.000446045 0.00114063)
(2.52246e-05 0.000497146 0.00127856)
(3.4423e-05 0.00056738 0.00146891)
(4.75396e-05 0.000667193 0.001722)
(6.48988e-05 0.000807516 0.00205172)
(8.6325e-05 0.000996987 0.00245826)
(0.00011101 0.00124138 0.00293907)
(0.000136884 0.00154202 0.00347286)
(0.000160378 0.00189345 0.00402143)
(0.000176685 0.00228244 0.00451929)
(0.000180336 0.00268686 0.00489115)
(0.000167022 0.00307318 0.00505118)
(0.000136561 0.00340035 0.00492491)
(9.65718e-05 0.00362764 0.00445525)
(6.42601e-05 0.00373558 0.00364932)
(6.51061e-05 0.00375612 0.00260339)
(0.000127021 0.00380364 0.00149882)
(0.000268199 0.00407484 0.000545061)
(0.000482464 0.00478207 -0.000163884)
(0.00073404 0.00604737 -0.000741021)
(0.000974965 0.00783857 -0.00140292)
(0.00116061 0.0100177 -0.00228456)
(0.00124862 0.0123958 -0.00334779)
(0.00118525 0.0147286 -0.00443474)
(0.000900652 0.0165685 -0.00540072)
(0.000380076 0.0172427 -0.00619679)
(-0.000187841 0.0164245 -0.00689529)
(-0.00047193 0.0147943 -0.00697709)
(-0.000594859 0.0134018 -0.00756381)
(-0.00131751 0.0112031 -0.00787564)
(-0.00358279 0.00533269 -0.0227443)
(-0.0022992 -0.0188024 -0.184389)
(0.00084784 -0.0294513 -0.298727)
(0.000102812 0.000384048 0.00312237)
(-0.00135988 0.00104789 0.00370596)
(-0.000118099 2.03657e-05 8.87423e-05)
(-3.00297e-06 7.37364e-07 3.76885e-06)
(-6.8141e-08 8.98082e-09 4.76136e-08)
(-5.60329e-10 8.6254e-11 4.2703e-10)
(-3.61424e-12 7.60811e-13 3.09321e-12)
(-2.06349e-14 5.5206e-15 1.97749e-14)
(-1.09589e-16 2.8076e-17 9.14517e-17)
(-4.70399e-19 9.50337e-20 2.78544e-19)
(-1.34566e-21 1.95699e-22 5.28661e-22)
(-2.37996e-24 1.91746e-25 4.70544e-25)
(-3.81278e-05 0.000394234 0.00081603)
(-2.7139e-06 0.000603489 0.000916102)
(7.19454e-05 0.000808006 0.00107449)
(8.07132e-05 0.00102629 0.00120575)
(7.81349e-05 0.00122268 0.00132566)
(6.53992e-05 0.00136962 0.00134511)
(5.44384e-05 0.00148905 0.00133609)
(4.51812e-05 0.00158027 0.00126537)
(4.21638e-05 0.00166657 0.00118755)
(4.42682e-05 0.0017504 0.00109383)
(5.21348e-05 0.00185635 0.00100779)
(6.25358e-05 0.00197195 0.000921871)
(7.38732e-05 0.00211237 0.000841003)
(8.56496e-05 0.00226466 0.000763364)
(0.00010468 0.00244507 0.000699099)
(0.000134716 0.00267725 0.00066272)
(0.000181668 0.00300616 0.000660721)
(0.000245725 0.00347672 0.000695963)
(0.00032519 0.00412302 0.000756432)
(0.000415529 0.00497224 0.000829458)
(0.000508723 0.00603242 0.000903967)
(0.000593706 0.00730301 0.000969341)
(0.000651413 0.00875998 0.00100587)
(0.000657261 0.0103522 0.000990222)
(0.000588902 0.0119922 0.000891682)
(0.000431417 0.0135634 0.000683098)
(0.000181244 0.0149066 0.000408222)
(-0.000147791 0.0157983 -0.000133962)
(-0.000509195 0.0160824 -0.000784548)
(-0.000813356 0.0157165 -0.00144144)
(-0.000953049 0.0149153 -0.00196599)
(-0.000847674 0.0142944 -0.00221797)
(-0.000521211 0.0143922 -0.00240423)
(-0.000132651 0.0152908 -0.00280045)
(0.000136189 0.0164585 -0.0034556)
(0.000228267 0.0170764 -0.00436149)
(0.000219985 0.0168676 -0.00547856)
(0.00020815 0.0163419 -0.00674267)
(0.00019138 0.016117 -0.00804603)
(5.05713e-05 0.0157173 -0.00918604)
(-0.000333228 0.0137571 -0.00986535)
(-0.00055243 0.00980407 -0.00985003)
(-0.000486953 -0.0701849 -0.385887)
(-0.000144536 -0.165882 -0.855956)
(-0.000288127 -0.185029 -0.951005)
(-0.00114014 -0.193336 -0.970492)
(-0.00121318 -0.204915 -0.972509)
(0.000676539 -0.21911 -0.969301)
(0.005803 -0.231921 -0.943592)
(-0.00272908 0.0141582 0.0284045)
(-0.00188667 0.000299573 0.000623052)
(-4.52984e-05 1.90914e-05 4.76672e-05)
(-1.86508e-06 3.55137e-07 9.2658e-07)
(-2.32624e-08 4.70509e-09 1.13978e-08)
(-2.07211e-10 5.20171e-11 1.06503e-10)
(-1.49521e-12 4.24575e-13 7.71911e-13)
(-9.53562e-15 2.35314e-15 3.76635e-15)
(-4.40588e-17 8.58493e-18 1.192e-17)
(-1.34094e-19 1.90939e-20 2.30936e-20)
(-2.54081e-22 1.97215e-23 2.07913e-23)
(-3.728e-06 0.00120161 0.00113239)
(7.71278e-05 0.00165454 0.000952381)
(0.000148946 0.00216872 0.000903195)
(0.000131683 0.0026219 0.000795647)
(7.92249e-05 0.0028681 0.000635854)
(1.78893e-05 0.00296125 0.00040622)
(-2.52046e-05 0.00299769 0.000199719)
(-5.83971e-05 0.00295545 -1.74533e-05)
(-7.00609e-05 0.00294329 -0.00024107)
(-7.43459e-05 0.00294676 -0.000481534)
(-7.03211e-05 0.00301054 -0.000756839)
(-6.67261e-05 0.00311447 -0.00103196)
(-6.07245e-05 0.0032963 -0.00121889)
(-5.0199e-05 0.00353774 -0.00131688)
(-2.68148e-05 0.00382652 -0.00143326)
(8.50713e-06 0.00418804 -0.00157919)
(5.15618e-05 0.00464961 -0.00177033)
(9.44541e-05 0.00523587 -0.00202997)
(0.000130418 0.00593063 -0.00236986)
(0.000159856 0.00670704 -0.0028056)
(0.000183166 0.00749016 -0.00333664)
(0.000194993 0.00824222 -0.00396158)
(0.000186535 0.00892965 -0.00465971)
(0.0001481 0.00954157 -0.00539245)
(7.21432e-05 0.0100384 -0.00608854)
(-1.2394e-05 0.0102916 -0.00665584)
(-0.000186216 -0.00254158 -0.0523142)
(-0.000308604 -0.0642047 -0.268607)
(-0.000313786 -0.103979 -0.408804)
(-0.00024901 -0.13428 -0.515851)
(-0.000135338 -0.154743 -0.588469)
(-3.91684e-05 -0.167892 -0.635927)
(-8.7239e-06 -0.175241 -0.663863)
(-8.90659e-06 -0.178258 -0.677428)
(-8.97961e-06 -0.178545 -0.682078)
(-9.0431e-06 -0.1787 -0.68624)
(-9.29318e-06 -0.183686 -0.705954)
(-9.8109e-06 -0.195353 -0.747395)
(-1.0585e-05 -0.212922 -0.808674)
(-1.14826e-05 -0.232646 -0.876155)
(-1.21507e-05 -0.248448 -0.927921)
(-0.00397271 -0.25656 -0.952713)
(-0.0132956 -0.258886 -0.961473)
(-0.0199229 -0.293466 -0.954293)
(-0.0226408 -0.345934 -0.937397)
(-0.0168403 -0.408157 -0.912453)
(-0.00583667 -0.466995 -0.884018)
(0.0147263 -0.610558 -0.791522)
(0.0522151 -0.817029 -0.572995)
(0.488216 -0.792238 -0.270791)
(-0.0139373 0.00204611 0.00252666)
(-0.000301141 0.000209806 0.000333019)
(-2.28206e-05 6.27371e-06 1.12793e-05)
(-4.42668e-07 1.15471e-07 1.95292e-07)
(-5.44706e-09 1.54308e-09 2.43774e-09)
(-5.10013e-11 1.38105e-11 1.99996e-11)
(-3.70288e-13 8.18022e-14 1.07181e-13)
(-1.81066e-15 3.13572e-16 3.67164e-16)
(-5.74651e-18 7.20788e-19 7.54729e-19)
(-1.11578e-20 7.61212e-22 7.17512e-22)
(-0.000106396 0.00165251 0.000455643)
(-7.65745e-05 0.00245925 -6.67993e-05)
(3.11422e-05 0.00304868 -0.000535754)
(-2.15395e-05 0.00334993 -0.00100678)
(-9.38331e-05 0.00325615 -0.00151634)
(-0.000135774 0.00307299 -0.00170322)
(-0.000145891 0.00291336 -0.00170015)
(-0.000164947 0.00270412 -0.0016205)
(-0.000177375 0.00255638 -0.00154026)
(-0.000196749 0.0024484 -0.00144766)
(-0.000201523 0.00231411 -0.0022013)
(-0.000145308 0.000482733 -0.00897292)
(-4.69175e-05 -0.0049496 -0.0276006)
(-4.86776e-07 -0.0136396 -0.0573882)
(-7.32459e-07 -0.0243495 -0.094744)
(-1.04286e-06 -0.0375774 -0.141281)
(-1.44811e-06 -0.0549444 -0.201964)
(-1.94874e-06 -0.0767674 -0.277217)
(-2.54112e-06 -0.103355 -0.366889)
(-3.20269e-06 -0.134273 -0.468142)
(-3.89808e-06 -0.168266 -0.576064)
(-4.56528e-06 -0.202264 -0.680861)
(-5.15435e-06 -0.233368 -0.773944)
(-5.59939e-06 -0.257632 -0.844448)
(-5.88119e-06 -0.273377 -0.889024)
(-0.000979932 -0.282654 -0.914642)
(-0.00474219 -0.287621 -0.929037)
(-0.00582925 -0.289182 -0.937563)
(-0.00500699 -0.289455 -0.942167)
(-0.00458513 -0.288523 -0.944808)
(-0.00392469 -0.286898 -0.946522)
(-0.00300214 -0.2851 -0.947803)
(-0.00187393 -0.283583 -0.948796)
(-0.000885841 -0.28215 -0.949425)
(-0.000469659 -0.280136 -0.949472)
(-0.00154715 -0.277934 -0.949176)
(-0.0051452 -0.275963 -0.948964)
(-0.0125546 -0.277881 -0.94869)
(-0.0265963 -0.289366 -0.947212)
(-0.05211 -0.319758 -0.939821)
(-0.0852194 -0.37462 -0.920115)
(-0.108057 -0.446273 -0.887101)
(-0.105844 -0.510644 -0.852823)
(-0.0856008 -0.566621 -0.819371)
(-0.0606812 -0.631298 -0.7731)
(-0.0348385 -0.704516 -0.708796)
(0.000250347 -0.766443 -0.642284)
(0.0311043 -0.877845 -0.477897)
(0.0566864 -0.918871 -0.390371)
(0.303769 -0.769299 -0.560754)
(0.832537 0.00157439 0.000915115)
(-0.00129744 0.00124304 0.00117264)
(-0.000163618 7.08843e-05 9.86185e-05)
(-5.47583e-06 1.84441e-06 2.55928e-06)
(-9.48756e-08 2.88666e-08 3.82687e-08)
(-1.18692e-09 2.95077e-10 3.63854e-10)
(-9.77553e-12 1.95415e-12 2.20647e-12)
(-5.26542e-14 8.25082e-15 8.4247e-15)
(-1.81522e-16 2.05409e-17 1.89443e-17)
(-3.75408e-19 2.33153e-20 1.95439e-20)
(-0.000209749 0.00173479 -0.000782669)
(-0.000320485 0.00251423 -0.00160718)
(-0.000249441 0.00337154 -0.00198089)
(-0.00031809 0.00515107 -0.0037052)
(-0.000259215 0.00187985 -0.0108951)
(-8.40559e-05 0.00112598 -0.0228404)
(-4.71066e-06 0.000788867 -0.0426809)
(-1.38362e-07 0.000115155 -0.0744521)
(-1.30975e-07 -0.000598943 -0.116426)
(-0.000328227 -0.00591503 -0.177784)
(-0.00272051 -0.0216892 -0.265357)
(-0.00774811 -0.0513875 -0.380944)
(-0.0118644 -0.0928911 -0.514838)
(-0.0127021 -0.136258 -0.639172)
(-0.0123306 -0.172278 -0.733136)
(-0.0125388 -0.201056 -0.800586)
(-0.0128103 -0.225991 -0.850509)
(-0.0132666 -0.245269 -0.884215)
(-0.0140841 -0.260071 -0.907026)
(-0.0153841 -0.271825 -0.922697)
(-0.0166826 -0.282281 -0.933844)
(-0.0185833 -0.290701 -0.940981)
(-0.0202596 -0.297691 -0.945307)
(-0.0198864 -0.302971 -0.947762)
(-0.0181643 -0.306087 -0.949023)
(-0.0165815 -0.307419 -0.949704)
(-0.0159557 -0.307548 -0.95016)
(-0.0146842 -0.306815 -0.950639)
(-0.0120788 -0.305623 -0.951136)
(-0.00901737 -0.304411 -0.951548)
(-0.00652961 -0.303807 -0.951722)
(-0.00517036 -0.303531 -0.951778)
(-0.00327075 -0.303493 -0.951803)
(0.00138274 -0.303967 -0.951721)
(0.00524213 -0.30496 -0.951463)
(0.00501029 -0.305795 -0.951255)
(0.00107764 -0.307569 -0.950751)
(-0.00705123 -0.312712 -0.949112)
(-0.0207438 -0.324577 -0.945031)
(-0.0425679 -0.350426 -0.935186)
(-0.0740866 -0.39784 -0.9142)
(-0.110836 -0.456703 -0.882561)
(-0.129047 -0.521343 -0.843481)
(-0.110966 -0.59005 -0.799684)
(-0.0671468 -0.658751 -0.74935)
(-0.03403 -0.702882 -0.710487)
(-0.00190574 -0.765295 -0.643673)
(0.0242661 -0.781037 -0.62401)
(0.0505158 -0.68875 -0.723232)
(0.248035 -0.465201 -0.849699)
(0.996413 -0.014884 -0.0453608)
(-0.00320699 0.00354618 0.000107606)
(-0.000623739 0.000575919 0.000626244)
(-4.9477e-05 1.97891e-05 2.28996e-05)
(-1.27912e-06 3.71747e-07 4.19021e-07)
(-1.91661e-08 4.425e-09 4.68067e-09)
(-1.8318e-10 3.35752e-11 3.26371e-11)
(-1.1188e-12 1.60439e-13 1.41221e-13)
(-4.31065e-15 4.45466e-16 3.54073e-16)
(-9.78174e-18 5.58701e-19 4.035e-19)
(-0.000442982 0.000429067 -0.00424246)
(-0.000535371 0.00430954 -0.00732649)
(-0.000781185 0.0330176 -0.00271401)
(-0.00389785 0.119678 -0.0222472)
(-0.00646001 0.0214288 -0.342145)
(-0.00796533 -0.000591621 -0.517177)
(-0.0100383 -0.0124823 -0.640492)
(-0.00983994 -0.0618916 -0.766538)
(-0.0101354 -0.100638 -0.841016)
(-0.0109637 -0.138689 -0.89135)
(-0.0118339 -0.175461 -0.922986)
(-0.0126663 -0.207602 -0.940981)
(-0.0132103 -0.231935 -0.949811)
(-0.013495 -0.248154 -0.953438)
(-0.0146269 -0.256254 -0.955134)
(-0.0164265 -0.259203 -0.957188)
(-0.0185247 -0.259863 -0.95905)
(-0.020878 -0.26382 -0.959401)
(-0.0240418 -0.270466 -0.958636)
(-0.029737 -0.278199 -0.957211)
(-0.0387743 -0.286766 -0.955056)
(-0.0550425 -0.296311 -0.951807)
(-0.0834708 -0.307207 -0.946633)
(-0.116283 -0.31718 -0.94018)
(-0.133306 -0.324988 -0.935507)
(-0.124977 -0.330884 -0.93475)
(-0.0884341 -0.338685 -0.936254)
(-0.0458557 -0.353515 -0.93391)
(-0.0117988 -0.378114 -0.925303)
(0.00856207 -0.393876 -0.918755)
(0.0115158 -0.392605 -0.919313)
(0.00470339 -0.398823 -0.91671)
(-0.0111087 -0.408786 -0.91221)
(-0.0270726 -0.418665 -0.907334)
(-0.0278397 -0.406132 -0.913013)
(-0.0237708 -0.379429 -0.924597)
(-0.0252494 -0.36261 -0.931329)
(-0.0375326 -0.35419 -0.934203)
(-0.0627066 -0.340999 -0.937817)
(-0.0965481 -0.336888 -0.936488)
(-0.142886 -0.339549 -0.929618)
(-0.20422 -0.375471 -0.904026)
(-0.229364 -0.443972 -0.866175)
(-0.145472 -0.502317 -0.852355)
(-0.0823715 -0.582452 -0.80868)
(-0.043338 -0.681757 -0.730293)
(-0.0177039 -0.680348 -0.732675)
(0.0116785 -0.633791 -0.773416)
(0.0905614 -0.555853 -0.826332)
(0.645109 -0.354476 -0.676882)
(0.99958 -0.009026 -0.0239139)
(0.900288 0.00109776 0.00216637)
(-0.000401657 0.00351407 0.00348852)
(-0.000331579 0.000155784 0.000151397)
(-1.19541e-05 3.48977e-06 3.27287e-06)
(-2.18919e-07 4.84031e-08 4.25059e-08)
(-2.45979e-09 4.24506e-10 3.41047e-10)
(-1.73093e-11 2.32803e-12 1.68214e-12)
(-7.58053e-14 7.34069e-15 4.75682e-15)
(-1.92463e-16 1.03615e-17 6.05011e-18)
(-0.00163035 -0.00228241 -0.0379363)
(0.000157283 -0.198034 -0.856406)
(-6.59133e-05 -0.226117 -0.958132)
(-0.00255874 -0.215396 -0.966419)
(-0.0166006 -0.130827 -0.959613)
(-0.0196557 -0.0737528 -0.965902)
(-0.0464543 0.0659947 -0.955254)
(-0.0450154 -0.00845458 -0.974699)
(-0.0385722 -0.0851159 -0.982237)
(-0.036759 -0.136135 -0.982414)
(-0.0374102 -0.168221 -0.980523)
(-0.039582 -0.184895 -0.979036)
(-0.040411 -0.194532 -0.97795)
(-0.0362908 -0.203606 -0.976707)
(-0.0353961 -0.214994 -0.974578)
(-0.0382111 -0.23291 -0.970587)
(-0.0400298 -0.251913 -0.965942)
(-0.0452197 -0.26632 -0.961954)
(-0.0543057 -0.275578 -0.958984)
(-0.0623077 -0.290408 -0.954221)
(-0.0624204 -0.310138 -0.948092)
(-0.0634238 -0.329352 -0.941602)
(-0.076635 -0.352898 -0.932092)
(-0.101295 -0.394186 -0.913035)
(-0.110312 -0.461205 -0.880038)
(-0.110956 -0.558102 -0.821979)
(-0.110527 -0.534879 -0.837381)
(-0.0607293 -0.406403 -0.911448)
(-0.0195347 -0.330569 -0.943399)
(-0.0350294 -0.425876 -0.903954)
(-0.0254914 -0.725673 -0.68744)
(0.00887717 -0.695916 -0.71797)
(0.0269723 -0.685419 -0.727554)
(0.00736109 -0.654569 -0.755865)
(-0.0323926 -0.456278 -0.889133)
(-0.0640246 -0.358521 -0.931191)
(-0.0932352 -0.467854 -0.87873)
(-0.188884 -0.475665 -0.858954)
(-0.465025 -0.422301 -0.777891)
(-0.765217 -0.260143 -0.588658)
(-0.877589 -0.112325 -0.46592)
(-0.966518 0.02039 -0.255676)
(-0.995646 0.0467828 -0.080544)
(-0.992149 0.00896593 -0.124724)
(-0.625108 -0.508604 -0.592081)
(-0.106776 -0.679502 -0.725862)
(-0.0315445 -0.665954 -0.745326)
(0.0319333 -0.647793 -0.761147)
(0.281432 -0.623831 -0.72913)
(0.969923 -0.156351 -0.18655)
(0.999962 -0.00397547 -0.00521092)
(0.992323 0.00101891 0.00118028)
(-0.0114047 0.0191694 0.0165116)
(-0.00196585 0.000961216 0.000767154)
(-8.46536e-05 2.45734e-05 1.81813e-05)
(-1.83223e-06 3.90373e-07 2.6258e-07)
(-2.39798e-08 3.9472e-09 2.36604e-09)
(-1.94873e-10 2.49845e-11 1.31067e-11)
(-9.77914e-13 9.04436e-14 4.13043e-14)
(-2.81689e-15 1.45686e-16 5.81315e-17)
(-0.78878 0.00231678 -0.000265713)
(-0.970139 0.0127922 -0.0139714)
(-0.00120035 -0.971529 0.236783)
(0.000921589 -0.988882 0.148473)
(0.00699838 -0.953061 -0.302078)
(0.00361626 -0.112133 -0.992788)
(-0.0125079 0.022409 -0.997056)
(-0.030186 -0.0337948 -0.997843)
(-0.0475443 -0.0365421 -0.997207)
(-0.0690042 -0.0350706 -0.99611)
(-0.0517366 -0.066263 -0.995994)
(-0.0336326 -0.117463 -0.992253)
(-0.0310705 -0.0800808 -0.996073)
(-0.0313046 -0.0624156 -0.997317)
(-0.0405294 -0.0521152 -0.997532)
(-0.0569992 -0.0369808 -0.997342)
(-0.0535774 -0.0300933 -0.997769)
(-0.0527128 -0.0349072 -0.997673)
(-0.0643731 -0.0894511 -0.993601)
(-0.0777623 -0.151231 -0.985154)
(-0.079613 -0.196514 -0.977016)
(-0.0650149 -0.229289 -0.970973)
(-0.0487153 -0.246961 -0.967626)
(-0.0425218 -0.247209 -0.967892)
(-0.0436131 -0.234211 -0.971107)
(-0.0449222 -0.219545 -0.974498)
(-0.045616 -0.20115 -0.978447)
(-0.0439359 -0.17005 -0.984416)
(-0.0421964 -0.146339 -0.988301)
(-0.0511732 -0.135966 -0.989362)
(-0.0619624 -0.126716 -0.989975)
(-0.0352314 -0.118087 -0.992354)
(0.00337541 -0.11218 -0.993661)
(0.0254979 -0.105976 -0.994022)
(0.0316863 -0.0886862 -0.995536)
(0.0175666 -0.0506123 -0.998545)
(0.00722207 -0.034473 -0.999361)
(0.0179696 -0.00849915 -0.999782)
(0.0249622 0.0687661 -0.997292)
(-0.10606 0.621646 -0.775979)
(-0.263224 0.816303 0.51403)
(-0.2502 0.576997 0.777435)
(-0.360037 0.552975 0.751377)
(-0.758307 0.330936 0.561648)
(-0.983205 0.0682025 0.169279)
(-0.689969 -0.54107 -0.480818)
(-0.0861534 -0.767283 -0.635495)
(0.178374 -0.799666 -0.573338)
(0.732752 -0.588533 -0.341618)
(0.996422 -0.08022 -0.0265821)
(0.999986 -0.00250842 -0.000184374)
(0.994382 0.00324011 0.00147763)
(-0.0796028 0.0739126 0.0486137)
(-0.0105906 0.00437903 0.0029474)
(-0.000489292 0.00012533 7.90921e-05)
(-1.17027e-05 2.25345e-06 1.2573e-06)
(-1.71978e-07 2.62603e-08 1.21854e-08)
(-1.58848e-09 1.93087e-10 7.00576e-11)
(-9.09122e-12 8.11514e-13 2.18407e-13)
(-2.97188e-14 1.51211e-15 2.8889e-16)
(0.000730802 -0.920704 -0.390188)
(0.000730958 -0.920835 -0.389929)
(-0.00157294 -0.920938 -0.389702)
(-0.000230269 -0.921052 -0.389437)
(0.00127127 -0.920944 -0.389692)
(0.00174231 -0.92103 -0.389485)
(0.000875284 -0.921199 -0.389088)
(0.000315862 -0.92131 -0.388825)
(0.000583555 -0.920897 -0.389803)
(9.67525e-05 -0.92006 -0.391774)
(-0.000669443 -0.919341 -0.393459)
(-0.000153768 -0.919624 -0.392798)
(0.000679248 -0.920202 -0.391441)
(0.000958035 -0.920359 -0.391072)
(0.00108085 -0.920256 -0.391313)
(0.000914473 -0.920245 -0.391341)
(0.000613969 -0.920289 -0.391237)
(0.000415526 -0.920118 -0.391638)
(-0.00024093 -0.918759 -0.394813)
(-0.00302398 -0.912767 -0.408452)
(-0.00569827 -0.907446 -0.420111)
(-0.00754142 -0.903101 -0.429344)
(-0.00942362 -0.900675 -0.434377)
(-0.011577 -0.900441 -0.434813)
(-0.011592 -0.904108 -0.42714)
(-0.00806817 -0.909322 -0.416011)
(-0.00388914 -0.913797 -0.406151)
(-0.00145503 -0.917275 -0.398252)
(-0.000535188 -0.919094 -0.394036)
(-0.000309295 -0.919382 -0.393364)
(-0.00049872 -0.919396 -0.393332)
(-0.000854288 -0.919541 -0.392992)
(-0.000651125 -0.919605 -0.392843)
(4.73631e-05 -0.919492 -0.393107)
(0.000403497 -0.919033 -0.394179)
(0.000409435 -0.918304 -0.395874)
(0.0011882 -0.917696 -0.397281)
(0.0040246 -0.917535 -0.397635)
(0.00848945 -0.917548 -0.397532)
(0.00828665 -0.917315 -0.398074)
(0.00299884 -0.917055 -0.398748)
(-0.000102357 -0.916953 -0.398994)
(-0.000538816 -0.920225 -0.391387)
(-0.137107 -0.931235 -0.337639)
(-0.978087 -0.208108 -0.00596007)
(-0.725655 -0.622885 -0.292298)
(-0.22159 -0.776638 -0.589688)
(0.357474 -0.79889 -0.483721)
(0.839245 -0.504999 -0.201604)
(0.994037 -0.106042 -0.0254016)
(0.999963 -0.00728266 -0.00080924)
(0.993381 0.0107625 0.00517383)
(-0.166358 0.17245 0.108494)
(-0.0400989 0.0149494 0.00886771)
(-0.00223204 0.000541588 0.000304177)
(-6.02736e-05 1.15005e-05 6.16368e-06)
(-9.94465e-07 1.54415e-07 7.89377e-08)
(-1.0295e-08 1.28694e-09 6.28639e-10)
(-6.56075e-11 6.04899e-12 2.84127e-12)
(-2.36496e-13 1.24878e-14 5.68582e-15)
(0.127047 0.670004 0.0356685)
(0.000689497 -0.973433 -0.228813)
(0.000674954 -0.973339 -0.22934)
(5.24748e-05 -0.973042 -0.23062)
(0.000500892 -0.972927 -0.231108)
(0.000839687 -0.972953 -0.231)
(0.000791944 -0.97284 -0.231477)
(0.000319928 -0.972766 -0.231787)
(-0.000445892 -0.972656 -0.232248)
(-0.000862975 -0.972523 -0.232804)
(-0.00023848 -0.97244 -0.233152)
(0.000472319 -0.972334 -0.233592)
(0.000583346 -0.972149 -0.234363)
(0.000522051 -0.971983 -0.235051)
(0.000713771 -0.971814 -0.235746)
(0.00106346 -0.971658 -0.236386)
(0.0011299 -0.971521 -0.236949)
(0.000938384 -0.971379 -0.237532)
(0.000668307 -0.971218 -0.23819)
(9.04224e-05 -0.970952 -0.239274)
(-0.00222304 -0.96998 -0.24317)
(-0.00632332 -0.967911 -0.251204)
(-0.00759554 -0.968714 -0.248053)
(-0.00910228 -0.969987 -0.24298)
(-0.0096831 -0.970824 -0.239591)
(-0.00725366 -0.97102 -0.238885)
(-0.00322752 -0.970934 -0.239324)
(-0.000396736 -0.970687 -0.240347)
(0.000513162 -0.970584 -0.240761)
(0.000491731 -0.970586 -0.240753)
(0.000403216 -0.970596 -0.240715)
(0.000410419 -0.970607 -0.240671)
(0.000444695 -0.970625 -0.240597)
(0.000465015 -0.970548 -0.240905)
(0.000464112 -0.970414 -0.241447)
(0.000524426 -0.970334 -0.241767)
(0.000869853 -0.97035 -0.241701)
(0.00145533 -0.970396 -0.241514)
(0.00159575 -0.970116 -0.242634)
(0.000898865 -0.96898 -0.247137)
(0.000510322 -0.968238 -0.250029)
(0.00269865 -0.968077 -0.250638)
(0.00636727 -0.968274 -0.249807)
(-0.0629047 -0.966156 -0.250168)
(-0.845696 -0.516227 -0.135305)
(-0.58705 -0.793893 -0.158449)
(-0.205749 -0.954718 -0.214898)
(0.381069 -0.899935 -0.211905)
(0.846075 -0.522044 -0.107825)
(0.9938 -0.109963 -0.016385)
(0.999967 -0.00630568 3.49364e-06)
(0.987372 0.0166404 0.00510893)
(-0.135006 0.187869 0.0643982)
(-0.0435038 0.0156721 0.00496826)
(-0.00243248 0.000567299 0.000174459)
(-6.74325e-05 1.21622e-05 3.65411e-06)
(-1.1476e-06 1.64206e-07 4.79761e-08)
(-1.20906e-08 1.35797e-09 3.85336e-10)
(-7.70854e-11 6.25833e-12 1.73279e-12)
(-2.73999e-13 1.25603e-14 3.4131e-15)
(0.000240608 -0.981836 -0.189676)
(0.000240754 -0.981729 -0.190264)
(-0.000894147 -0.981595 -0.19097)
(-0.000259247 -0.981415 -0.191898)
(0.000480822 -0.981253 -0.192723)
(0.000837171 -0.981022 -0.193893)
(0.000458024 -0.980766 -0.195184)
(0.000217563 -0.980495 -0.196543)
(6.48114e-05 -0.980454 -0.196744)
(-0.000115325 -0.980602 -0.196005)
(-0.000146868 -0.980621 -0.195912)
(-1.88559e-05 -0.980246 -0.197782)
(0.000101879 -0.979921 -0.199383)
(0.000166852 -0.979729 -0.200324)
(0.000251096 -0.979573 -0.201086)
(0.00029771 -0.979331 -0.202262)
(0.000231765 -0.978985 -0.203931)
(9.641e-05 -0.978738 -0.205113)
(-0.000245928 -0.97864 -0.20558)
(-0.00145693 -0.978627 -0.205635)
(-0.00730564 -0.976547 -0.215171)
(-0.0425552 -0.976441 -0.211435)
(0.00772871 -0.995255 0.0964379)
(-0.00772082 -0.999521 -0.0294159)
(-0.00811842 -0.986583 -0.163034)
(-0.00278177 -0.977609 -0.210406)
(-0.000435913 -0.978573 -0.2059)
(8.41124e-05 -0.978473 -0.206372)
(0.000191516 -0.97806 -0.208321)
(0.000169558 -0.97786 -0.209257)
(7.91009e-05 -0.977335 -0.211698)
(-2.79742e-05 -0.975916 -0.218145)
(-8.78006e-05 -0.975783 -0.21874)
(2.06046e-05 -0.975726 -0.218993)
(0.000225418 -0.976739 -0.214431)
(0.000426161 -0.977161 -0.212498)
(0.000720703 -0.977177 -0.212424)
(0.00133079 -0.977753 -0.209756)
(0.00216748 -0.979932 -0.199315)
(0.00135491 -0.986359 -0.164593)
(-0.00255358 -0.99305 -0.117648)
(0.00403233 -0.993246 -0.115942)
(0.00840059 -0.987861 -0.155099)
(-0.163093 -0.964985 -0.205427)
(-0.929891 -0.362243 -0.0638893)
(-0.674395 -0.738341 0.00658868)
(-0.276839 -0.937938 -0.208886)
(0.406791 -0.720628 -0.561441)
(0.827915 -0.183688 -0.52992)
(0.984136 0.00805458 -0.177231)
(0.999668 0.00782647 -0.0241276)
(0.989535 0.0060644 0.0200193)
(-0.197993 0.185254 0.0818462)
(-0.0552217 0.0155159 0.00518289)
(-0.0030338 0.000561322 0.000159639)
(-8.27804e-05 1.2066e-05 2.90581e-06)
(-1.38376e-06 1.61252e-07 3.46976e-08)
(-1.42691e-08 1.29783e-09 2.66035e-10)
(-8.84798e-11 5.76225e-12 1.17404e-12)
(-3.04423e-13 1.10724e-14 2.28243e-15)
(0.040595 0.987472 -0.121745)
(0.00326404 -0.890931 -0.453921)
(0.00020707 -0.89358 -0.448886)
(1.22778e-05 -0.895544 -0.444969)
(-1.92325e-05 -0.891886 -0.452257)
(-0.000240909 -0.889916 -0.456121)
(-0.0040088 -0.892214 -0.451569)
(-0.0990042 -0.804372 -0.585317)
(-0.0774755 -0.770979 -0.631574)
(-0.0325714 -0.877164 -0.478814)
(-0.00981918 -0.902733 -0.42999)
(-0.00259381 -0.908089 -0.418727)
(-0.00111318 -0.910562 -0.413341)
(-0.00184805 -0.913446 -0.406926)
(-0.00616554 -0.915842 -0.401456)
(-0.0148455 -0.915821 -0.401264)
(-0.00707779 -0.91975 -0.392363)
(0.0404514 -0.940161 -0.338149)
(-0.00327975 -0.997723 -0.0652619)
(-0.781063 -0.558116 0.279509)
(-0.921077 0.0276822 0.387893)
(0.156689 -0.153549 0.975425)
(0.176613 -0.959642 0.218369)
(-0.0816326 -0.982266 -0.168535)
(-0.41602 -0.900502 -0.126297)
(-0.349239 -0.933046 -0.0858363)
(0.157227 -0.723653 -0.671984)
(0.133634 -0.637737 -0.758556)
(0.0726452 -0.860278 -0.50459)
(-0.110254 -0.965272 -0.236759)
(-0.457559 -0.87322 -0.167582)
(-0.550639 -0.832177 -0.0648718)
(0.0404256 -0.973471 -0.225029)
(0.326848 -0.625085 -0.708795)
(0.335034 -0.712344 -0.616669)
(0.0755701 -0.803841 -0.589991)
(-0.0387195 -0.976227 -0.21314)
(0.0499781 -0.987844 -0.147026)
(0.0689271 -0.956262 -0.2842)
(0.021247 -0.918047 -0.395849)
(0.00208894 -0.889353 -0.457168)
(0.0292308 -0.947432 -0.318511)
(0.320858 0.0482369 0.945331)
(-0.880156 0.473308 -0.0354999)
(-0.991405 -0.111642 -0.0682019)
(-0.772754 -0.628351 -0.0895879)
(-0.412045 -0.903735 -0.116109)
(0.276706 -0.847482 -0.452998)
(0.82185 -0.362305 -0.439656)
(0.995159 -0.0215177 -0.0958969)
(0.999953 0.00313974 -0.00882053)
(0.999221 0.00178933 0.00206797)
(-0.513217 0.100483 0.0473092)
(-0.0716656 0.0114336 0.00433089)
(-0.00350255 0.000391546 0.000138714)
(-8.79107e-05 7.29273e-06 2.29873e-06)
(-1.27744e-06 8.16353e-08 2.28971e-08)
(-1.11894e-08 5.47828e-10 1.42056e-10)
(-5.91681e-11 2.04637e-12 5.12416e-13)
(-1.75813e-13 3.33099e-15 8.22895e-16)
(-0.330049 0.884051 0.306975)
(-0.0447669 -0.948074 0.314582)
(-0.0266147 -0.987454 0.155598)
(-0.0127782 -0.997361 0.071447)
(-0.00229621 -0.99837 0.0570129)
(0.0175139 -0.986061 0.165444)
(0.0603508 -0.935251 0.348767)
(0.0177471 -0.815092 0.578542)
(-0.0708828 -0.756384 0.649741)
(-0.0261572 -0.83874 0.543673)
(-0.0011003 -0.875974 0.482271)
(0.003881 -0.892979 0.450044)
(0.00191 -0.904317 0.426829)
(-0.00136588 -0.917779 0.397057)
(-0.00392051 -0.923832 0.382741)
(-0.00609701 -0.923727 0.382953)
(-0.00544868 -0.915698 0.401758)
(-0.00256907 -0.902847 0.429831)
(-0.126514 -0.91799 0.375528)
(-0.827435 -0.544947 0.133879)
(-0.541396 0.0374172 0.839761)
(-0.0344548 0.256382 0.965759)
(0.177349 -0.760045 0.625031)
(0.0573934 -0.886917 0.458261)
(-0.00242099 -0.841298 0.540509)
(-0.319114 -0.636148 0.702453)
(-0.56241 -0.550013 0.617365)
(0.101992 -0.786936 0.608492)
(0.536989 -0.804678 0.253166)
(0.21168 -0.950491 0.227414)
(0.0125449 -0.923891 0.382396)
(-0.0565789 -0.716386 0.695383)
(-0.310504 -0.677687 0.666555)
(-0.358956 -0.601694 0.713492)
(0.0282765 -0.980729 0.19313)
(0.47948 -0.863613 -0.155596)
(0.398478 -0.915577 0.0537419)
(0.076169 -0.973011 0.217731)
(-0.0416512 -0.959025 0.28017)
(-0.091366 -0.963228 0.252589)
(-0.0181273 -0.981212 0.191939)
(0.242367 -0.965681 -0.0928873)
(0.294978 0.845145 -0.445586)
(-0.777688 0.610271 -0.150794)
(-0.987799 -0.136057 -0.0757628)
(-0.715178 -0.693248 -0.0890333)
(-0.370149 -0.893813 0.253156)
(0.220481 -0.734596 0.641683)
(0.759116 -0.346846 0.550855)
(0.993987 -0.0147674 0.108497)
(0.999959 0.00438361 0.0075457)
(0.999356 0.00161841 -0.00144807)
(-0.513379 0.0988041 -0.0669848)
(-0.0696911 0.0112423 -0.00689169)
(-0.00336669 0.000388586 -0.000205847)
(-8.50207e-05 7.28694e-06 -3.28647e-06)
(-1.24522e-06 8.19089e-08 -3.23308e-08)
(-1.09655e-08 5.51376e-10 -1.99049e-10)
(-5.8173e-11 2.06535e-12 -7.09654e-13)
(-1.73227e-13 3.36993e-15 -1.12556e-15)
(-0.993795 0.0723688 0.0616501)
(-0.321273 -0.946057 -0.0414424)
(-0.0619262 -0.992823 0.102302)
(-0.0138245 -0.993027 0.117069)
(0.00334487 -0.992299 0.123821)
(0.0118459 -0.988706 0.1494)
(0.010692 -0.98344 0.180917)
(0.00211773 -0.982334 0.187122)
(-0.00010898 -0.982368 0.186945)
(-0.000152929 -0.982447 0.186531)
(-0.000407054 -0.982413 0.186712)
(-0.000609021 -0.982442 0.186566)
(-0.00063433 -0.982491 0.186306)
(-0.000444694 -0.982512 0.186199)
(-0.000147323 -0.982457 0.186486)
(3.78836e-05 -0.982302 0.187305)
(0.000159626 -0.982067 0.188532)
(0.000106939 -0.981987 0.188946)
(-0.000276475 -0.982159 0.18805)
(-0.00099845 -0.982287 0.187374)
(-0.00323544 -0.979352 0.202126)
(-0.0374314 -0.831893 0.553602)
(-0.0853972 0.626073 0.774931)
(-0.0746508 -0.75877 0.64689)
(-0.0082265 -0.997807 0.06555)
(-0.00498177 -0.995654 0.0929746)
(-0.00264456 -0.984358 0.176153)
(-0.000996235 -0.979808 0.199937)
(-0.000504819 -0.980822 0.194905)
(-0.000455094 -0.981349 0.192234)
(-0.000410309 -0.981192 0.193031)
(-0.000481811 -0.981098 0.193508)
(-0.000744307 -0.98074 0.195312)
(-0.00113574 -0.981146 0.193265)
(-0.000825422 -0.98228 0.187416)
(0.000180284 -0.982691 0.18525)
(0.0014429 -0.983497 0.180916)
(0.00288038 -0.982997 0.183598)
(0.00239556 -0.983465 0.181077)
(-0.00151143 -0.984342 0.176256)
(-0.00650177 -0.984755 0.173808)
(0.00697784 -0.986986 0.160636)
(0.00436966 -0.982746 0.184889)
(-0.457223 -0.869052 0.18892)
(-0.935028 -0.352561 0.0377123)
(-0.535421 -0.835603 -0.122848)
(-0.133624 -0.964022 0.229795)
(0.42319 -0.544809 0.723943)
(0.681118 0.0124452 0.732068)
(0.927759 0.085791 0.363183)
(0.997343 0.0238216 0.0685116)
(0.779635 0.260704 -0.273971)
(-0.292358 0.125008 -0.0951447)
(-0.04087 0.0102749 -0.00636431)
(-0.00198976 0.000389474 -0.00018137)
(-5.64634e-05 8.86872e-06 -3.0998e-06)
(-9.85761e-07 1.21808e-07 -3.41976e-08)
(-1.03689e-08 9.85293e-10 -2.39506e-10)
(-6.44624e-11 4.33948e-12 -9.66788e-13)
(-2.20216e-13 8.23501e-15 -1.73935e-15)
(-0.0284918 -0.975355 0.21877)
(-0.0757923 -0.979613 0.18604)
(-0.0953215 -0.976571 0.192931)
(-0.03298 -0.974467 0.222096)
(0.00460733 -0.974799 0.223038)
(0.0302557 -0.975081 0.219775)
(0.0524805 -0.974865 0.216527)
(0.0605321 -0.974778 0.214794)
(-0.18392 -0.95007 -0.249805)
(-0.421711 -0.435399 -0.794548)
(-0.0659209 -0.991016 0.11596)
(-0.023108 -0.981156 0.191787)