/*--------------------------------*- C++ -*----------------------------------*\
| =========                 |                                                 |
| \\      /  F ield         | OpenFOAM: The Open Source CFD Toolbox           |
|  \\    /   O peration     | Version:  2.1.1                                 |
|   \\  /    A nd           | Web:      www.OpenFOAM.org                      |
|    \\/     M anipulation  |                                                 |
\*---------------------------------------------------------------------------*/
FoamFile
{
    version     2.0;
    format      ascii;
    class       volScalarField;
    location    "0.0011";
    object      k;
}
// * * * * * * * * * * * * * * * * * * * * * * * * * * * * * * * * * * * * * //

dimensions      [0 2 -2 0 0 0 0];

internalField   nonuniform List<scalar> 
36520
(
0.067863
0.124425
0.199751
0.218019
0.241384
0.249892
0.259863
0.263982
0.264995
0.26281
0.256699
0.248778
0.238411
0.227208
0.21512
0.203375
0.191272
0.179701
0.167952
0.156398
0.144504
0.132506
0.120147
0.107745
0.0954345
0.0836432
0.0725411
0.0623745
0.0532404
0.0452277
0.038303
0.032442
0.0275544
0.0235437
0.0202849
0.0176536
0.0155168
0.0137431
0.0122145
0.0108267
0.00948719
0.00812308
0.00671504
0.00529804
0.00393823
0.00285269
0.00207799
0.00148165
0.000734988
0.000289376
0.000220668
0.00019605
0.000184766
0.000173006
0.000173039
0.000166764
0.000170727
0.000166537
0.000172516
0.00019161
0.034574
0.0344029
0.0390642
0.0338973
0.0313994
0.0290206
0.0285887
0.0276107
0.026637
0.0251263
0.0234647
0.0217585
0.0202194
0.0191419
0.018398
0.0179424
0.017529
0.0170876
0.0164588
0.0156038
0.0144573
0.013095
0.0115158
0.00984612
0.00824374
0.00682562
0.00561102
0.0046159
0.00385805
0.00330977
0.00293455
0.00270513
0.00260399
0.00260012
0.00266779
0.00278511
0.00292769
0.00308106
0.00324585
0.00342446
0.00362651
0.00386957
0.00419142
0.00451618
0.00489803
0.00537537
0.00599166
0.00570319
0.00291173
0.000364391
3.40911e-05
2.9452e-05
3.22058e-05
3.34169e-05
3.48277e-05
3.48352e-05
3.56859e-05
3.53585e-05
4.0918e-05
0.00012766
0.014801
0.0083383
0.00729671
0.0050821
0.0040534
0.00339182
0.00318635
0.00298391
0.00279504
0.00257954
0.00235788
0.0021667
0.00202072
0.00195489
0.00195803
0.00200196
0.00206144
0.00210547
0.00211967
0.00208838
0.00200743
0.00189036
0.00174397
0.00159692
0.00148311
0.00141995
0.00140607
0.0014371
0.00150916
0.00161356
0.00174547
0.0019072
0.00210509
0.00235084
0.00266064
0.00305327
0.00355495
0.00419831
0.00502914
0.00610518
0.00749562
0.00925628
0.0114236
0.0139765
0.016384
0.0183432
0.0200901
0.0186911
0.0103393
0.00191579
7.10779e-05
5.68108e-06
4.28651e-06
4.22762e-06
4.21583e-06
4.11927e-06
4.1259e-06
4.16654e-06
9.46948e-06
0.000106362
0.00682923
0.00226957
0.00153419
0.00089824
0.000657671
0.000532536
0.000504986
0.000488295
0.000484271
0.000486223
0.000496339
0.000521975
0.0005629
0.000622573
0.000701251
0.000794936
0.000901872
0.00102249
0.00115796
0.00131327
0.0014939
0.00170987
0.00196969
0.00228554
0.00266159
0.00309851
0.0035883
0.00412093
0.00465505
0.00515274
0.00560067
0.00600314
0.00637986
0.00679008
0.00730733
0.00801241
0.00901471
0.0104202
0.0123696
0.0150472
0.0187257
0.0236863
0.0301484
0.0378101
0.0452285
0.0496949
0.0510047
0.0454766
0.0262677
0.00678522
0.00037631
1.27966e-05
7.76674e-07
4.43659e-07
3.80997e-07
3.44008e-07
3.26294e-07
4.48963e-07
5.73025e-06
0.000102759
0.0033514
0.00070494
0.000413609
0.000279598
0.000243763
0.000243258
0.000282342
0.000339416
0.000417796
0.00051822
0.000648698
0.000811982
0.00101414
0.0012613
0.00154932
0.00188633
0.002302
0.00282865
0.00349183
0.00435023
0.00547646
0.00696568
0.00892876
0.0114998
0.0147787
0.0188724
0.0238753
0.0298484
0.0361123
0.0418911
0.0472219
0.0510422
0.0495206
0.0434621
0.0359709
0.0305206
0.0300415
0.031908
0.0354877
0.041132
0.0494976
0.0613178
0.0783238
0.10078
0.120264
0.122202
0.111605
0.0927539
0.0562971
0.0177385
0.00157374
7.30511e-05
2.29979e-06
1.02954e-07
3.72749e-08
2.81215e-08
2.55541e-08
1.6141e-07
5.43844e-06
0.000102201
0.00202552
0.000401647
0.000585249
0.00159162
0.00134581
0.00111588
0.00124052
0.00152557
0.00189893
0.0024018
0.0030865
0.00395402
0.00497439
0.00624437
0.00764545
0.00924984
0.0114928
0.0145642
0.0187895
0.024758
0.0332511
0.0453123
0.0627297
0.087923
0.122531
0.166921
0.222572
0.295414
0.377517
0.44849
0.4808
0.477055
0.435
0.361326
0.27934
0.209212
0.160889
0.140113
0.137132
0.142449
0.156876
0.178822
0.21006
0.251488
0.279452
0.262886
0.210878
0.160591
0.105071
0.0382652
0.00522684
0.000347667
1.54602e-05
4.25e-07
1.17093e-08
3.9019e-09
5.9314e-09
1.43326e-07
5.41148e-06
0.000102105
0.00267855
0.00300446
0.0108473
0.0395464
0.033654
0.0202343
0.015183
0.017238
0.0206543
0.0253599
0.0322011
0.0415698
0.0533447
0.0698839
0.0916169
0.100205
0.114412
0.135415
0.155541
0.179425
0.225294
0.293045
0.383985
0.518087
0.710139
0.923694
1.11498
1.3244
1.52719
1.66244
1.72885
1.73152
1.65039
1.46933
1.21874
0.956597
0.72131
0.535677
0.413183
0.350923
0.330929
0.326772
0.336324
0.357315
0.369995
0.340638
0.275701
0.207915
0.150379
0.0731266
0.0146398
0.00131672
7.2347e-05
2.39461e-06
5.20058e-08
3.30363e-09
5.06512e-09
1.41647e-07
5.39267e-06
0.00010197
0.0244906
0.0567482
0.242585
0.596927
0.647239
0.381255
0.255637
0.292534
0.358497
0.445174
0.569659
0.744069
0.961591
1.23556
1.29375
1.17504
1.13833
1.24571
1.35965
1.47927
1.66093
1.91452
2.20072
2.5051
2.84315
3.18536
3.44705
3.57793
3.60359
3.57089
3.4774
3.3261
3.12895
2.87352
2.5515
2.18484
1.81302
1.46227
1.1491
0.882306
0.691367
0.587848
0.524399
0.451905
0.380747
0.317815
0.255694
0.200937
0.157325
0.0926083
0.0266497
0.00330844
0.000230184
9.41208e-06
2.374e-07
6.3131e-09
5.04254e-09
1.40462e-07
5.36993e-06
0.000101776
0.0590052
0.0862149
0.224879
0.416374
0.594139
0.857133
1.09907
1.44151
1.7929
2.12973
2.53315
3.07543
3.60594
4.0075
4.23984
4.21365
3.97816
3.75242
3.62838
3.55572
3.49257
3.46015
3.45423
3.45763
3.46647
3.48249
3.48777
3.46087
3.39087
3.28196
3.14608
2.98643
2.8032
2.59062
2.34372
2.08229
1.83576
1.61869
1.43445
1.26303
1.06559
0.858842
0.699874
0.576605
0.451148
0.334862
0.245209
0.185634
0.148704
0.097643
0.0366917
0.006476
0.000601947
3.10563e-05
9.41426e-07
1.99547e-08
5.1809e-09
1.39625e-07
5.35122e-06
0.000101564
0.0587262
0.084164
0.229658
0.421736
0.683466
0.882136
1.01821
1.13194
1.25476
1.41589
1.6278
1.88779
2.19709
2.52201
2.8651
3.16808
3.43843
3.71325
3.96176
4.00303
3.83556
3.60704
3.42914
3.34005
3.30719
3.28672
3.26964
3.25252
3.20676
3.10562
2.95331
2.76047
2.52962
2.27426
2.01442
1.7564
1.48127
1.17618
0.884392
0.650734
0.503637
0.408509
0.328547
0.26376
0.220287
0.186305
0.157225
0.139925
0.129372
0.092522
0.0364877
0.00686486
0.00068124
3.70865e-05
1.16562e-06
2.45014e-08
5.22989e-09
1.3968e-07
5.35252e-06
0.000101569
0.0435621
0.0608345
0.369988
0.937319
1.4238
1.92493
2.35055
2.70595
3.03304
3.37667
3.74722
4.28324
4.99147
5.77413
6.48344
7.14186
7.89353
8.7883
9.43112
9.36609
8.71263
8.09135
7.75056
7.70048
7.84374
8.0533
8.27539
8.44409
8.45885
8.30311
7.98048
7.50295
6.90969
6.21267
5.42545
4.57052
3.66859
2.66923
1.74097
1.08704
0.69278
0.4872
0.386815
0.323621
0.271921
0.229549
0.191721
0.163931
0.145015
0.105057
0.043441
0.00847434
0.000852022
4.65384e-05
1.45471e-06
2.95993e-08
5.27567e-09
1.39628e-07
5.34882e-06
0.000101452
0.0380307
0.103223
0.467798
1.28122
1.9119
2.58635
3.04527
3.58925
4.53685
5.9474
7.6866
9.57107
11.4081
13.0023
13.9967
14.4999
14.789
14.867
14.4392
13.3399
11.7086
10.1649
9.51569
9.66671
10.3493
11.303
12.2108
12.7932
12.9465
12.7212
12.2363
11.6013
10.8873
9.9584
8.78589
7.35541
5.68241
3.97972
2.50766
1.42653
0.827401
0.588762
0.536176
0.52966
0.486383
0.433221
0.363282
0.283295
0.211884
0.139769
0.0570585
0.0102875
0.000880078
4.13593e-05
1.13653e-06
2.13914e-08
5.16468e-09
1.39939e-07
5.35237e-06
0.000101409
0.0522233
0.14808
0.512028
1.29842
1.90316
2.6503
3.29778
4.11684
5.14727
6.55199
8.36983
10.4434
12.478
14.2325
15.4359
15.9984
16.1441
15.8253
14.9518
13.5914
11.8938
10.3215
9.68181
9.83807
10.3903
10.9558
11.5228
11.9509
12.0521
11.8808
11.5448
11.0515
10.323
9.26857
7.92959
6.45402
4.90578
3.38112
2.11346
1.23483
0.758183
0.586783
0.628959
0.735148
0.709259
0.594963
0.461117
0.333599
0.233778
0.147558
0.0592111
0.0104055
0.000878512
4.10092e-05
1.12344e-06
2.11536e-08
5.16065e-09
1.39885e-07
5.35032e-06
0.000101368
0.0492666
0.139071
0.59285
1.17566
1.91471
2.78359
3.41053
3.86999
4.23344
4.58713
5.0645
5.71223
6.45385
7.18079
7.83386
8.38377
8.88284
9.32727
9.40866
8.76152
7.66645
6.75283
6.15518
5.88718
5.96218
6.21427
6.46237
6.66256
6.75667
6.69273
6.4764
6.13367
5.65621
5.05624
4.38735
3.63003
2.81777
2.02418
1.3424
0.852141
0.558841
0.427877
0.401332
0.394662
0.34748
0.284507
0.229062
0.191086
0.165554
0.111244
0.0405968
0.00742252
0.00072313
3.89367e-05
1.20808e-06
2.48875e-08
5.22526e-09
1.3977e-07
5.35172e-06
0.000101489
0.0549355
0.0907137
0.313177
0.699865
1.4284
2.82546
3.81313
3.93247
4.04712
4.24597
4.5788
4.97791
5.39941
5.75721
6.04845
6.24431
6.28773
6.10829
5.66408
5.11771
4.674
4.39424
4.23519
4.09173
3.95391
3.91798
3.92368
3.89625
3.80976
3.68817
3.5087
3.23118
2.86442
2.44461
2.02919
1.64578
1.29159
0.97208
0.698578
0.488905
0.348836
0.267775
0.228885
0.205698
0.184284
0.165981
0.151202
0.143275
0.133515
0.0829896
0.0259643
0.0043881
0.000411415
2.17333e-05
6.6799e-07
1.48495e-08
5.12235e-09
1.39932e-07
5.35893e-06
0.00010166
0.0465182
0.11173
0.489768
0.912619
1.25927
1.75052
1.95218
2.29168
2.63407
3.03624
3.55633
4.08783
4.56623
4.95469
5.17498
5.21666
5.10868
4.89588
4.64919
4.3947
4.1724
4.02377
3.86178
3.65143
3.43156
3.23823
3.08104
2.93032
2.74102
2.51746
2.28449
2.0559
1.83232
1.60814
1.38256
1.16379
0.962108
0.781294
0.626533
0.504234
0.410577
0.357975
0.349057
0.337149
0.289497
0.231747
0.184987
0.156918
0.138842
0.0857206
0.0260299
0.00407454
0.000352749
1.75347e-05
5.18221e-07
1.18959e-08
5.08801e-09
1.39767e-07
5.35525e-06
0.000101632
0.0175125
0.0242465
0.0832463
0.237457
0.328757
0.369616
0.289596
0.246401
0.252601
0.321225
0.418968
0.556052
0.740134
0.982931
1.29773
1.53575
1.60122
1.58137
1.49851
1.46717
1.5628
1.69412
1.7674
1.83036
1.94011
2.12723
2.34379
2.47681
2.49009
2.42634
2.33562
2.20244
2.00129
1.71982
1.40591
1.12737
0.910584
0.758728
0.656426
0.58815
0.555358
0.552224
0.531371
0.465647
0.385635
0.306514
0.23687
0.184474
0.146711
0.0826945
0.0214997
0.00255005
0.000169917
6.76356e-06
1.68388e-07
5.16956e-09
4.99976e-09
1.40217e-07
5.36109e-06
0.000101608
0.00254019
0.00163293
0.00522214
0.0226873
0.0361358
0.0337746
0.0186527
0.0133242
0.0148706
0.0186313
0.0240218
0.0321012
0.044589
0.065427
0.100445
0.150152
0.173616
0.170989
0.15127
0.134198
0.140215
0.159778
0.182883
0.211805
0.250891
0.300981
0.353278
0.395288
0.425598
0.442254
0.423005
0.378413
0.318965
0.259924
0.221052
0.206442
0.213739
0.235386
0.271015
0.31922
0.396803
0.501683
0.59821
0.618651
0.574845
0.473039
0.34578
0.236923
0.156903
0.0696346
0.0123082
0.00104303
5.44132e-05
1.73908e-06
3.93493e-08
4.4074e-09
5.87699e-09
1.42257e-07
5.3913e-06
0.000101915
0.00267187
0.000312888
0.000346125
0.000987563
0.00208565
0.00189373
0.00116128
0.00114006
0.00142694
0.00179637
0.00227493
0.00289578
0.00368996
0.00473933
0.0061432
0.00799332
0.0103925
0.0110709
0.0108384
0.0116613
0.0134615
0.0156395
0.0181688
0.0212292
0.0248815
0.029017
0.0330296
0.0362761
0.0385284
0.0397938
0.0400657
0.0401087
0.0408445
0.0429358
0.0469828
0.0534062
0.0630783
0.0772781
0.0982928
0.129192
0.175258
0.245573
0.35263
0.409859
0.396395
0.345566
0.272176
0.196029
0.119168
0.04002
0.00472295
0.00029429
1.25062e-05
3.43215e-07
1.8548e-08
1.02267e-08
1.01471e-08
1.46627e-07
5.41344e-06
0.000102018
0.00492713
0.000673394
0.00025776
0.000153669
0.000202169
0.000235831
0.000268884
0.000335992
0.000430364
0.000546143
0.000691545
0.000869342
0.00108462
0.0013392
0.00163423
0.00197082
0.00236635
0.00273323
0.00309964
0.00357334
0.00415842
0.00487249
0.00572504
0.00675163
0.00796681
0.00937429
0.0108933
0.0124343
0.0139346
0.0153836
0.0168253
0.0183634
0.0201463
0.0223498
0.0252563
0.0292016
0.0348075
0.042888
0.0546084
0.0718305
0.0977121
0.131478
0.163525
0.171768
0.162585
0.148307
0.135281
0.11126
0.0658835
0.020381
0.00169409
7.56592e-05
2.23598e-06
1.04373e-07
5.04067e-08
4.2586e-08
3.8498e-08
1.73246e-07
5.45178e-06
0.000102117
0.0102195
0.00241692
0.00109467
0.000410693
0.000278272
0.000235998
0.000250379
0.000274131
0.000315531
0.000366225
0.000427921
0.000502629
0.000594102
0.000702677
0.000830137
0.000978325
0.00113732
0.00130681
0.0014895
0.00170823
0.00196434
0.00227139
0.00263284
0.00306046
0.00355688
0.00412239
0.00473068
0.0053566
0.00597447
0.00658903
0.0072176
0.00789801
0.00871007
0.00974526
0.0111281
0.0130181
0.0156766
0.0194639
0.024873
0.0324866
0.0428658
0.0563884
0.0686578
0.0735053
0.0725997
0.0706086
0.0688624
0.0581284
0.0330339
0.00894977
0.0005257
1.77992e-05
6.44865e-07
3.02723e-07
3.13525e-07
3.16038e-07
3.234e-07
4.59238e-07
5.74234e-06
0.000102462
0.0188072
0.00889642
0.00587054
0.00285056
0.00197377
0.00149149
0.00138445
0.00128885
0.00124693
0.00121695
0.00117345
0.0011146
0.00107469
0.00106192
0.00108349
0.0011499
0.00122875
0.00131956
0.00142204
0.00153997
0.00164886
0.00174437
0.00182556
0.00189953
0.00197321
0.00206622
0.00219314
0.00236126
0.00256656
0.0028098
0.00309688
0.00344164
0.00386251
0.00439113
0.00507401
0.00597154
0.00717461
0.00882054
0.0111285
0.0143892
0.0187617
0.0233112
0.0262685
0.0258846
0.0236047
0.0216815
0.0205406
0.0180116
0.010192
0.00210531
8.1989e-05
4.06752e-06
2.78719e-06
3.0949e-06
3.37139e-06
3.4769e-06
3.6123e-06
3.75924e-06
9.08668e-06
0.000105473
0.0370035
0.0354638
0.0345579
0.0253529
0.0219917
0.0191534
0.0184856
0.0176012
0.0169742
0.0162003
0.0154034
0.0142934
0.0132935
0.0124099
0.0117031
0.0112882
0.0109751
0.0107392
0.0105665
0.0104164
0.0100967
0.00960162
0.00892958
0.00811823
0.00720615
0.00629873
0.00550779
0.00489111
0.00443907
0.00412441
0.00393718
0.00386175
0.0038648
0.00391911
0.00401235
0.00414014
0.00429815
0.00449391
0.00475379
0.00502494
0.00525276
0.00538928
0.00526174
0.00482078
0.00433279
0.00403023
0.00385987
0.00349944
0.00183831
0.000268316
2.72855e-05
2.4331e-05
2.72746e-05
2.89103e-05
3.05899e-05
3.10401e-05
3.20162e-05
3.20406e-05
3.7427e-05
0.000122641
0.0914984
0.131842
0.197477
0.211398
0.227122
0.232398
0.2374
0.238492
0.236751
0.232918
0.226189
0.218311
0.208338
0.1978
0.186269
0.174802
0.163287
0.152612
0.142077
0.131889
0.121555
0.111297
0.100817
0.0904183
0.0801288
0.0703038
0.0611599
0.0529589
0.0457235
0.0394543
0.0340934
0.0295933
0.0258281
0.022676
0.0200075
0.0177288
0.0157422
0.0139357
0.0122184
0.0105237
0.00872348
0.006891
0.00517335
0.00370825
0.00258621
0.0017757
0.0012023
0.000801895
0.000450034
0.000252892
0.000210703
0.000193158
0.000184261
0.000174021
0.000173504
0.000166934
0.000170087
0.000165329
0.000170481
0.000182213
0.0716105
0.111812
0.175836
0.195467
0.216973
0.226472
0.233908
0.236257
0.234715
0.231003
0.223846
0.215758
0.205332
0.194727
0.183127
0.171776
0.160199
0.149152
0.138176
0.127629
0.116967
0.106374
0.0956185
0.0849961
0.0746591
0.06503
0.056258
0.048494
0.0417161
0.0359047
0.0309756
0.0268531
0.0234198
0.0205784
0.0182264
0.0162739
0.0146138
0.0131241
0.011701
0.0102653
0.00868814
0.00698957
0.00536279
0.00394269
0.00281868
0.00198436
0.00138522
0.000943494
0.000531615
0.000263392
0.000207059
0.000189597
0.000181442
0.000172058
0.000171988
0.000165906
0.000169158
0.000164716
0.000170624
0.000192741
0.0323818
0.0302535
0.0340115
0.0285918
0.0268104
0.0235602
0.0220799
0.0203304
0.0189177
0.0174481
0.016281
0.0148169
0.0137627
0.0127372
0.0119178
0.0113054
0.0107814
0.0103915
0.0100934
0.00973717
0.0092493
0.00860493
0.00779593
0.00689378
0.00598163
0.0051723
0.00452005
0.00403238
0.00368415
0.00345923
0.00334409
0.00331722
0.00335871
0.00345578
0.00359991
0.00378298
0.0040021
0.00426223
0.00455405
0.00483786
0.00507387
0.00524877
0.0053005
0.00517421
0.00489601
0.00457642
0.00425413
0.0037178
0.00214285
0.000389029
3.16234e-05
2.4653e-05
2.74263e-05
2.88686e-05
3.04639e-05
3.07221e-05
3.16977e-05
3.15657e-05
3.72534e-05
0.000125652
0.0131942
0.00753379
0.00633589
0.00397161
0.00315542
0.00231789
0.00198696
0.00168006
0.00149155
0.00133935
0.00124385
0.00113593
0.00108753
0.00105485
0.00105424
0.00108178
0.00112783
0.00119156
0.00127183
0.00134962
0.00141477
0.00146644
0.001506
0.00154747
0.00160291
0.00169259
0.00182372
0.00199918
0.00221721
0.00248022
0.00279369
0.00316959
0.00362184
0.00418077
0.00489739
0.00584708
0.00714884
0.00897252
0.0115558
0.0151391
0.019824
0.024418
0.0274263
0.0271812
0.0240519
0.0207591
0.0186503
0.0163739
0.0102694
0.00258486
0.000113582
4.46476e-06
2.64077e-06
2.86349e-06
3.10049e-06
3.17677e-06
3.3103e-06
3.44141e-06
8.81247e-06
0.000105894
0.00700437
0.00206278
0.00129048
0.000629917
0.000462527
0.000340815
0.000325933
0.000328134
0.000361982
0.000413135
0.000484091
0.000570247
0.000675514
0.000798166
0.000937711
0.00109414
0.00126897
0.00146119
0.00166746
0.00190775
0.00218236
0.00250442
0.00288108
0.00332111
0.00382085
0.00437529
0.00497191
0.00561009
0.00628713
0.00701346
0.00781159
0.00873704
0.00987036
0.011353
0.0134063
0.0164041
0.0210104
0.0283231
0.0399606
0.0583579
0.086983
0.130836
0.165038
0.163775
0.129252
0.0936442
0.0723381
0.0569517
0.0357664
0.0112373
0.00080364
2.31479e-05
6.66496e-07
2.08028e-07
2.22835e-07
2.31646e-07
2.46252e-07
3.86323e-07
5.67654e-06
0.000102524
0.00405368
0.000654832
0.000349936
0.000213796
0.000231704
0.000285804
0.000384475
0.000515595
0.000691058
0.000910602
0.00118548
0.00151949
0.00191731
0.00237674
0.00289384
0.00346071
0.00409073
0.00476764
0.00548103
0.00634278
0.00737969
0.00863162
0.0101201
0.0118423
0.0137408
0.0157381
0.0177414
0.019725
0.021699
0.0236021
0.0254398
0.0274204
0.0298298
0.0331334
0.0379649
0.0453654
0.0572529
0.077007
0.11057
0.167599
0.263421
0.409088
0.573832
0.544388
0.368839
0.237064
0.184907
0.153826
0.0973356
0.0339881
0.00389675
0.000161379
5.00756e-06
1.2333e-07
1.70308e-08
1.61101e-08
1.93882e-08
1.58045e-07
5.43869e-06
0.000102101
0.0026643
0.000295314
0.000242722
0.000297695
0.000430356
0.000624451
0.000900637
0.00127729
0.00179742
0.00247186
0.00335353
0.00447599
0.00583023
0.00739904
0.00906667
0.0106861
0.012268
0.0137174
0.0151914
0.0172206
0.0199678
0.0234402
0.027685
0.0325466
0.0374791
0.0416768
0.0447765
0.0471966
0.0494255
0.0513682
0.0527363
0.0539751
0.0560746
0.0601177
0.0672663
0.0793123
0.0994501
0.133712
0.193436
0.29858
0.488742
0.820055
1.23899
1.18238
0.832982
0.538748
0.374219
0.273432
0.17726
0.0741974
0.0123196
0.000721886
3.00974e-05
7.34706e-07
1.46634e-08
3.47536e-09
5.83453e-09
1.43652e-07
5.41013e-06
0.000101895
0.00224344
0.000573709
0.000981636
0.0016066
0.00239448
0.00351731
0.00514793
0.00749538
0.0109407
0.0156904
0.0222021
0.0309532
0.0419319
0.0555921
0.0699771
0.0818781
0.0933429
0.104805
0.112566
0.127244
0.152318
0.18914
0.240487
0.305575
0.377157
0.43747
0.471283
0.485688
0.494334
0.49773
0.477893
0.432966
0.383089
0.335131
0.269815
0.240942
0.251625
0.294687
0.380104
0.537969
0.812135
1.20734
1.60462
1.5848
1.2571
0.898658
0.615415
0.387872
0.225029
0.105501
0.0255601
0.00218126
0.000102159
2.83364e-06
5.18611e-08
3.23487e-09
5.09983e-09
1.4206e-07
5.39326e-06
0.000101786
0.00420662
0.00404912
0.00857872
0.0153048
0.0219566
0.0316164
0.0459825
0.067986
0.103142
0.155244
0.231198
0.343984
0.488796
0.677101
0.893526
1.0014
1.0983
1.22405
1.29069
1.35236
1.55481
1.88221
2.36524
2.99577
3.74571
4.50317
5.05565
5.35595
5.54901
5.75926
5.80294
5.50817
4.8767
4.0644
3.18056
2.3086
1.64847
1.27036
1.13891
1.16843
1.29119
1.46177
1.6079
1.4695
1.16028
0.831891
0.554518
0.347179
0.211212
0.109994
0.0329756
0.00401425
0.000243646
8.45518e-06
1.8217e-07
5.04796e-09
5.04043e-09
1.40903e-07
5.37242e-06
0.000101639
0.0286087
0.0286278
0.0653727
0.1402
0.212971
0.314617
0.443539
0.6306
0.912727
1.28692
1.75423
2.52658
3.35561
4.18223
4.78915
5.06904
5.23949
5.55202
5.8421
5.90973
6.00739
6.4419
7.23361
8.29275
9.39534
10.3561
10.9916
11.2438
11.1641
10.8445
10.327
9.61624
8.73322
7.77835
6.8357
5.82997
4.65954
3.51231
2.59562
1.96124
1.54535
1.29832
1.20051
1.10202
0.868374
0.594768
0.388258
0.254718
0.175458
0.103311
0.0345489
0.00518321
0.000403893
1.7961e-05
4.81294e-07
1.05358e-08
5.06341e-09
1.39692e-07
5.34982e-06
0.00010147
0.0698682
0.159944
0.405684
0.936147
1.5013
2.01001
2.41688
2.76452
3.18725
3.72328
4.17991
4.54765
4.90542
5.25825
5.62612
5.99599
6.27356
6.38253
6.38808
6.2808
6.09197
5.92972
5.84519
5.83023
5.79135
5.66651
5.44887
5.15179
4.80248
4.39528
3.96405
3.53129
3.10289
2.69288
2.31213
1.95282
1.61121
1.29436
1.01118
0.785585
0.628369
0.52715
0.472717
0.443355
0.387574
0.304441
0.226669
0.173893
0.14306
0.0954913
0.0360449
0.00659214
0.000639628
3.47695e-05
1.10594e-06
2.38062e-08
5.21606e-09
1.39117e-07
5.34084e-06
0.000101449
0.059859
0.0862358
0.511783
1.48346
1.87635
2.1699
2.31614
2.39834
2.46875
2.53942
2.66534
2.84887
2.99488
3.07089
3.09384
3.0683
3.03245
2.9783
2.89118
2.76928
2.58125
2.35258
2.16296
2.05127
1.99593
1.98746
2.0132
2.0565
2.09348
2.10782
2.0973
2.05047
1.95469
1.80156
1.58864
1.32945
1.05854
0.812264
0.604086
0.440259
0.325284
0.24986
0.206819
0.184652
0.167421
0.145918
0.132071
0.12881
0.126507
0.0861413
0.0303723
0.00554438
0.000554105
3.1119e-05
1.01303e-06
2.22261e-08
5.20093e-09
1.39409e-07
5.34771e-06
0.000101499
0.0537059
0.0543325
0.533246
1.86844
2.82992
3.64869
4.11525
4.42991
4.75324
5.06855
5.29957
5.43923
5.4753
5.40787
5.26941
5.05534
4.78288
4.48618
4.16967
3.85582
3.55426
3.27119
3.07149
2.98514
2.97581
3.00522
3.06397
3.136
3.18759
3.18828
3.1338
3.02817
2.83388
2.52525
2.12556
1.67481
1.23342
0.862002
0.579563
0.386047
0.267394
0.201257
0.168713
0.151711
0.140879
0.134144
0.131358
0.138322
0.13225
0.0778184
0.0244456
0.0045447
0.000467494
2.6799e-05
8.81938e-07
1.97186e-08
5.16236e-09
1.39256e-07
5.34205e-06
0.000101391
0.0516084
0.0599987
0.385055
1.31878
2.77551
4.21803
4.67915
4.52459
4.47062
4.56778
4.73613
4.95933
5.19378
5.37531
5.48095
5.47031
5.34096
5.11634
4.82463
4.50197
4.20317
3.91868
3.68583
3.55758
3.51971
3.55249
3.64484
3.77105
3.86086
3.88097
3.8579
3.7874
3.61999
3.322
2.87324
2.28834
1.6601
1.11568
0.71357
0.449822
0.305634
0.228826
0.189024
0.168331
0.154807
0.144678
0.136515
0.137298
0.133926
0.0847986
0.0276393
0.00507283
0.000516106
2.92846e-05
9.54815e-07
2.09842e-08
5.17301e-09
1.39196e-07
5.33879e-06
0.000101307
0.0637574
0.111128
0.52575
1.42883
1.75525
1.79181
1.68639
1.71231
1.89612
2.10236
2.24477
2.36544
2.53866
2.76414
3.02455
3.30423
3.53841
3.65727
3.62495
3.46477
3.23847
3.01811
2.88479
2.86103
2.91787
3.04096
3.22143
3.42663
3.61777
3.77535
3.90081
3.98509
3.93649
3.76979
3.51206
3.11903
2.56123
1.91415
1.32495
0.883824
0.589332
0.412672
0.323193
0.277447
0.236814
0.199718
0.17101
0.152226
0.140303
0.0999018
0.0388688
0.00713741
0.000703
3.84792e-05
1.21889e-06
2.56319e-08
5.22713e-09
1.39273e-07
5.33953e-06
0.000101307
0.0886388
0.164098
0.491299
0.976183
1.06053
1.19834
1.3398
1.50749
1.69978
1.95126
2.27817
2.68496
3.14984
3.69346
4.34081
5.02113
5.64976
6.13306
6.26994
6.0236
5.67639
5.47346
5.47405
5.68075
6.02304
6.49346
7.09197
7.75516
8.39461
8.94662
9.33356
9.1845
8.03183
6.13999
4.30186
2.93606
1.98415
1.30038
0.821913
0.513027
0.334192
0.249402
0.22552
0.255457
0.269075
0.241414
0.207764
0.178067
0.153486
0.112684
0.0486326
0.008988
0.000828362
4.20432e-05
1.2474e-06
2.5023e-08
5.2339e-09
1.39918e-07
5.35781e-06
0.000101575
0.0998171
0.116943
0.184299
0.301359
0.444084
0.651312
0.9914
1.43632
2.22741
3.21887
4.33588
5.45628
6.50371
7.44107
8.05661
8.2192
8.04661
7.54219
6.73076
5.90122
5.50161
5.60817
6.12416
6.82151
7.59932
8.37921
8.99605
9.25877
9.05134
8.29319
7.0812
5.59856
4.00684
2.64953
1.71526
1.1337
0.768523
0.526953
0.368336
0.274448
0.236143
0.259316
0.374082
0.52941
0.540089
0.449151
0.348344
0.263102
0.198256
0.12909
0.0468325
0.00658215
0.000465156
1.88584e-05
4.63793e-07
9.6519e-09
5.07178e-09
1.40695e-07
5.37639e-06
0.000101802
0.0351026
0.0665974
0.16031
0.353307
0.627911
1.06233
1.57896
2.25781
3.1618
4.3733
5.8939
7.47155
9.0565
10.346
11.0795
11.2018
10.9863
10.4864
9.61046
8.56797
8.00211
8.29376
9.00928
9.8387
10.5946
11.1569
11.4109
11.3649
10.898
9.87219
8.49151
6.98844
5.374
3.54428
1.82516
0.878717
0.587844
0.488198
0.45818
0.479275
0.549539
0.647858
0.736022
0.732213
0.636614
0.527544
0.420701
0.321115
0.236085
0.142238
0.0463653
0.00598383
0.000399123
1.52848e-05
3.60062e-07
7.91112e-09
5.06162e-09
1.4074e-07
5.37449e-06
0.000101766
0.0107391
0.012769
0.0294718
0.0600769
0.107442
0.179679
0.28422
0.42458
0.598586
0.813812
1.06926
1.16311
1.26497
1.46048
1.6702
1.91063
2.09249
2.11523
1.98505
1.8896
1.99864
2.32416
2.74934
3.17195
3.58758
3.96648
4.15798
4.12993
3.73545
3.12634
2.534
1.98148
1.43196
0.949213
0.632943
0.49444
0.442091
0.422453
0.425404
0.446694
0.486296
0.525537
0.553813
0.538342
0.491541
0.424092
0.346277
0.266434
0.182376
0.0796602
0.0158197
0.00157809
9.54751e-05
3.47749e-06
8.16463e-08
3.808e-09
5.06052e-09
1.41036e-07
5.37804e-06
0.000101762
0.00540892
0.00106161
0.00179033
0.00325
0.00544569
0.00855477
0.0126712
0.0172833
0.0219371
0.0258101
0.0288973
0.031595
0.0372827
0.0468598
0.0606618
0.0813499
0.107144
0.114021
0.103416
0.0976754
0.116912
0.149859
0.187894
0.231973
0.290545
0.37024
0.474243
0.583387
0.578012
0.499943
0.424334
0.349733
0.27628
0.22111
0.192254
0.188032
0.205116
0.24305
0.304411
0.398719
0.543896
0.713705
0.828684
0.833251
0.726879
0.555215
0.366182
0.218646
0.108578
0.0389571
0.00542145
0.00037839
1.85681e-05
5.64895e-07
1.47505e-08
3.92326e-09
6.02105e-09
1.43334e-07
5.412e-06
0.000102146
0.0084491
0.00108839
0.000559068
0.00042346
0.00052317
0.000693063
0.00092138
0.00114284
0.0013415
0.0014739
0.00157848
0.00172748
0.00200091
0.00238595
0.00285479
0.00341732
0.00406307
0.00474406
0.00528276
0.00627819
0.0076105
0.00924133
0.0111621
0.0134873
0.0164083
0.0199959
0.0241053
0.0283003
0.031838
0.0337574
0.0343887
0.0337117
0.0326306
0.0336535
0.0375238
0.0433991
0.052051
0.0647413
0.083679
0.112115
0.154359
0.212393
0.288198
0.302127
0.262807
0.211245
0.162557
0.110389
0.0568672
0.0182676
0.00172917
8.57559e-05
2.86726e-06
9.27025e-08
2.29789e-08
2.04264e-08
2.19074e-08
1.59279e-07
5.43752e-06
0.000102192
0.0128831
0.00330222
0.00183115
0.000850498
0.000591901
0.000443479
0.000413657
0.000402014
0.000418585
0.000449215
0.000498834
0.000565261
0.000649523
0.000748486
0.00086214
0.0009928
0.00114019
0.00130856
0.00149779
0.00171883
0.00197628
0.00228256
0.00264484
0.00307682
0.00359057
0.00419094
0.00485985
0.00557729
0.00629569
0.00699741
0.00772273
0.00850245
0.00938859
0.0104815
0.0118998
0.0138008
0.0164179
0.020079
0.0253027
0.0328157
0.0434424
0.0576721
0.0712055
0.0761324
0.0747664
0.0720753
0.0669854
0.0509425
0.0265818
0.00717318
0.000445787
1.57696e-05
5.86448e-07
2.649e-07
2.76422e-07
2.77643e-07
2.85209e-07
4.19091e-07
5.70788e-06
0.000102659
0.0219761
0.0111155
0.00833118
0.00490615
0.00369703
0.00273221
0.00232133
0.00196218
0.00171209
0.00152637
0.0014178
0.00135813
0.00134841
0.00134883
0.00136529
0.00140866
0.00146325
0.00153338
0.00160731
0.00166489
0.00169113
0.00169728
0.00169668
0.001706
0.0017383
0.00181426
0.00194104
0.00211445
0.00232305
0.00255714
0.00281783
0.00311378
0.00345757
0.00386905
0.00437746
0.00501932
0.00585163
0.00694666
0.00840064
0.010334
0.0128704
0.0157386
0.0183003
0.0198883
0.0206113
0.0212212
0.0217825
0.0178992
0.00930831
0.00188668
7.77234e-05
4.28352e-06
2.9829e-06
3.23511e-06
3.4757e-06
3.53005e-06
3.64964e-06
3.75313e-06
9.10974e-06
0.000106054
0.040808
0.0389392
0.0406803
0.0324305
0.0293472
0.0256378
0.0237904
0.0217372
0.0199618
0.0182943
0.0170586
0.0159801
0.0152426
0.0145205
0.0138365
0.013367
0.0129302
0.0125792
0.0122142
0.011707
0.010945
0.00998476
0.00888303
0.00771743
0.00654309
0.00548082
0.00462307
0.00399401
0.00357749
0.00332323
0.00318662
0.00313754
0.00314426
0.0031812
0.00323403
0.00329223
0.00335634
0.00342729
0.00349974
0.00358492
0.00371812
0.00384521
0.00399081
0.00412377
0.00425949
0.00446965
0.00484802
0.00416712
0.00204412
0.000299724
2.95558e-05
2.55607e-05
2.85654e-05
3.01172e-05
3.18208e-05
3.20746e-05
3.31094e-05
3.29219e-05
3.86762e-05
0.000127224
0.0823621
0.127911
0.191953
0.208937
0.228333
0.236434
0.242593
0.243224
0.24061
0.235403
0.227784
0.219411
0.209486
0.199438
0.188411
0.177765
0.166819
0.156356
0.145843
0.135579
0.124891
0.114017
0.102832
0.0917348
0.080772
0.0703179
0.0606253
0.0519885
0.0444637
0.0380691
0.0326972
0.0282252
0.0244975
0.0213744
0.0187247
0.0164562
0.0144963
0.0127529
0.0111295
0.00954934
0.00797468
0.00642194
0.00489254
0.0035763
0.00255636
0.00182154
0.00133647
0.000934705
0.000504365
0.000258096
0.000208111
0.000190105
0.000181474
0.000171927
0.000172101
0.000166145
0.000169753
0.000165461
0.000171632
0.000195467
0.0813958
0.110378
0.17555
0.193913
0.210324
0.215817
0.219977
0.220357
0.217868
0.213524
0.206648
0.198758
0.189323
0.179567
0.169097
0.158954
0.148711
0.13935
0.1302
0.121537
0.11275
0.103942
0.0948137
0.085688
0.0766394
0.0680422
0.060149
0.0531962
0.0471654
0.0420008
0.0376144
0.0339648
0.0309247
0.0283675
0.0261539
0.0241662
0.0222736
0.0203131
0.0181821
0.0157645
0.0131412
0.0104727
0.00793465
0.00574711
0.00405433
0.0028187
0.00192226
0.00123724
0.000616442
0.000247342
0.000192993
0.000181014
0.000177712
0.000168483
0.000170114
0.000163083
0.000167335
0.000161799
0.000168032
0.000185947
0.0586195
0.0940153
0.147669
0.161256
0.173624
0.178076
0.180177
0.179309
0.176005
0.171477
0.16517
0.158327
0.150677
0.143087
0.135275
0.127999
0.12084
0.114515
0.108497
0.102943
0.0973354
0.0916607
0.0856474
0.0795856
0.0735271
0.0677226
0.0623288
0.0575199
0.0532524
0.0494672
0.0460748
0.0430682
0.0403909
0.0379649
0.0356621
0.0333417
0.0309185
0.0284124
0.0256559
0.0225479
0.0191918
0.0157374
0.0123769
0.00935166
0.00692605
0.00511576
0.00374298
0.00246793
0.00114406