/*--------------------------------*- C++ -*----------------------------------*\
| =========                 |                                                 |
| \\      /  F ield         | OpenFOAM: The Open Source CFD Toolbox           |
|  \\    /   O peration     | Version:  2.1.1                                 |
|   \\  /    A nd           | Web:      www.OpenFOAM.org                      |
|    \\/     M anipulation  |                                                 |
\*---------------------------------------------------------------------------*/
FoamFile
{
    version     2.0;
    format      ascii;
    class       volScalarField;
    location    "0.0011";
    object      Lzero;
}
// * * * * * * * * * * * * * * * * * * * * * * * * * * * * * * * * * * * * * //

dimensions      [0 1 0 0 0 0 0];

internalField   nonuniform List<scalar> 
36520
(
9.29782e-05
9.31564e-05
9.30695e-05
9.30462e-05
9.29446e-05
9.29019e-05
9.29133e-05
9.2925e-05
9.29533e-05
9.29852e-05
9.30177e-05
9.30446e-05
9.30638e-05
9.30712e-05
9.30762e-05
9.30734e-05
9.30717e-05
9.30722e-05
9.30785e-05
9.30927e-05
9.3116e-05
9.31484e-05
9.31881e-05
9.32327e-05
9.32792e-05
9.33249e-05
9.33673e-05
9.34049e-05
9.34364e-05
9.34618e-05
9.34818e-05
9.34968e-05
9.3508e-05
9.35166e-05
9.35251e-05
9.35375e-05
9.35585e-05
9.35948e-05
9.36542e-05
9.37431e-05
9.38674e-05
9.40328e-05
9.42272e-05
9.46395e-05
9.49932e-05
9.53149e-05
9.53733e-05
9.62316e-05
9.84662e-05
9.53023e-05
9.29674e-05
9.27049e-05
9.24814e-05
9.23231e-05
9.22364e-05
9.21504e-05
9.21427e-05
9.2104e-05
9.21177e-05
9.21662e-05
0.000194997
5.90869e-05
5.54798e-05
5.12251e-05
4.83015e-05
4.61901e-05
4.49905e-05
4.39882e-05
4.33225e-05
4.279e-05
4.25695e-05
4.25434e-05
4.27551e-05
4.29908e-05
4.31611e-05
4.31446e-05
4.29613e-05
4.2654e-05
4.222e-05
4.16632e-05
4.09604e-05
4.0107e-05
3.9059e-05
3.78222e-05
3.64424e-05
3.49194e-05
3.31951e-05
3.12428e-05
2.91339e-05
2.69378e-05
2.47797e-05
2.28285e-05
2.12565e-05
2.00279e-05
1.90218e-05
1.80878e-05
1.70405e-05
1.5794e-05
1.43971e-05
1.29317e-05
1.15302e-05
1.03287e-05
9.43793e-06
8.78117e-06
8.40953e-06
8.28832e-06
8.29181e-06
7.85702e-06
6.11792e-06
2.84777e-06
3.32117e-06
9.9164e-06
1.08072e-05
1.09674e-05
1.12977e-05
1.12223e-05
1.14843e-05
1.12877e-05
1.29377e-05
0.000193765
0.000195615
3.51906e-05
3.03595e-05
2.59226e-05
2.32652e-05
2.15456e-05
2.06869e-05
2.00508e-05
1.96675e-05
1.94227e-05
1.93339e-05
1.93178e-05
1.93243e-05
1.92559e-05
1.91434e-05
1.89732e-05
1.87542e-05
1.84593e-05
1.80635e-05
1.75163e-05
1.67766e-05
1.58269e-05
1.46306e-05
1.32559e-05
1.18953e-05
1.07272e-05
9.83041e-06
9.2111e-06
8.8556e-06
8.68601e-06
8.63437e-06
8.66609e-06
8.7655e-06
8.92206e-06
9.13454e-06
9.39966e-06
9.71519e-06
1.00836e-05
1.0525e-05
1.10696e-05
1.17506e-05
1.25833e-05
1.35495e-05
1.45798e-05
1.54326e-05
1.60696e-05
1.65092e-05
1.54023e-05
1.18471e-05
6.18076e-06
1.5628e-06
1.21711e-06
2.44696e-06
2.40332e-06
2.37865e-06
2.30482e-06
2.32608e-06
2.29425e-06
4.69683e-06
0.000193714
0.000196234
2.17098e-05
1.68952e-05
1.33641e-05
1.14981e-05
1.03534e-05
9.8318e-06
9.40021e-06
9.07886e-06
8.77963e-06
8.48698e-06
8.26343e-06
8.11769e-06
8.09635e-06
8.19774e-06
8.3486e-06
8.5086e-06
8.65448e-06
8.78578e-06
8.90257e-06
9.0185e-06
9.16163e-06
9.34511e-06
9.58677e-06
9.88309e-06
1.0216e-05
1.05628e-05
1.09151e-05
1.12558e-05
1.15774e-05
1.1882e-05
1.21895e-05
1.25007e-05
1.27962e-05
1.30655e-05
1.3343e-05
1.37124e-05
1.42396e-05
1.4963e-05
1.59254e-05
1.71751e-05
1.87264e-05
2.05461e-05
2.24628e-05
2.41546e-05
2.53012e-05
2.60044e-05
2.52322e-05
2.00187e-05
1.1783e-05
3.44175e-06
7.39384e-07
3.86595e-07
6.01338e-07
5.39975e-07
4.90835e-07
4.72241e-07
5.88502e-07
4.4498e-06
0.000193686
0.000196697
1.21847e-05
7.05719e-06
3.0362e-06
2.99436e-06
3.25398e-06
3.48986e-06
3.75126e-06
4.10312e-06
4.49767e-06
4.93448e-06
5.42406e-06
5.97316e-06
6.52949e-06
7.18484e-06
7.90375e-06
8.51696e-06
9.08259e-06
9.65756e-06
1.02799e-05
1.09649e-05
1.17241e-05
1.2564e-05
1.34835e-05
1.44543e-05
1.54537e-05
1.64571e-05
1.74445e-05
1.82892e-05
1.89056e-05
1.92994e-05
1.94587e-05
1.93191e-05
1.90601e-05
1.9007e-05
1.92933e-05
1.95406e-05
1.99257e-05
2.06335e-05
2.17302e-05
2.3285e-05
2.53359e-05
2.79546e-05
3.09602e-05
3.35677e-05
3.48975e-05
3.51979e-05
3.42108e-05
2.9889e-05
1.95591e-05
7.00084e-06
1.70304e-06
3.21474e-07
1.10001e-07
1.37571e-07
1.11311e-07
9.92806e-08
3.85994e-07
4.70564e-06
0.000193673
0.000196231
2.3832e-06
1.59966e-06
1.81646e-06
2.03333e-06
2.20813e-06
2.44352e-06
2.77414e-06
3.17498e-06
3.65815e-06
4.22371e-06
4.87977e-06
5.68479e-06
6.652e-06
7.86276e-06
9.34374e-06
1.08126e-05
1.2235e-05
1.37025e-05
1.5317e-05
1.71546e-05
1.92827e-05
2.1796e-05
2.47264e-05
2.79456e-05
3.1291e-05
3.47043e-05
3.82696e-05
4.13465e-05
4.32991e-05
4.37639e-05
4.30429e-05
4.11753e-05
3.83433e-05
3.51959e-05
3.2346e-05
3.02207e-05
2.92104e-05
2.92182e-05
3.00419e-05
3.1747e-05
3.42564e-05
3.74683e-05
4.10845e-05
4.38774e-05
4.4682e-05
4.391e-05
4.23983e-05
3.8281e-05
2.83628e-05
1.26705e-05
3.68385e-06
8.14816e-07
1.40161e-07
2.85013e-08
2.27954e-08
3.35664e-08
3.82579e-07
4.73518e-06
0.000193664
0.000196031
2.96347e-06
4.79279e-06
7.74532e-06
7.81214e-06
6.69767e-06
6.13421e-06
6.65525e-06
7.37376e-06
8.29563e-06
9.47588e-06
1.08899e-05
1.25497e-05
1.46744e-05
1.69926e-05
1.87882e-05
2.10484e-05
2.34569e-05
2.58026e-05
2.85076e-05
3.18869e-05
3.56377e-05
3.99948e-05
4.54001e-05
5.14538e-05
5.67512e-05
6.07514e-05
6.46169e-05
6.78936e-05
6.99213e-05
7.08239e-05
7.05783e-05
6.88594e-05
6.54237e-05
6.06251e-05
5.52165e-05
4.99694e-05
4.56345e-05
4.28556e-05
4.18254e-05
4.2291e-05
4.37512e-05
4.60579e-05
4.86903e-05
5.06109e-05
5.09178e-05
4.94986e-05
4.75399e-05
4.45782e-05
3.67057e-05
2.04599e-05
7.11717e-06
1.79577e-06
3.41903e-07
5.25896e-08
1.6926e-08
2.96871e-08
3.81739e-07
4.72702e-06
0.000193655
0.00019693
1.01954e-05
1.87087e-05
2.58139e-05
2.7034e-05
2.28413e-05
2.24086e-05
2.47101e-05
2.70801e-05
2.99322e-05
3.35385e-05
3.76557e-05
4.17569e-05
4.5702e-05
4.73694e-05
4.81852e-05
5.09623e-05
5.45e-05
5.72743e-05
5.98774e-05
6.30698e-05
6.65612e-05
7.0069e-05
7.37594e-05
7.77503e-05
8.15027e-05
8.44207e-05
8.63151e-05
8.7304e-05
8.76615e-05
8.74084e-05
8.65431e-05
8.50161e-05
8.26334e-05
7.92025e-05
7.48391e-05
6.98947e-05
6.47809e-05
5.99086e-05
5.56955e-05
5.31491e-05
5.27355e-05
5.34303e-05
5.38346e-05
5.36689e-05
5.29484e-05
5.16899e-05
5.07312e-05
4.95744e-05
4.41362e-05
2.89995e-05
1.19638e-05
3.44522e-06
7.35266e-07
1.21086e-07
2.19163e-08
2.9425e-08
3.79809e-07
4.71512e-06
0.000193627
0.000195037
1.47061e-05
2.09195e-05
2.7224e-05
3.18996e-05
3.68977e-05
4.07572e-05
4.5558e-05
4.96656e-05
5.36292e-05
5.84291e-05
6.3803e-05
6.85522e-05
7.23484e-05
7.4638e-05
7.54108e-05
7.56705e-05
7.65522e-05
7.7679e-05
7.83531e-05
7.87124e-05
7.92415e-05
8.02074e-05
8.15463e-05
8.31054e-05
8.46814e-05
8.60177e-05
8.69977e-05
8.75373e-05
8.75724e-05
8.71043e-05
8.6126e-05
8.45891e-05
8.24909e-05
7.9929e-05
7.70597e-05
7.39655e-05
7.06891e-05
6.73501e-05
6.39742e-05
6.04175e-05
5.71846e-05
5.5197e-05
5.37597e-05
5.19876e-05
5.04029e-05
5.03372e-05
5.29509e-05
5.7172e-05
5.67344e-05
4.28349e-05
2.05154e-05
6.69888e-06
1.59001e-06
2.85106e-07
4.2643e-08
2.94966e-08
3.77769e-07
4.70746e-06
0.000193607
0.000194271
1.51917e-05
2.22501e-05
2.9021e-05
3.67828e-05
4.15043e-05
4.45845e-05
4.72757e-05
5.01187e-05
5.37567e-05
5.81002e-05
6.29434e-05
6.81904e-05
7.36749e-05
7.8826e-05
8.31923e-05
8.69591e-05
9.01951e-05
9.30457e-05
9.43655e-05
9.42e-05
9.35771e-05
9.3419e-05
9.42129e-05
9.56546e-05
9.71907e-05
9.86206e-05
9.98169e-05
0.000100473
0.000100338
9.93817e-05
9.76829e-05
9.52271e-05
9.20299e-05
8.80831e-05
8.32786e-05
7.74077e-05
7.05355e-05
6.35898e-05
5.7691e-05
5.34803e-05
5.0672e-05
4.88578e-05
4.787e-05
4.81177e-05
5.00138e-05
5.41262e-05
6.05663e-05
6.5994e-05
6.42071e-05
4.74779e-05
2.28705e-05
7.60269e-06
1.83631e-06
3.3312e-07
4.91083e-08
2.96198e-08
3.77594e-07
4.70951e-06
0.000193604
0.000193986
1.55602e-05
3.39745e-05
4.64247e-05
5.35597e-05
5.97318e-05
6.50737e-05
6.95182e-05
7.38296e-05
7.8567e-05
8.40488e-05
9.07218e-05
9.8215e-05
0.000105783
0.000112289
0.00011772
0.000122544
0.000126772
0.000129035
0.000128887
0.000127044
0.000125674
0.000125579
0.000126793
0.000128984
0.000131605
0.000134256
0.00013646
0.000137707
0.000137767
0.000136634
0.000134462
0.000131348
0.000127038
0.000121034
0.000112874
0.000102135
8.85075e-05
7.4118e-05
6.20564e-05
5.37535e-05
4.94915e-05
4.79708e-05
4.75022e-05
4.75488e-05
4.84625e-05
5.02851e-05
5.32265e-05
5.61226e-05
5.46783e-05
4.16254e-05
2.09879e-05
7.22585e-06
1.78555e-06
3.28131e-07
4.86129e-08
2.94362e-08
3.78038e-07
4.71549e-06
0.000193617
0.0001923
2.00719e-05
3.60185e-05
4.60342e-05
5.11481e-05
5.88596e-05
6.64824e-05
7.45019e-05
8.27635e-05
9.25619e-05
0.000103859
0.000114925
0.000124547
0.000132357
0.000137616
0.000140939
0.000143334
0.000145051
0.000145641
0.000144546
0.000141071
0.000136179
0.000133693
0.000133992
0.000136524
0.000140343
0.000144151
0.000146921
0.000148378
0.000148639
0.000148177
0.000147372
0.000146076
0.000142896
0.000137239
0.000128798
0.000117097
0.000101976
8.43355e-05
6.68609e-05
5.47719e-05
5.02779e-05
5.14034e-05
5.39238e-05
5.51827e-05
5.57267e-05
5.46844e-05
5.20901e-05
4.84557e-05
4.25894e-05
3.1021e-05
1.50174e-05
4.87821e-06
1.14522e-06
2.01491e-07
3.0252e-08
2.88209e-08
3.79975e-07
4.72688e-06
0.000193653
0.000192144
2.27771e-05
3.56919e-05
4.82053e-05
5.51963e-05
6.48931e-05
7.36094e-05
8.14766e-05
8.88647e-05
9.78515e-05
0.000108374
0.000119064
0.00012864
0.000136374
0.000141759
0.000144956
0.000146942
0.00014768
0.000146935
0.000144665
0.000140582
0.000135293
0.00013265
0.000132468
0.00013372
0.000135906
0.000139369
0.00014292
0.000145305
0.000146296
0.000146083
0.00014476
0.000142163
0.000138033
0.000131928
0.000123259
0.000111105
9.55157e-05
7.86397e-05
6.34199e-05
5.37911e-05
5.15471e-05
5.61227e-05
6.23818e-05
6.43903e-05
6.28398e-05
5.92827e-05
5.45394e-05
4.9454e-05
4.26795e-05
3.06561e-05
1.46797e-05
4.75063e-06
1.11447e-06
1.96193e-07
2.95684e-08
2.87829e-08
3.7992e-07
4.72435e-06
0.000193654
0.000193655
2.50761e-05
3.93428e-05
4.82622e-05
5.62625e-05
6.60258e-05
7.56791e-05
8.31924e-05
8.84051e-05
9.33248e-05
9.91924e-05
0.000105806
0.000112519
0.000118856
0.000124409
0.000128619
0.000131535
0.000133048
0.000132665
0.000129981
0.000125813
0.000122631
0.000120961
0.000120851
0.000122359
0.000124405
0.000126766
0.000128982
0.00013041
0.00013077
0.00013006
0.000128273
0.000125039
0.000119987
0.000112924
0.000103669
9.24679e-05
7.98311e-05
6.71707e-05
5.64928e-05
4.97663e-05
4.80597e-05
5.04677e-05
5.37226e-05
5.45103e-05
5.42131e-05
5.43446e-05
5.53838e-05
5.61835e-05
5.26824e-05
3.82993e-05
1.89122e-05
6.46287e-06
1.59272e-06
2.92319e-07
4.38078e-08
2.93781e-08
3.79709e-07
4.71497e-06
0.00019364
0.000193676
2.07508e-05
3.21026e-05
3.89409e-05
4.6792e-05
5.93959e-05
7.13828e-05
7.86368e-05
8.26473e-05
8.62294e-05
9.03075e-05
9.46037e-05
9.88219e-05
0.000102587
0.00010597
0.000108464
0.000109669
0.000109192
0.000106826
0.000103505
0.000100368
9.81059e-05
9.69125e-05
9.64511e-05
9.68848e-05
9.84379e-05
9.97044e-05
0.000100169
9.99643e-05
9.93961e-05
9.80508e-05
9.54482e-05
9.15537e-05
8.65374e-05
8.07105e-05
7.42533e-05
6.71813e-05
5.98178e-05
5.27508e-05
4.68939e-05
4.31575e-05
4.19306e-05
4.2911e-05
4.4894e-05
4.70874e-05
4.99545e-05
5.37839e-05
5.83671e-05
6.09258e-05
5.57177e-05
3.70349e-05
1.70303e-05
5.54837e-06
1.32485e-06
2.38072e-07
3.64762e-08
2.94421e-08
3.79963e-07
4.71266e-06
0.000193662
0.000190616
2.31712e-05
3.25345e-05
3.81487e-05
4.39482e-05
5.25871e-05
5.81394e-05
6.37276e-05
6.79793e-05
7.24083e-05
7.76427e-05
8.29112e-05
8.78137e-05
9.1789e-05
9.42691e-05
9.56115e-05
9.58919e-05
9.51115e-05
9.34368e-05
9.14934e-05
8.99057e-05
8.87743e-05
8.77842e-05
8.69789e-05
8.64767e-05
8.62698e-05
8.60535e-05
8.55539e-05
8.46566e-05
8.33625e-05
8.16263e-05
7.93703e-05
7.65013e-05
7.30157e-05
6.90188e-05
6.46734e-05
6.01716e-05
5.57149e-05
5.17235e-05
4.872e-05
4.70276e-05
4.71075e-05
4.87908e-05
5.06083e-05
5.10715e-05
5.12482e-05
5.23834e-05
5.51555e-05
5.72204e-05
5.22616e-05
3.42356e-05
1.52299e-05
4.80907e-06
1.12226e-06
1.98947e-07
3.14856e-08
2.9371e-08
3.78807e-07
4.70743e-06
0.000193663
0.000194975
8.73126e-06
1.4505e-05
2.20047e-05
2.54463e-05
2.73922e-05
2.56077e-05
2.51203e-05
2.66492e-05
3.00458e-05
3.42868e-05
3.94033e-05
4.51861e-05
5.1103e-05
5.68852e-05
6.09128e-05
6.23581e-05
6.26884e-05
6.23652e-05
6.25243e-05
6.45475e-05
6.6776e-05
6.80259e-05
6.91534e-05
7.10221e-05
7.38613e-05
7.69179e-05
7.90324e-05
7.9682e-05
7.89265e-05
7.73519e-05
7.49325e-05
7.14993e-05
6.71196e-05
6.23605e-05
5.78651e-05
5.38744e-05
5.08003e-05
4.88093e-05
4.81234e-05
4.90309e-05
5.09441e-05
5.24713e-05
5.27915e-05
5.22117e-05
5.09925e-05
4.96946e-05
4.91426e-05
4.82436e-05
4.18012e-05
2.52761e-05
9.92445e-06
2.78216e-06
5.8659e-07
9.64473e-08
1.95571e-08
2.92929e-08
3.78043e-07
4.71371e-06
0.000193642
0.00019535
2.53272e-06
3.96741e-06
7.55486e-06
9.24669e-06
9.01693e-06
7.14005e-06
6.41358e-06
6.96609e-06
7.97199e-06
9.28445e-06
1.09831e-05
1.31666e-05
1.59714e-05
1.93719e-05
2.28051e-05
2.43073e-05
2.44102e-05
2.37914e-05
2.35389e-05
2.4502e-05
2.58921e-05
2.72991e-05
2.8923e-05
3.09024e-05
3.3128e-05
3.5138e-05
3.65076e-05
3.73046e-05
3.75761e-05
3.67668e-05
3.52124e-05
3.32308e-05
3.14155e-05
3.03986e-05
3.01794e-05
3.07034e-05
3.18983e-05
3.38449e-05
3.65626e-05
4.04359e-05
4.51529e-05
4.93509e-05
5.13285e-05
5.13168e-05
4.94796e-05
4.64705e-05
4.36989e-05
4.08201e-05
3.33781e-05
1.76685e-05
5.98631e-06
1.48478e-06
2.80614e-07
4.62609e-08
2.4063e-08
3.411e-08
3.81481e-07
4.72952e-06
0.000193658
0.000196856
2.77093e-06
1.54377e-06
1.91706e-06
2.5636e-06
2.57719e-06
2.57645e-06
2.98895e-06
3.44558e-06
3.97517e-06
4.59217e-06
5.28758e-06
6.0364e-06
6.78128e-06
7.46326e-06
8.16947e-06
8.86204e-06
9.5426e-06
1.03975e-05
1.12169e-05
1.1919e-05
1.26564e-05
1.34479e-05
1.43173e-05
1.52447e-05
1.61932e-05
1.70756e-05
1.78367e-05
1.84727e-05
1.90358e-05
1.9606e-05
2.02011e-05
2.08245e-05
2.14196e-05
2.19516e-05
2.25272e-05
2.33026e-05
2.43931e-05
2.59154e-05
2.79975e-05
3.08135e-05
3.45404e-05
3.8718e-05
4.12339e-05
4.19457e-05
4.1702e-05
4.08535e-05
3.91395e-05
3.52773e-05
2.61842e-05
1.14051e-05
3.24052e-06
7.11676e-07
1.27215e-07
5.42597e-08
5.64059e-08
5.42608e-08
3.84742e-07
4.74059e-06
0.000193671
0.00019677
1.19157e-05
5.79084e-06
3.01365e-06
2.07588e-06
2.48711e-06
3.53823e-06
4.17262e-06
4.70847e-06
5.27847e-06
5.88623e-06
6.51677e-06
7.16164e-06
7.79326e-06
8.38289e-06
8.8928e-06
9.29651e-06
9.99617e-06
1.07733e-05
1.1391e-05
1.20134e-05
1.26979e-05
1.34357e-05
1.4232e-05
1.50712e-05
1.59298e-05
1.67379e-05
1.74372e-05
1.79889e-05
1.83817e-05
1.86355e-05
1.87798e-05
1.88706e-05
1.89677e-05
1.91423e-05
1.9454e-05
1.99978e-05
2.084e-05
2.20268e-05
2.36126e-05
2.56175e-05
2.79552e-05
3.02216e-05
3.16766e-05
3.25134e-05
3.29482e-05
3.32385e-05
3.22946e-05
2.83493e-05
1.93064e-05
6.91775e-06
1.6782e-06
3.1184e-07
1.13241e-07
1.62975e-07
1.46618e-07
1.32903e-07
3.9663e-07
4.70943e-06
0.000193687
0.000195918
2.1608e-05
1.40161e-05
9.33189e-06
7.40204e-06
6.41739e-06
6.29182e-06
6.23501e-06
6.35587e-06
6.5376e-06
6.75447e-06
7.01562e-06
7.33294e-06
7.69473e-06
8.08316e-06
8.50876e-06
8.93075e-06
9.35562e-06
9.75926e-06
1.01725e-05
1.05969e-05
1.10469e-05
1.15144e-05
1.20048e-05
1.25075e-05
1.30077e-05
1.34573e-05
1.38213e-05
1.40769e-05
1.42332e-05
1.43078e-05
1.43324e-05
1.43612e-05
1.44375e-05
1.45987e-05
1.4877e-05
1.53234e-05
1.59795e-05
1.68786e-05
1.80232e-05
1.9359e-05
2.07207e-05
2.18179e-05
2.28562e-05
2.39122e-05
2.49243e-05
2.56531e-05
2.47082e-05
2.00923e-05
1.27194e-05
4.02686e-06
8.64446e-07
2.51318e-07
4.62608e-07
4.93592e-07
4.86205e-07
4.88317e-07
6.16279e-07
4.48789e-06
0.000193693
0.000195444
3.58381e-05
2.73922e-05
2.08242e-05
1.79952e-05
1.62407e-05
1.56098e-05
1.51755e-05
1.49657e-05
1.4868e-05
1.47984e-05
1.47102e-05
1.46177e-05
1.44961e-05
1.43925e-05
1.43957e-05
1.4439e-05
1.45215e-05
1.46277e-05
1.47321e-05
1.47065e-05
1.45316e-05
1.41859e-05
1.3688e-05
1.30849e-05
1.24983e-05
1.20336e-05
1.17229e-05
1.15255e-05
1.13976e-05
1.13135e-05
1.12571e-05
1.12097e-05
1.11667e-05
1.11346e-05
1.11194e-05
1.11369e-05
1.12105e-05
1.13734e-05
1.16516e-05
1.20137e-05
1.24516e-05
1.2859e-05
1.31878e-05
1.35436e-05
1.38692e-05
1.39587e-05
1.31617e-05
1.08212e-05
6.29933e-06
1.66516e-06
7.68965e-07
1.93517e-06
2.11751e-06
2.21115e-06
2.22388e-06
2.26993e-06
2.28848e-06
4.78567e-06
0.000193704
0.00019494
6.06646e-05
5.37786e-05
4.7496e-05
4.43979e-05
4.20532e-05
4.10278e-05
4.02205e-05
3.96985e-05
3.92971e-05
3.91277e-05
3.90755e-05
3.92569e-05
3.95421e-05
3.9896e-05
4.0106e-05
4.02957e-05
4.04503e-05
4.05463e-05
4.05304e-05
4.04492e-05
4.02886e-05
3.99692e-05
3.93963e-05
3.84871e-05
3.72229e-05
3.56551e-05
3.3848e-05
3.18728e-05
2.98103e-05
2.78233e-05
2.59954e-05
2.42472e-05
2.24449e-05
2.05257e-05
1.85032e-05
1.64027e-05
1.43197e-05
1.2394e-05
1.07598e-05
9.47569e-06
8.54965e-06
7.89051e-06
7.35577e-06
6.81237e-06
6.24491e-06
5.82211e-06
5.60166e-06
4.68108e-06
2.47768e-06
3.19279e-06
9.56619e-06
1.0534e-05
1.07999e-05
1.11349e-05
1.11236e-05
1.13442e-05
1.12101e-05
1.28165e-05
0.000193726
9.71179e-05
9.72754e-05
9.72827e-05
9.73003e-05
9.72757e-05
9.72428e-05
9.72466e-05
9.72637e-05
9.72987e-05
9.73243e-05
9.73541e-05
9.73813e-05
9.74042e-05
9.74187e-05
9.7428e-05
9.74224e-05
9.74133e-05
9.74048e-05
9.74107e-05
9.74276e-05
9.74516e-05
9.74876e-05
9.7532e-05
9.75821e-05
9.76331e-05
9.76817e-05
9.77249e-05
9.77605e-05
9.77881e-05
9.78095e-05
9.78273e-05
9.7843e-05
9.78582e-05
9.78771e-05
9.79059e-05
9.79513e-05
9.8019e-05
9.81175e-05
9.82545e-05
9.84395e-05
9.87079e-05
9.89476e-05
9.91929e-05
9.94441e-05
9.96979e-05
9.99043e-05
9.9926e-05
0.000100099
0.000101044
9.85194e-05
9.7128e-05
9.69486e-05
9.679e-05
9.66884e-05
9.66189e-05
9.65476e-05
9.65378e-05
9.65005e-05
9.65099e-05
9.65295e-05
9.73151e-05
9.74796e-05
9.75327e-05
9.75686e-05
9.75874e-05
9.76131e-05
9.7635e-05
9.76532e-05
9.7675e-05
9.76952e-05
9.77165e-05
9.77351e-05
9.775e-05
9.77609e-05
9.77687e-05
9.77713e-05
9.77757e-05
9.77782e-05
9.77854e-05
9.78004e-05
9.78261e-05
9.78633e-05
9.79093e-05
9.79598e-05
9.80091e-05
9.80534e-05
9.809e-05
9.81186e-05
9.814e-05
9.81565e-05
9.81694e-05
9.81793e-05
9.8188e-05
9.81997e-05
9.82215e-05
9.82616e-05
9.83268e-05
9.84236e-05
9.85588e-05
9.87376e-05
9.89984e-05
9.92347e-05
9.94611e-05
9.96961e-05
9.99513e-05
0.000100214
0.000100428
0.000100679
0.000101987
9.97465e-05
9.7531e-05
9.72878e-05
9.71248e-05
9.70255e-05
9.69633e-05
9.68966e-05
9.68911e-05
9.68568e-05
9.68672e-05
9.68762e-05
0.000194879
6.0474e-05
5.57999e-05
5.0274e-05
4.72305e-05
4.45416e-05
4.29663e-05
4.16617e-05
4.07474e-05
4.00082e-05
3.95765e-05
3.92104e-05
3.91221e-05
3.91325e-05
3.92392e-05
3.93283e-05
3.93913e-05
3.93708e-05
3.92703e-05
3.90677e-05
3.87495e-05
3.82757e-05
3.75789e-05
3.65986e-05
3.5283e-05
3.36472e-05
3.17229e-05
2.95734e-05
2.73107e-05
2.5113e-05
2.3146e-05
2.14303e-05
1.99138e-05
1.8504e-05
1.71127e-05
1.56761e-05
1.41764e-05
1.26615e-05
1.12569e-05
1.00319e-05
8.99535e-06
8.1992e-06
7.59854e-06
7.09186e-06
6.58454e-06
6.03378e-06
5.43441e-06
4.9347e-06
4.20916e-06
2.48691e-06
2.37726e-06
9.02872e-06
1.02258e-05
1.04801e-05
1.08757e-05
1.08291e-05
1.11206e-05
1.09333e-05
1.2676e-05
0.000193718
0.000195143
3.58204e-05
2.95683e-05
2.37298e-05
2.08828e-05
1.84637e-05
1.72257e-05
1.62216e-05
1.55967e-05
1.51376e-05
1.48402e-05
1.45193e-05
1.42997e-05
1.40445e-05
1.38168e-05
1.36209e-05
1.34466e-05
1.33089e-05
1.321e-05
1.30306e-05
1.27145e-05
1.22417e-05
1.16188e-05
1.0927e-05
1.02528e-05
9.72026e-06
9.35814e-06
9.14353e-06
9.02911e-06
8.98366e-06
8.98576e-06
9.01987e-06
9.07355e-06
9.14239e-06
9.23031e-06
9.34988e-06
9.52802e-06
9.79439e-06
1.01793e-05
1.06862e-05
1.12742e-05
1.18016e-05
1.21773e-05
1.22748e-05
1.21488e-05
1.18789e-05
1.14557e-05
1.05772e-05
9.07351e-06
5.94631e-06
1.70983e-06
6.66031e-07
1.76438e-06
1.95316e-06
2.05489e-06
2.06529e-06
2.12853e-06
2.14386e-06
4.72273e-06
0.000193695
0.000195052
2.1718e-05
1.5719e-05
1.12088e-05
9.28356e-06
7.67365e-06
6.98426e-06
6.47073e-06
6.28943e-06
6.26496e-06
6.36901e-06
6.52826e-06
6.76286e-06
7.03405e-06
7.32607e-06
7.6238e-06
7.91306e-06
8.18872e-06
8.44363e-06
8.68098e-06
8.91048e-06
9.15066e-06
9.40383e-06
9.67778e-06
9.96281e-06
1.02504e-05
1.05254e-05
1.07826e-05
1.10111e-05
1.12101e-05
1.13781e-05
1.15186e-05
1.16359e-05
1.17531e-05
1.19115e-05
1.2169e-05
1.26061e-05
1.32996e-05
1.42914e-05
1.56137e-05
1.72579e-05
1.91099e-05
2.04089e-05
2.06632e-05
2.00492e-05
1.9594e-05
1.97873e-05
1.96969e-05
1.74788e-05
1.22374e-05
4.34203e-06
8.89809e-07
2.00974e-07
3.34804e-07
3.91061e-07
3.96461e-07
4.13109e-07
5.62626e-07
4.52124e-06
0.000193681
0.000195097
1.27225e-05
7.52816e-06
4.55285e-06
3.96641e-06
3.86583e-06
4.11815e-06
4.44742e-06
4.85205e-06
5.29177e-06
5.76883e-06
6.27269e-06
6.80328e-06
7.3527e-06
7.9215e-06
8.49791e-06
9.05999e-06
9.64928e-06
1.02316e-05
1.07459e-05
1.12529e-05
1.17998e-05
1.23896e-05
1.30147e-05
1.36455e-05
1.42451e-05
1.47666e-05
1.51857e-05
1.54985e-05
1.57026e-05
1.58128e-05
1.58627e-05
1.5877e-05
1.58986e-05
1.59893e-05
1.62404e-05
1.67807e-05
1.7745e-05
1.92634e-05
2.14489e-05
2.44112e-05
2.78608e-05
3.05469e-05
3.01532e-05
2.80148e-05
2.72735e-05
2.83285e-05
2.91109e-05
2.72001e-05
2.10541e-05
9.09909e-06
2.23482e-06
4.26485e-07
7.54629e-08
6.18279e-08
6.95697e-08
7.98259e-08
3.87073e-07
4.72041e-06
0.000193678
0.000195187
4.12477e-06
2.3233e-06
2.08333e-06
2.33231e-06
2.6501e-06
3.01226e-06
3.40049e-06
3.8293e-06
4.29099e-06
4.79648e-06
5.34484e-06
5.92331e-06
6.51453e-06
7.10498e-06
7.69279e-06
8.30387e-06
9.03483e-06
9.86336e-06
1.06568e-05
1.13984e-05
1.2184e-05
1.30373e-05
1.39328e-05
1.48152e-05
1.56522e-05
1.64524e-05
1.7202e-05
1.78544e-05
1.8363e-05
1.87435e-05
1.90346e-05
1.92524e-05
1.94349e-05
1.96302e-05
1.99481e-05
2.05986e-05
2.1799e-05
2.37623e-05
2.66949e-05
3.09486e-05
3.64206e-05
4.13781e-05
4.12449e-05
3.8562e-05
3.67267e-05
3.67119e-05
3.66548e-05
3.43504e-05
2.77439e-05
1.47019e-05
4.29443e-06
9.54021e-07
1.5921e-07
2.61076e-08
1.98598e-08
3.29805e-08
3.85471e-07
4.74741e-06
0.000193675
0.000195264
1.90758e-06
2.14668e-06
2.55041e-06
3.03177e-06
3.59165e-06
4.24676e-06
5.01293e-06
5.91853e-06
6.94217e-06
8.11284e-06
9.45413e-06
1.09141e-05
1.24645e-05
1.39073e-05
1.50822e-05
1.62503e-05
1.75216e-05
1.87191e-05
2.02921e-05
2.22291e-05
2.45237e-05
2.71821e-05
2.99906e-05
3.25844e-05
3.44476e-05
3.54038e-05
3.58417e-05
3.61126e-05
3.61256e-05
3.5425e-05
3.39721e-05
3.22051e-05
3.04664e-05
2.90063e-05
2.84352e-05
2.85804e-05
2.95755e-05
3.16177e-05
3.51727e-05
4.05803e-05
4.73149e-05
5.34399e-05
5.47085e-05
5.23158e-05
4.88306e-05
4.5492e-05
4.16626e-05
3.75773e-05
3.13771e-05
1.92598e-05
6.74252e-06
1.63142e-06
2.93783e-07
4.28838e-08
1.62334e-08
2.98769e-08
3.84009e-07
4.73797e-06
0.000193667
0.000195364
3.79508e-06
4.89554e-06
6.07955e-06
7.2912e-06
8.78977e-06
1.06468e-05
1.29931e-05
1.5946e-05
1.93836e-05
2.33566e-05
2.804e-05
3.29811e-05
3.82451e-05
4.3014e-05
4.54064e-05
4.78811e-05
5.08215e-05
5.28206e-05
5.48052e-05
5.82664e-05
6.27459e-05
6.82092e-05
7.42024e-05
8.02165e-05
8.52179e-05
8.81363e-05
8.92953e-05
8.98702e-05
9.04729e-05
9.01002e-05
8.77889e-05
8.32853e-05
7.70506e-05
6.94703e-05
6.09662e-05
5.35218e-05
4.88331e-05
4.75508e-05
4.91137e-05
5.2674e-05
5.73605e-05
6.17751e-05
6.2337e-05
5.97449e-05
5.56394e-05
5.07085e-05
4.56113e-05
4.14927e-05
3.60421e-05
2.39872e-05
9.7937e-06
2.69082e-06
5.42831e-07
8.47677e-08
1.78389e-08
2.94946e-08
3.80997e-07
4.72429e-06
0.000193634
0.000194634
9.82444e-06
1.29726e-05
1.73244e-05
2.07548e-05
2.45799e-05
2.86337e-05
3.35069e-05
3.93802e-05
4.57605e-05
5.25219e-05
6.16488e-05
6.98649e-05
7.72681e-05
8.20716e-05
8.45089e-05
8.68716e-05
8.99957e-05
9.24487e-05
9.34988e-05
9.44234e-05
9.67805e-05
0.000100732
0.000105592
0.000110495
0.000114861
0.000118153
0.000120169
0.000120954
0.000120699
0.000119312
0.00011666
0.00011266
0.000107551
0.000101578
9.4527e-05
8.60188e-05
7.711e-05
6.93512e-05
6.36839e-05
6.04645e-05
5.98712e-05
6.11906e-05
6.15604e-05
5.87339e-05
5.39564e-05
4.93974e-05
4.65816e-05
4.58304e-05
4.28348e-05
3.0135e-05
1.35925e-05
4.1895e-06
9.44789e-07
1.62104e-07
2.62713e-08
2.92726e-08
3.78068e-07
4.71099e-06
0.000193611
0.000194577
1.82983e-05
2.58133e-05
3.65924e-05
4.39021e-05
4.96358e-05
5.36737e-05
5.73721e-05
6.18055e-05
6.65417e-05
7.09375e-05
7.51309e-05
7.90017e-05
8.26015e-05
8.59047e-05
8.87051e-05
9.07677e-05
9.20926e-05
9.30357e-05
9.37257e-05
9.43537e-05
9.52468e-05
9.6579e-05
9.82958e-05
9.99611e-05
0.000101273
0.000102185
0.000102581
0.000102295
0.000101258
9.95643e-05
9.72601e-05
9.42656e-05
9.05825e-05
8.62599e-05
8.12218e-05
7.55567e-05
6.95806e-05
6.36789e-05
5.85906e-05
5.50721e-05
5.34071e-05
5.35498e-05
5.42653e-05
5.34929e-05
5.19422e-05
5.12884e-05
5.3697e-05
5.82274e-05
5.78102e-05
4.23917e-05
2.03934e-05
6.8062e-06
1.6596e-06
3.05002e-07
4.60057e-08
2.94477e-08
3.77679e-07
4.70574e-06
0.000193639
0.000194379
1.58318e-05
2.96963e-05
4.63697e-05
5.2995e-05
5.81404e-05
6.17842e-05
6.46995e-05
6.72521e-05
6.95933e-05
7.22204e-05
7.51092e-05
7.76911e-05
7.97198e-05
8.12437e-05
8.20707e-05
8.2153e-05
8.16713e-05
8.07346e-05
7.95174e-05
7.8174e-05
7.7073e-05
7.67763e-05
7.75338e-05
7.91989e-05
8.14491e-05
8.38725e-05
8.61629e-05
8.8047e-05
8.9313e-05
8.98204e-05
8.92559e-05
8.74069e-05
8.41729e-05
7.95335e-05
7.36314e-05
6.69033e-05
6.00539e-05
5.36277e-05
4.82463e-05
4.45663e-05
4.2714e-05
4.26247e-05
4.37777e-05
4.55807e-05
4.91327e-05
5.54194e-05
6.35977e-05
6.94e-05
6.60884e-05
4.55671e-05
2.1265e-05
7.04423e-06
1.71769e-06
3.15559e-07
4.72823e-08
2.95649e-08
3.79017e-07
4.71084e-06
0.000193651
0.000194237
1.30507e-05
3.02487e-05
4.94402e-05
6.19822e-05
7.10524e-05
7.63911e-05
7.99284e-05
8.31586e-05
8.62034e-05
8.87469e-05
9.0865e-05
9.25811e-05
9.38827e-05
9.49556e-05
9.54353e-05
9.4981e-05
9.37619e-05
9.20663e-05
9.02143e-05
8.84511e-05
8.71861e-05
8.69815e-05
8.79504e-05
8.96822e-05
9.17412e-05
9.39472e-05
9.60999e-05
9.78468e-05
9.88496e-05
9.89327e-05
9.78215e-05
9.48912e-05
8.98618e-05
8.28615e-05
7.43055e-05
6.50316e-05
5.6159e-05
4.84851e-05
4.27626e-05
3.93861e-05
3.82274e-05
3.88692e-05
4.07125e-05
4.38948e-05
4.89415e-05
5.59442e-05
6.40457e-05
6.88261e-05
6.33504e-05
4.24793e-05
1.99068e-05
6.63771e-06
1.62463e-06
2.9863e-07
4.49332e-08
2.95235e-08
3.78813e-07
4.71148e-06
0.000193663
0.000194258
2.34803e-05
3.04515e-05
4.34731e-05
5.76317e-05
7.00633e-05
7.71292e-05
7.97668e-05
8.17261e-05
8.41862e-05
8.69185e-05
8.97957e-05
9.25996e-05
9.51449e-05
9.73708e-05
9.88975e-05
9.95324e-05
9.91848e-05
9.79235e-05
9.61735e-05
9.44482e-05
9.31179e-05
9.28006e-05
9.37468e-05
9.56204e-05
9.80957e-05
0.000100899
0.000103681
0.000105938
0.000107426
0.000108115
0.00010758
0.000105011
0.000100033
9.25696e-05
8.27729e-05
7.15225e-05
6.04068e-05
5.07848e-05
4.35917e-05
3.96443e-05
3.81327e-05
3.85431e-05
4.02983e-05
4.31727e-05
4.77402e-05
5.40676e-05
6.17163e-05
6.67706e-05
6.24997e-05
4.25335e-05
2.00098e-05
6.68026e-06
1.63393e-06
2.99866e-07
4.50234e-08
2.94904e-08
3.78651e-07
4.71217e-06
0.000193659
0.000193855
1.69898e-05
3.12821e-05
4.44865e-05
5.0161e-05
5.31273e-05
5.45107e-05
5.70413e-05
6.08252e-05
6.47344e-05
6.80953e-05
7.14677e-05
7.55533e-05
8.02803e-05
8.53979e-05
9.02386e-05
9.40465e-05
9.62924e-05
9.6778e-05
9.60607e-05
9.5017e-05
9.43635e-05
9.48487e-05
9.66243e-05
9.92907e-05
0.000102425
0.000105815
0.000109144
0.000111907
0.000113773
0.000114655
0.00011453
0.000113965
0.000112318
0.000108308
0.000101419
9.16317e-05
7.98027e-05
6.77255e-05
5.71912e-05
4.93123e-05
4.49501e-05
4.44386e-05
4.62727e-05
4.83837e-05
5.09885e-05
5.4622e-05
5.9124e-05
6.24194e-05
5.95149e-05
4.34736e-05
2.09269e-05
7.01469e-06
1.71201e-06
3.13387e-07
4.67389e-08
2.94366e-08
3.78263e-07
4.71236e-06
0.000193645
0.000194157
2.53198e-05
3.89669e-05
4.41182e-05
4.7991e-05
5.21792e-05
5.63714e-05
6.05283e-05
6.49823e-05
6.9769e-05
7.50208e-05
8.07885e-05
8.69557e-05
9.35712e-05
0.000100504
0.000106865
0.000111657
0.000114479
0.000114954
0.00011357
0.000112072
0.0001117
0.000112536
0.000114624
0.000117436
0.000120517
0.000123572
0.000126195
0.0001278
0.000127938
0.000126241
0.000121769
0.000113598
0.000102743
9.1852e-05
8.20661e-05
7.23362e-05
6.21358e-05
5.25842e-05
4.53087e-05
4.17056e-05
4.23147e-05
4.59506e-05
5.10542e-05
5.3938e-05
5.45609e-05
5.47698e-05
5.50757e-05
5.47953e-05
5.08293e-05
3.7881e-05
1.84805e-05
6.13405e-06
1.47451e-06
2.66305e-07
3.9981e-08
2.91955e-08
3.79436e-07
4.71141e-06
0.000193624
0.0001942
2.6785e-05
3.05125e-05
3.43168e-05
4.13102e-05
4.81665e-05
5.69997e-05
6.50412e-05
7.65674e-05
8.75324e-05
9.75245e-05
0.000106313
0.000113765
0.000119833
0.000123785
0.000125293
0.000125176
0.000123741
0.000121126
0.000117985
0.000115574
0.000115926
0.000118492
0.000122097
0.000126403
0.000130498
0.00013326
0.000133814
0.000131719
0.000126498
0.000118018
0.000106789
9.33135e-05
7.95748e-05
6.77726e-05
5.85501e-05
5.1254e-05
4.53341e-05
4.12119e-05
3.96832e-05
4.13352e-05
4.61675e-05
5.38818e-05
6.1206e-05
6.3002e-05
6.09446e-05
5.75481e-05
5.38029e-05
4.95405e-05
4.2409e-05
2.85797e-05
1.21878e-05
3.57057e-06
7.72846e-07
1.28004e-07
2.13689e-08
2.92395e-08
3.81347e-07
4.72096e-06
0.000193663
0.00019477
1.95053e-05
2.72385e-05
3.71169e-05
4.63052e-05
5.67906e-05
6.57637e-05
7.49783e-05
8.44385e-05
9.49379e-05
0.000105555
0.000115032
0.000123431
0.000130059
0.000134352
0.000136262
0.000136859
0.00013634
0.000134468
0.000131733
0.000130348
0.00013206
0.000135148
0.000138501
0.00014159
0.000143979
0.000145249
0.000145211
0.00014278
0.000137351
0.000129344
0.000119005
0.000105793
8.83626e-05
6.82592e-05
5.42109e-05
4.87362e-05
4.62837e-05
4.54671e-05
4.63818e-05
4.93722e-05
5.41487e-05
5.97205e-05
6.33248e-05
6.3726e-05
6.24207e-05
5.94469e-05
5.51221e-05
4.94366e-05
4.07491e-05