/*--------------------------------*- C++ -*----------------------------------*\
| =========                 |                                                 |
| \\      /  F ield         | OpenFOAM: The Open Source CFD Toolbox           |
|  \\    /   O peration     | Version:  2.1.1                                 |
|   \\  /    A nd           | Web:      www.OpenFOAM.org                      |
|    \\/     M anipulation  |                                                 |
\*---------------------------------------------------------------------------*/
FoamFile
{
    version     2.0;
    format      ascii;
    class       volScalarField;
    location    "0.0011";
    object      nut;
}
// * * * * * * * * * * * * * * * * * * * * * * * * * * * * * * * * * * * * * //

dimensions      [0 2 -1 0 0 0 0];

internalField   nonuniform List<scalar> 
36520
(
7.01928e-06
9.52275e-06
1.20544e-05
1.25905e-05
1.32335e-05
1.34585e-05
1.3726e-05
1.38361e-05
1.38669e-05
1.38143e-05
1.36575e-05
1.34491e-05
1.31686e-05
1.28565e-05
1.25105e-05
1.21638e-05
1.17961e-05
1.14338e-05
1.10544e-05
1.06691e-05
1.02579e-05
9.82626e-06
9.36079e-06
8.86873e-06
8.35089e-06
7.82182e-06
7.28756e-06
6.76034e-06
6.24787e-06
5.76012e-06
5.30199e-06
4.88029e-06
4.49821e-06
4.15835e-06
3.8602e-06
3.60162e-06
3.37738e-06
3.17972e-06
2.99958e-06
2.82672e-06
2.64959e-06
2.45604e-06
2.23767e-06
1.9963e-06
1.72758e-06
1.47531e-06
1.25992e-06
1.07346e-06
7.73611e-07
4.69818e-07
4.00217e-07
3.76168e-07
3.64301e-07
3.51914e-07
3.51616e-07
3.44861e-07
3.48905e-07
3.44452e-07
3.50633e-07
3.69722e-07
1.05074e-05
3.17603e-06
3.17775e-06
2.73313e-06
2.48037e-06
2.28033e-06
2.20452e-06
2.11822e-06
2.04904e-06
1.96563e-06
1.88974e-06
1.81862e-06
1.76184e-06
1.72371e-06
1.69657e-06
1.67479e-06
1.64836e-06
1.61583e-06
1.56969e-06
1.50821e-06
1.42726e-06
1.33005e-06
1.21468e-06
1.08761e-06
9.5888e-07
8.36051e-07
7.20594e-07
6.15139e-07
5.24418e-07
4.49113e-07
3.89011e-07
3.44086e-07
3.14345e-07
2.95956e-07
2.84723e-07
2.76631e-07
2.67203e-07
2.5406e-07
2.37703e-07
2.19304e-07
2.01222e-07
1.86197e-07
1.77073e-07
1.71015e-07
1.7056e-07
1.76103e-07
1.86002e-07
1.71954e-07
9.56698e-08
1.57538e-08
5.61962e-09
1.55958e-08
1.77737e-08
1.8373e-08
1.93218e-08
1.91949e-08
1.98815e-08
1.94512e-08
2.39833e-08
6.34448e-07
6.89671e-06
9.31239e-07
7.51543e-07
5.35544e-07
4.29251e-07
3.63639e-07
3.38406e-07
3.17409e-07
3.01328e-07
2.85874e-07
2.72067e-07
2.60587e-07
2.5174e-07
2.46729e-07
2.45484e-07
2.46015e-07
2.46762e-07
2.45463e-07
2.41008e-07
2.31976e-07
2.17831e-07
1.99417e-07
1.77062e-07
1.53513e-07
1.32757e-07
1.17143e-07
1.06824e-07
1.01193e-07
9.96966e-08
1.01113e-07
1.0454e-07
1.09677e-07
1.16549e-07
1.25364e-07
1.36545e-07
1.50518e-07
1.67866e-07
1.89343e-07
2.16304e-07
2.50654e-07
2.94822e-07
3.50838e-07
4.19681e-07
4.99512e-07
5.72458e-07
6.30722e-07
6.78128e-07
6.10235e-07
3.49102e-07
7.83991e-08
3.81827e-09
8.40696e-10
1.46816e-09
1.43204e-09
1.41536e-09
1.35563e-09
1.36924e-09
1.35714e-09
4.18855e-09
5.78959e-07
4.69955e-06
2.99725e-07
1.91778e-07
1.16073e-07
8.54528e-08
6.92394e-08
6.40277e-08
6.01968e-08
5.7899e-08
5.61034e-08
5.47946e-08
5.47117e-08
5.58141e-08
5.85437e-08
6.29109e-08
6.82142e-08
7.40501e-08
8.01983e-08
8.66407e-08
9.34949e-08
1.01016e-07
1.09786e-07
1.20193e-07
1.32819e-07
1.4776e-07
1.64798e-07
1.83366e-07
2.03058e-07
2.22552e-07
2.40838e-07
2.57694e-07
2.73697e-07
2.89358e-07
3.05572e-07
3.23668e-07
3.46123e-07
3.77298e-07
4.21241e-07
4.8227e-07
5.66124e-07
6.81103e-07
8.35213e-07
1.03385e-06
1.2658e-06
1.48868e-06
1.63453e-06
1.70195e-06
1.55935e-06
9.40246e-07
2.81275e-07
1.93485e-08
7.66502e-10
9.87351e-11
1.16075e-10
9.65894e-11
8.34287e-11
7.81743e-11
1.14274e-10
3.0869e-09
5.68989e-07
3.29993e-06
9.37534e-08
4.15931e-08
1.47127e-08
1.35482e-08
1.47077e-08
1.69938e-08
2.0028e-08
2.43048e-08
2.96715e-08
3.64215e-08
4.47912e-08
5.51249e-08
6.72022e-08
8.19564e-08
9.94804e-08
1.18422e-07
1.39989e-07
1.65382e-07
1.96489e-07
2.35153e-07
2.83567e-07
3.44049e-07
4.19028e-07
5.09225e-07
6.15234e-07
7.36925e-07
8.73404e-07
1.0072e-06
1.12136e-06
1.21538e-06
1.27401e-06
1.24588e-06
1.15153e-06
1.04469e-06
9.76782e-07
9.81508e-07
1.03147e-06
1.12644e-06
1.27717e-06
1.50129e-06
1.81813e-06
2.26723e-06
2.8483e-06
3.37353e-06
3.53532e-06
3.40764e-06
3.01942e-06
2.05518e-06
7.54924e-07
8.04845e-08
4.21826e-09
1.41281e-10
1.02286e-11
7.69717e-12
5.40943e-12
4.59927e-12
4.49409e-11
3.18017e-09
5.67403e-07
2.55936e-06
1.38413e-08
1.12149e-08
2.1001e-08
2.1617e-08
2.13761e-08
2.49409e-08
3.14007e-08
4.00951e-08
5.19548e-08
6.80021e-08
8.8923e-08
1.16193e-07
1.52332e-07
1.99238e-07
2.60425e-07
3.35923e-07
4.279e-07
5.44319e-07
6.98435e-07
9.06524e-07
1.18952e-06
1.58201e-06
2.12474e-06
2.83486e-06
3.70484e-06
4.74476e-06
6.02788e-06
7.36211e-06
8.40331e-06
8.79414e-06
8.6155e-06
7.87003e-06
6.67935e-06
5.39081e-06
4.28755e-06
3.51288e-06
3.16864e-06
3.13557e-06
3.28588e-06
3.64397e-06
4.19805e-06
4.97658e-06
5.97079e-06
6.72186e-06
6.63914e-06
5.84351e-06
4.92384e-06
3.596e-06
1.60785e-06
2.65467e-07
1.99058e-08
9.28456e-10
2.648e-11
8.93767e-13
4.12649e-13
7.49168e-13
4.19739e-11
3.1922e-09
5.67111e-07
2.94016e-06
4.70738e-08
1.44659e-07
4.46363e-07
4.1532e-07
2.76098e-07
2.19045e-07
2.53223e-07
3.07107e-07
3.82841e-07
4.92777e-07
6.43438e-07
8.39989e-07
1.1242e-06
1.49054e-06
1.72355e-06
2.06324e-06
2.50149e-06
2.94904e-06
3.49943e-06
4.38613e-06
5.59077e-06
7.18219e-06
9.47006e-06
1.25656e-05
1.58064e-05
1.85903e-05
2.15502e-05
2.43148e-05
2.61263e-05
2.6987e-05
2.69142e-05
2.56361e-05
2.29821e-05
1.93956e-05
1.56505e-05
1.22987e-05
9.6792e-06
7.98314e-06
7.18028e-06
7.05036e-06
7.24783e-06
7.74066e-06
8.43458e-06
8.92148e-06
8.61216e-06
7.53196e-06
6.28198e-06
5.0097e-06
2.87651e-06
7.17407e-07
7.48427e-08
4.42646e-09
1.53326e-10
3.47553e-12
2.81932e-13
6.1229e-13
4.16357e-11
3.18115e-09
5.6671e-07
8.93113e-06
7.03843e-07
2.67037e-06
5.77975e-06
6.30286e-06
4.08719e-06
3.28338e-06
3.87309e-06
4.69881e-06
5.7876e-06
7.33579e-06
9.41309e-06
1.18664e-05
1.47218e-05
1.56141e-05
1.51369e-05
1.57572e-05
1.76279e-05
1.93539e-05
2.11048e-05
2.35555e-05
2.66899e-05
3.01233e-05
3.38318e-05
3.79924e-05
4.21547e-05
4.54222e-05
4.73149e-05
4.80283e-05
4.80056e-05
4.72362e-05
4.57399e-05
4.35809e-05
4.05936e-05
3.66633e-05
3.20578e-05
2.72735e-05
2.27016e-05
1.86107e-05
1.51609e-05
1.28069e-05
1.17174e-05
1.12128e-05
1.04877e-05
9.59702e-06
8.65037e-06
7.57463e-06
6.59022e-06
5.69838e-06
3.89237e-06
1.37193e-06
1.99423e-07
1.51478e-08
6.53705e-10
1.70974e-11
5.04643e-13
6.0553e-13
4.12515e-11
3.16645e-09
5.66087e-07
1.37296e-05
1.25137e-06
2.87489e-06
5.09084e-06
7.12564e-06
9.89963e-06
1.23826e-05
1.58515e-05
1.92721e-05
2.26808e-05
2.69498e-05
3.24257e-05
3.77247e-05
4.19721e-05
4.45379e-05
4.48599e-05
4.37384e-05
4.29743e-05
4.288e-05
4.28169e-05
4.26296e-05
4.27165e-05
4.32001e-05
4.39429e-05
4.48403e-05
4.5796e-05
4.6554e-05
4.69024e-05
4.67137e-05
4.59758e-05
4.47734e-05
4.31326e-05
4.10427e-05
3.84772e-05
3.54611e-05
3.2225e-05
2.90424e-05
2.60633e-05
2.33763e-05
2.08356e-05
1.80739e-05
1.53579e-05
1.3382e-05
1.18302e-05
1.01194e-05
8.45247e-06
7.22358e-06
6.61145e-06
6.3891e-06
5.13762e-06
2.37781e-06
4.7844e-07
4.76295e-08
2.56786e-09
8.01667e-11
1.74568e-12
6.15276e-13
4.09076e-11
3.15579e-09
5.65437e-07
1.36433e-05
1.27722e-06
3.09006e-06
5.4617e-06
8.81248e-06
1.12968e-05
1.30376e-05
1.45762e-05
1.62695e-05
1.85371e-05
2.14819e-05
2.50624e-05
2.92915e-05
3.39069e-05
3.86665e-05
4.29118e-05
4.67294e-05
5.03681e-05
5.36705e-05
5.47146e-05
5.34639e-05
5.15039e-05
5.01329e-05
4.98979e-05
5.04116e-05
5.10624e-05
5.16789e-05
5.21686e-05
5.21407e-05
5.12432e-05
4.94944e-05
4.70333e-05
4.38918e-05
4.02202e-05
3.62295e-05
3.19846e-05
2.73021e-05
2.21687e-05
1.73303e-05
1.34867e-05
1.09989e-05
9.38564e-06
8.11573e-06
7.12465e-06
6.54477e-06
6.256e-06
6.21961e-06
6.56559e-06
6.87892e-06
5.6598e-06
2.62821e-06
5.49146e-07
5.75059e-08
3.24078e-09
1.04226e-10
2.22765e-12
6.20759e-13
4.08966e-11
3.15755e-09
5.65445e-07
1.17333e-05
1.11221e-06
5.98883e-06
1.30253e-05
1.85207e-05
2.40164e-05
2.89125e-05
3.31401e-05
3.72619e-05
4.18388e-05
4.715e-05
5.44118e-05
6.35898e-05
7.36636e-05
8.28584e-05
9.11697e-05
9.97755e-05
0.000108911
0.000114838
0.000114309
0.000108673
0.000103598
0.000101316
0.000101965
0.000104687
0.000108231
0.000111924
0.000114915
0.000116067
0.000115043
0.000111858
0.000106736
0.000100057
9.17632e-05
8.16995e-05
6.99313e-05
5.66915e-05
4.19053e-05
2.83409e-05
1.87501e-05
1.29658e-05
1.0011e-05
8.64618e-06
7.83117e-06
7.18549e-06
6.72882e-06
6.38072e-06
6.24531e-06
6.19354e-06
5.13597e-06
2.51422e-06
5.59908e-07
6.11236e-08
3.52999e-09
1.14691e-10
2.42375e-12
6.19606e-13
4.09371e-11
3.16046e-09
5.65157e-07
1.08678e-05
1.86884e-06
7.1392e-06
1.51004e-05
2.04955e-05
2.74319e-05
3.36213e-05
4.09039e-05
5.10871e-05
6.5417e-05
8.34461e-05
0.000103036
0.000121909
0.000138309
0.000149203
0.000155528
0.00015974
0.000162079
0.000160379
0.000152995
0.000139889
0.000125823
0.000119516
0.000120729
0.000127279
0.000136736
0.000145978
0.000152289
0.000154718
0.000153636
0.000150211
0.000145467
0.00013968
0.00013068
0.000117887
0.000101229
8.08922e-05
5.89547e-05
3.87026e-05
2.31424e-05
1.44381e-05
1.118e-05
1.09079e-05
1.1373e-05
1.11529e-05
1.06295e-05
9.5517e-06
8.03471e-06
6.46382e-06
4.61425e-06
2.14739e-06
4.41411e-07
4.19388e-08
2.13438e-09
6.22503e-11
1.28224e-12
6.00239e-13
4.11926e-11
3.16915e-09
5.65143e-07
1.27249e-05
2.54004e-06
7.40136e-06
1.59183e-05
2.2067e-05
3.06155e-05
3.87382e-05
4.79082e-05
5.8427e-05
7.25854e-05
9.08609e-05
0.000111506
0.000131688
0.000149096
0.000161404
0.000168024
0.000171099
0.000170252
0.000164652
0.000154558
0.000140503
0.000125963
0.000119614
0.00012041
0.000124912
0.000130364
0.000137101
0.000143182
0.000146186
0.000146134
0.000143843
0.000139462
0.000132369
0.000121782
0.000107661
9.07459e-05
7.13154e-05
5.08979e-05
3.3131e-05
2.04233e-05
1.35735e-05
1.14429e-05
1.28987e-05
1.55003e-05
1.57151e-05
1.40467e-05
1.16662e-05
9.12888e-06
6.92944e-06
4.75112e-06
2.16179e-06
4.33954e-07
4.08056e-08
2.06826e-09
6.02635e-11
1.24628e-12
5.99214e-13
4.11787e-11
3.16685e-09
5.65032e-07
1.24566e-05
2.71003e-06
8.77874e-06
1.5165e-05
2.25614e-05
3.19236e-05
4.05025e-05
4.74279e-05
5.27132e-05
5.79246e-05
6.46907e-05
7.32838e-05
8.28378e-05
9.23003e-05
0.000100911
0.000107924
0.000113609
0.000117755
0.000117927
0.000111497
0.000100953
9.23506e-05
8.69681e-05
8.49766e-05
8.6583e-05
8.9873e-05
9.33884e-05
9.64814e-05
9.82365e-05
9.80404e-05
9.59193e-05
9.20638e-05
8.61791e-05
7.81889e-05
6.85463e-05
5.72399e-05
4.4982e-05
3.29149e-05
2.25536e-05
1.51128e-05
1.07814e-05
9.11036e-06
9.26532e-06
9.78058e-06
9.31191e-06
8.38003e-06
7.53752e-06
7.01605e-06
6.62483e-06
5.09212e-06
2.23631e-06
4.72185e-07
5.0365e-08
2.88014e-09
9.31107e-11
2.0028e-12
6.15422e-13
4.11388e-11
3.16097e-09
5.65327e-07
1.31552e-05
1.8112e-06
5.2063e-06
9.44079e-06
1.62066e-05
2.89332e-05
4.03952e-05
4.51912e-05
4.81833e-05
5.14919e-05
5.60009e-05
6.11683e-05
6.65459e-05
7.13337e-05
7.55264e-05
7.85455e-05
7.96941e-05
7.82068e-05
7.3678e-05
6.78572e-05
6.28832e-05
5.95981e-05
5.77978e-05
5.654e-05
5.58295e-05
5.64662e-05
5.72343e-05
5.72999e-05
5.65443e-05
5.53184e-05
5.32255e-05
4.97214e-05
4.49044e-05
3.92106e-05
3.33186e-05
2.76056e-05
2.21262e-05
1.70914e-05
1.27771e-05
9.50219e-06
7.3869e-06
6.28799e-06
5.94939e-06
5.90063e-06
5.85793e-06
5.89793e-06
6.06074e-06
6.40249e-06
6.45152e-06
4.65158e-06
1.7294e-06
3.26931e-07
3.26138e-08
1.78989e-09
5.63883e-11
1.28813e-12
6.10658e-13
4.11903e-11
3.16155e-09
5.65866e-07
1.19142e-05
2.24454e-06
6.59833e-06
1.05614e-05
1.42921e-05
2.01632e-05
2.35411e-05
2.79576e-05
3.19732e-05
3.65638e-05
4.24323e-05
4.85797e-05
5.43797e-05
5.92098e-05
6.21469e-05
6.32851e-05
6.28104e-05
6.09878e-05
5.83851e-05
5.5584e-05
5.32201e-05
5.16059e-05
4.99926e-05
4.8166e-05
4.64238e-05
4.49891e-05
4.37736e-05
4.24417e-05
4.06174e-05
3.83308e-05
3.57536e-05
3.29803e-05
3.00099e-05
2.68333e-05
2.35182e-05
2.02189e-05
1.7104e-05
1.42716e-05
1.18647e-05
1.00258e-05
8.73263e-06
8.16792e-06
8.35374e-06
8.51585e-06
7.96334e-06
7.14959e-06
6.52918e-06
6.3317e-06
6.17883e-06
4.43425e-06
1.6007e-06
2.81728e-07
2.61752e-08
1.36188e-09
4.1504e-11
9.95191e-13
6.07139e-13
4.10407e-11
3.15696e-09
5.65794e-07
7.47735e-06
3.94e-07
1.21282e-06
3.10745e-06
4.22822e-06
4.82611e-06
3.99358e-06
3.61361e-06
3.88148e-06
4.93496e-06
6.43151e-06
8.51501e-06
1.12656e-05
1.46826e-05
1.87796e-05
2.18758e-05
2.28672e-05
2.28454e-05
2.21242e-05
2.19475e-05
2.33844e-05
2.51877e-05
2.62082e-05
2.7113e-05
2.86683e-05
3.1219e-05
3.41257e-05
3.60452e-05
3.64387e-05
3.56282e-05
3.42584e-05
3.22268e-05
2.93124e-05
2.55085e-05
2.14281e-05
1.78052e-05
1.48983e-05
1.28234e-05
1.14602e-05
1.06954e-05
1.05889e-05
1.0971e-05
1.10845e-05
1.04397e-05
9.39619e-06
8.18138e-06
7.00906e-06
6.11676e-06
5.35509e-06
3.48355e-06
1.07404e-06
1.45237e-07
1.05098e-08
4.42097e-10
1.14694e-11
4.075e-13
6.0025e-13
4.10239e-11
3.16289e-09
5.65664e-07
2.85327e-06
2.96596e-08
8.30857e-08
3.29771e-07
5.09389e-07
4.80229e-07
2.82597e-07
2.14544e-07
2.46177e-07
3.15343e-07
4.17017e-07
5.7027e-07
8.05717e-07
1.18391e-06
1.77922e-06
2.5609e-06
2.93513e-06
2.92517e-06
2.68158e-06
2.49894e-06
2.65885e-06
2.9993e-06
3.38322e-06
3.85751e-06
4.4857e-06
5.26697e-06
6.05243e-06
6.65173e-06
7.05274e-06
7.24175e-06
6.92984e-06
6.27731e-06
5.43885e-06
4.64154e-06
4.14187e-06
3.97379e-06
4.11361e-06
4.48491e-06
5.10604e-06
5.98656e-06
7.38158e-06
9.26819e-06
1.10616e-05
1.16998e-05
1.12754e-05
9.86212e-06
7.91904e-06
6.1641e-06
4.68581e-06
2.55252e-06
5.68057e-07
5.60277e-08
3.17403e-09
1.07242e-10
2.65937e-12
4.62952e-13
7.57801e-13
4.16971e-11
3.18243e-09
5.66565e-07
2.94883e-06
1.42041e-08
8.32326e-09
1.74588e-08
3.39286e-08
3.25013e-08
2.5444e-08
2.92467e-08
3.7719e-08
4.88259e-08
6.34742e-08
8.24585e-08
1.06263e-07
1.3529e-07
1.6952e-07
2.11667e-07
2.61811e-07
2.90973e-07
3.13694e-07
3.51029e-07
4.00756e-07
4.58688e-07
5.25307e-07
6.04535e-07
6.96869e-07
7.99381e-07
8.99337e-07
9.84507e-07
1.05079e-06
1.10046e-06
1.13729e-06
1.17244e-06
1.21965e-06
1.28623e-06
1.37889e-06
1.50868e-06
1.69605e-06
1.96512e-06
2.35458e-06
2.9163e-06
3.73831e-06
4.96035e-06
6.66296e-06
7.6501e-06
7.65327e-06
7.10423e-06
6.1766e-06
5.02193e-06
3.52915e-06
1.518e-06
2.27144e-07
1.61101e-08
7.29358e-10
2.15981e-11
2.14151e-12
1.65305e-12
1.58399e-12
4.26945e-11
3.19642e-09
5.66892e-07
4.00269e-06
8.96083e-08
2.69429e-08
1.08263e-08
8.55374e-09
1.10685e-08
1.68137e-08
2.2165e-08
2.8307e-08
3.57484e-08
4.48582e-08
5.5683e-08
6.83514e-08
8.26489e-08
9.82077e-08
1.14408e-07
1.31055e-07
1.51449e-07
1.7382e-07
1.9733e-07
2.24504e-07
2.56863e-07
2.94608e-07
3.38895e-07
3.89838e-07
4.46966e-07
5.06261e-07
5.63487e-07
6.15387e-07
6.6071e-07
7.00513e-07
7.37503e-07
7.7621e-07
8.21765e-07
8.81608e-07
9.634e-07
1.08122e-06
1.25072e-06
1.49168e-06
1.83397e-06
2.32064e-06
2.93755e-06
3.54163e-06
3.80457e-06
3.79925e-06
3.67712e-06
3.54287e-06
3.12173e-06
2.10875e-06
7.98746e-07
8.25141e-08
4.23029e-09
1.35133e-10
1.06022e-11
1.06038e-11
8.76833e-12
7.55701e-12
4.78423e-11
3.18664e-09
5.67211e-07
5.73963e-06
3.07851e-07
1.34388e-07
5.48054e-08
3.57834e-08
2.85698e-08
2.88516e-08
2.99165e-08
3.27184e-08
3.62566e-08
4.0492e-08
4.55811e-08
5.17969e-08
5.91107e-08
6.74919e-08
7.71264e-08
8.7282e-08
9.80108e-08
1.09152e-07
1.21842e-07
1.36107e-07
1.52575e-07
1.71217e-07
1.92461e-07
2.16172e-07
2.4203e-07
2.68235e-07
2.9315e-07
3.15321e-07
3.34818e-07
3.52261e-07
3.69124e-07
3.88416e-07
4.13033e-07
4.46294e-07
4.91908e-07
5.56e-07
6.4606e-07
7.71428e-07
9.41413e-07
1.16154e-06
1.42592e-06
1.65674e-06
1.7958e-06
1.86716e-06
1.91932e-06
1.95086e-06
1.72636e-06
1.05829e-06
3.48711e-07
2.67566e-08
1.0569e-09
5.84861e-11
7.37617e-11
8.00939e-11
7.92109e-11
8.04761e-11
1.2103e-10
3.1166e-09
5.68186e-07
7.76747e-06
9.79597e-07
6.08221e-07
3.22203e-07
2.31687e-07
1.81766e-07
1.68319e-07
1.57884e-07
1.53148e-07
1.50309e-07
1.46907e-07
1.42322e-07
1.38872e-07
1.36896e-07
1.37291e-07
1.41468e-07
1.46678e-07
1.52869e-07
1.59855e-07
1.67539e-07
1.7306e-07
1.75884e-07
1.75651e-07
1.72885e-07
1.68443e-07
1.64639e-07
1.63314e-07
1.65083e-07
1.69212e-07
1.75083e-07
1.82454e-07
1.91384e-07
2.01894e-07
2.14442e-07
2.2985e-07
2.49011e-07
2.73374e-07
3.05118e-07
3.47699e-07
4.05041e-07
4.76879e-07
5.50937e-07
6.03979e-07
6.14876e-07
6.03016e-07
5.91822e-07
5.79756e-07
5.11898e-07
3.16592e-07
8.37622e-08
4.36946e-09
4.49434e-10
9.36263e-10
1.07955e-09
1.17657e-09
1.20172e-09
1.25026e-09
1.28586e-09
4.18062e-09
5.76506e-07
1.08672e-05
3.31073e-06
2.8972e-06
2.19162e-06
1.90804e-06
1.68662e-06
1.61655e-06
1.54637e-06
1.49887e-06
1.4495e-06
1.4073e-06
1.35384e-06
1.31169e-06
1.27655e-06
1.25076e-06
1.23486e-06
1.22337e-06
1.2148e-06
1.20785e-06
1.19877e-06
1.17786e-06
1.14406e-06
1.09455e-06
1.02868e-06
9.46809e-07
8.56114e-07
7.66841e-07
6.86011e-07
6.15405e-07
5.54808e-07
5.05937e-07
4.68149e-07
4.36838e-07
4.07199e-07
3.76785e-07
3.45023e-07
3.11638e-07
2.78191e-07
2.47644e-07
2.21037e-07
1.99021e-07
1.8189e-07
1.65869e-07
1.48007e-07
1.2995e-07
1.14891e-07
1.04824e-07
9.6031e-08
5.81635e-08
1.17615e-08
4.83317e-09
1.36746e-08
1.59429e-08
1.68283e-08
1.78472e-08
1.79599e-08
1.86017e-08
1.83889e-08
2.27225e-08
6.21729e-07
8.51336e-06
1.02359e-05
1.25282e-05
1.29646e-05
1.34347e-05
1.35853e-05
1.37312e-05
1.37652e-05
1.37198e-05
1.36119e-05
1.34179e-05
1.31859e-05
1.28842e-05
1.2556e-05
1.21857e-05
1.18039e-05
1.14075e-05
1.10273e-05
1.06405e-05
1.02537e-05
9.84624e-06
9.42509e-06
8.97449e-06
8.50341e-06
8.00915e-06
7.50582e-06
7.0038e-06
6.51971e-06
6.0597e-06
5.6302e-06
5.23468e-06
4.87777e-06
4.55763e-06
4.27129e-06
4.01329e-06
3.77959e-06
3.564e-06
3.35665e-06
3.14743e-06
2.9265e-06
2.67173e-06
2.38035e-06
2.06758e-06
1.75493e-06
1.46931e-06
1.22001e-06
1.00411e-06
8.21459e-07
6.21194e-07
4.5403e-07
4.08578e-07
3.90475e-07
3.80752e-07
3.69633e-07
3.68818e-07
3.61501e-07
3.64861e-07
3.59583e-07
3.65179e-07
3.77611e-07
7.54681e-06
9.44612e-06
1.18522e-05
1.25009e-05
1.31732e-05
1.3462e-05
1.36843e-05
1.37554e-05
1.37135e-05
1.36075e-05
1.3398e-05
1.31562e-05
1.28363e-05
1.25018e-05
1.21247e-05
1.17432e-05
1.13411e-05
1.09434e-05
1.05338e-05
1.01254e-05
9.69576e-06
9.24981e-06
8.77385e-06
8.27642e-06
7.76073e-06
7.24628e-06
6.74237e-06
6.26167e-06
5.80889e-06
5.39001e-06
5.00704e-06
4.66243e-06
4.35457e-06
4.08236e-06
3.84284e-06
3.63265e-06
3.44468e-06
3.2676e-06
3.0896e-06
2.8991e-06
2.67416e-06
2.40427e-06
2.11078e-06
1.81414e-06
1.53782e-06
1.2937e-06
1.0832e-06
8.962e-07
6.81458e-07
4.6913e-07
4.0671e-07
3.88212e-07
3.79136e-07
3.68823e-07
3.68512e-07
3.61688e-07
3.65196e-07
3.60241e-07
3.66684e-07
3.89761e-07
1.01627e-05
3.04826e-06
2.98223e-06
2.46354e-06
2.24114e-06
1.9813e-06
1.85021e-06
1.72149e-06
1.62416e-06
1.5315e-06
1.46344e-06
1.38317e-06
1.33005e-06
1.27988e-06
1.2414e-06
1.21184e-06
1.18531e-06
1.16308e-06
1.14335e-06
1.11719e-06
1.07998e-06
1.02895e-06
9.61552e-07
8.80621e-07
7.90807e-07
7.0127e-07
6.18073e-07
5.44223e-07
4.80393e-07
4.2804e-07
3.87891e-07
3.57694e-07
3.34453e-07
3.15235e-07
2.9755e-07
2.79414e-07
2.59899e-07
2.39551e-07
2.20148e-07
2.02211e-07
1.85688e-07
1.72145e-07
1.60319e-07
1.47835e-07
1.33519e-07
1.1829e-07
1.02719e-07
8.71966e-08
5.64659e-08
1.4215e-08
3.87414e-09
1.29914e-08
1.55194e-08
1.63183e-08
1.73959e-08
1.73945e-08
1.81442e-08
1.78014e-08
2.24213e-08
6.29287e-07
6.49591e-06
9.01015e-07
6.82065e-07
4.33383e-07
3.39948e-07
2.57608e-07
2.22519e-07
1.92687e-07
1.74561e-07
1.60546e-07
1.51677e-07
1.41813e-07
1.3666e-07
1.3219e-07
1.30009e-07
1.29828e-07
1.30867e-07
1.33136e-07
1.36524e-07
1.38728e-07
1.38592e-07
1.35853e-07
1.30669e-07
1.24568e-07
1.18958e-07
1.15891e-07
1.15815e-07
1.18477e-07
1.23209e-07
1.29656e-07
1.37638e-07
1.47162e-07
1.58248e-07
1.7131e-07
1.87195e-07
2.07191e-07
2.33462e-07
2.68862e-07
3.17113e-07
3.81039e-07
4.60022e-07
5.34429e-07
5.84425e-07
5.86466e-07
5.46015e-07
4.95994e-07
4.53376e-07
3.92233e-07
2.66467e-07
8.76115e-08
5.28082e-09
4.07839e-10
8.30908e-10
9.57811e-10
1.04857e-09
1.06677e-09
1.1223e-09
1.15255e-09
4.06291e-09
5.7763e-07
4.73074e-06
2.85852e-07
1.63642e-07
8.1526e-08
5.786e-08
4.10541e-08
3.6541e-08
3.39683e-08
3.46776e-08
3.69028e-08
4.06097e-08
4.51777e-08
5.09381e-08
5.759e-08
6.50131e-08
7.30807e-08
8.16894e-08
9.0712e-08
9.992e-08
1.09882e-07
1.20631e-07
1.32709e-07
1.46277e-07
1.61626e-07
1.78467e-07
1.9649e-07
2.15077e-07
2.34047e-07
2.53018e-07
2.72063e-07
2.91431e-07
3.12017e-07
3.35013e-07
3.62913e-07
3.99683e-07
4.51673e-07
5.29534e-07
6.48638e-07
8.27914e-07
1.09308e-06
1.47503e-06
2.00317e-06
2.40274e-06
2.42335e-06
2.08886e-06
1.73763e-06
1.54228e-06
1.36222e-06
9.57954e-07
3.75937e-07
3.56713e-08
1.24064e-09
4.75483e-11
4.42534e-11
5.34972e-11
5.52979e-11
5.94087e-11
1.01342e-10
3.12173e-09
5.68321e-07
3.59974e-06
9.43481e-08
4.08111e-08
1.9292e-08
1.74968e-08
1.89396e-08
2.34009e-08
2.92656e-08
3.69639e-08
4.62765e-08
5.75613e-08
7.08595e-08
8.63297e-08
1.0388e-07
1.23492e-07
1.44874e-07
1.67928e-07
1.93082e-07
2.19519e-07
2.48015e-07
2.80142e-07
3.17699e-07
3.61199e-07
4.10438e-07
4.63542e-07
5.17889e-07
5.69994e-07
6.1807e-07
6.61612e-07
6.99106e-07
7.30904e-07
7.61221e-07
7.94676e-07
8.38661e-07
9.02852e-07
1.00243e-06
1.1636e-06
1.42704e-06
1.8563e-06
2.54469e-06
3.63086e-06
5.16412e-06
6.70585e-06
6.44738e-06
4.93062e-06
3.84829e-06
3.53017e-06
3.30877e-06
2.45924e-06
1.12485e-06
1.64606e-07
8.22736e-09
2.76574e-10
7.68004e-12
2.33828e-12
2.55897e-12
3.22112e-12
4.45942e-11
3.19023e-09
5.67138e-07
2.91969e-06
2.05417e-08
1.04895e-08
1.04169e-08
1.40215e-08
1.91914e-08
2.61977e-08
3.52193e-08
4.70478e-08
6.18251e-08
8.04951e-08
1.03627e-07
1.3107e-07
1.62393e-07
1.96057e-07
2.30456e-07
2.6654e-07
3.06656e-07
3.52304e-07
4.05272e-07
4.6677e-07
5.40586e-07
6.28643e-07
7.28426e-07
8.31185e-07
9.26015e-07
1.0089e-06
1.083e-06
1.15031e-06
1.20611e-06
1.24738e-06
1.28155e-06
1.32118e-06
1.38096e-06
1.47543e-06
1.62805e-06
1.8825e-06
2.31003e-06
3.02867e-06
4.22722e-06
6.27011e-06
9.55793e-06
1.33475e-05
1.2997e-05
1.01994e-05
7.81213e-06
6.50826e-06
5.55458e-06
4.19114e-06
2.19006e-06
4.72895e-07
3.34376e-08
1.51676e-09
3.95477e-11
9.16177e-13
3.3929e-13
7.30055e-13
4.23391e-11
3.20004e-09
5.66557e-07
2.68025e-06
1.32411e-08
1.94912e-08
2.96251e-08
4.2993e-08
6.17298e-08
8.83017e-08
1.25772e-07
1.79404e-07
2.52004e-07
3.5032e-07
4.82025e-07
6.47674e-07
8.51679e-07
1.06614e-06
1.25067e-06
1.43879e-06
1.64384e-06
1.82005e-06
2.09769e-06
2.51417e-06
3.09081e-06
3.863e-06
4.8044e-06
5.79917e-06
6.6028e-06
7.04346e-06
7.23873e-06
7.35807e-06
7.38596e-06
7.09693e-06
6.47806e-06
5.77656e-06
5.11121e-06
4.36638e-06
4.04491e-06
4.15471e-06
4.65273e-06
5.64907e-06
7.47619e-06
1.0598e-05
1.50663e-05
1.96177e-05
1.99589e-05
1.69986e-05
1.34148e-05
1.03422e-05
7.51945e-06
5.16583e-06
2.9535e-06
8.92333e-07
9.12579e-08
4.77859e-09
1.43316e-10
2.83015e-12
2.67567e-13
6.18313e-13
4.19443e-11
3.18869e-09
5.66232e-07
3.67203e-06
6.99835e-08
1.31404e-07
2.17961e-07
3.13095e-07
4.52928e-07
6.61623e-07
9.81789e-07
1.4841e-06
2.21328e-06
3.25459e-06
4.76587e-06
6.68227e-06
9.12006e-06
1.17831e-05
1.31679e-05
1.45419e-05
1.62946e-05
1.73904e-05
1.84698e-05
2.10548e-05
2.49468e-05
3.04002e-05
3.72193e-05
4.4991e-05
5.24065e-05
5.743e-05
5.98883e-05
6.13506e-05
6.29212e-05
6.28992e-05
5.97088e-05
5.32999e-05
4.50162e-05
3.59043e-05
2.68447e-05
1.99144e-05
1.59505e-05
1.47061e-05
1.5385e-05
1.73455e-05
2.00978e-05
2.27006e-05
2.18991e-05
1.86499e-05
1.47065e-05
1.09429e-05
7.78833e-06
5.5262e-06
3.46409e-06
1.26232e-06
1.79823e-07
1.21719e-08
4.57426e-10
1.04849e-11
3.673e-13
6.06837e-13
4.14455e-11
3.17334e-09
5.65726e-07
9.54032e-06
4.81722e-07
9.61216e-07
1.87987e-06
2.77571e-06
3.99545e-06
5.52636e-06
7.71092e-06
1.09029e-05
1.50439e-05
2.01595e-05
2.83979e-05
3.70886e-05
4.5793e-05
5.20496e-05
5.51392e-05
5.76259e-05
6.14529e-05
6.47561e-05
6.58696e-05
6.70684e-05
7.11853e-05
7.85131e-05
8.812e-05
9.81507e-05
0.000107118
0.000113519
0.000116774
0.000117119
0.000115187
0.000111113
0.000104838
9.64831e-05
8.6927e-05
7.69636e-05
6.6143e-05
5.38096e-05
4.18795e-05
3.23795e-05
2.58458e-05
2.17826e-05
1.97699e-05
1.94295e-05
1.8728e-05
1.58612e-05
1.2059e-05
8.91989e-06
6.81301e-06
5.56334e-06
3.98993e-06
1.62324e-06
2.83593e-07
2.44001e-08
1.16037e-09
3.25907e-11
7.81469e-13
6.0364e-13
4.09496e-11
3.15774e-09
5.65189e-07
1.49048e-05
2.12075e-06
4.76466e-06
1.02603e-05
1.55889e-05
2.03934e-05
2.41815e-05
2.76443e-05
3.19765e-05
3.72093e-05
4.20295e-05
4.64309e-05
5.07072e-05
5.48913e-05
5.90496e-05
6.29469e-05
6.58845e-05
6.74243e-05
6.81444e-05
6.80709e-05
6.7489e-05
6.72144e-05
6.7667e-05
6.87817e-05
6.97134e-05
6.98629e-05
6.91254e-05
6.74746e-05
6.49654e-05
6.15202e-05
5.74471e-05
5.29659e-05
4.81206e-05
4.30773e-05
3.80111e-05
3.28927e-05
2.77935e-05
2.29409e-05
1.85569e-05
1.50494e-05
1.26513e-05
1.12373e-05
1.06697e-05
1.04711e-05
9.65092e-06
8.30552e-06
7.07636e-06
6.48913e-06
6.38237e-06
5.17704e-06
2.33237e-06
4.79843e-07
4.98843e-08
2.83594e-09
9.29533e-11
2.05708e-12
6.16336e-13
4.08233e-11
3.15158e-09
5.65213e-07
1.37819e-05
1.34732e-06
6.1566e-06
1.63669e-05
2.10372e-05
2.48195e-05
2.72493e-05
2.9037e-05
3.06224e-05
3.21388e-05
3.41689e-05
3.67388e-05
3.89634e-05
4.04849e-05
4.14127e-05
4.16612e-05
4.14587e-05
4.08459e-05
3.97826e-05
3.83478e-05
3.63976e-05
3.42586e-05
3.27225e-05
3.21809e-05
3.24255e-05
3.32759e-05
3.44873e-05
3.5808e-05
3.69185e-05
3.75774e-05
3.76964e-05
3.7039e-05
3.54144e-05
3.2741e-05
2.90508e-05
2.46034e-05
1.99478e-05
1.5685e-05
1.20791e-05
9.27712e-06
7.36603e-06
6.18748e-06
5.61761e-06
5.45161e-06
5.40483e-06
5.439e-06
5.83662e-06
6.61472e-06
7.15339e-06
5.62116e-06
2.30136e-06
4.58866e-07
4.80534e-08
2.77685e-09
9.20425e-11
2.0428e-12
6.17891e-13
4.10108e-11
3.15702e-09
5.65388e-07
1.30448e-05
8.81572e-07
6.40126e-06
1.95846e-05
3.02169e-05
3.93317e-05
4.49093e-05
4.87522e-05
5.25409e-05
5.62421e-05
5.92064e-05
6.1413e-05
6.278e-05
6.32694e-05
6.3168e-05
6.21841e-05
6.01972e-05
5.75519e-05
5.44812e-05
5.13368e-05
4.83252e-05
4.56978e-05
4.4177e-05
4.40367e-05
4.48337e-05
4.6089e-05
4.76564e-05
4.93181e-05
5.0626e-05
5.11504e-05
5.07541e-05
4.9331e-05
4.62926e-05
4.13831e-05
3.50094e-05
2.78676e-05
2.09303e-05
1.51102e-05
1.06968e-05
7.69981e-06
5.90221e-06
4.96988e-06
4.62673e-06
4.59549e-06
4.77454e-06
5.19468e-06
5.87596e-06
6.90288e-06
7.25349e-06
5.12136e-06
1.92474e-06
3.8891e-07
4.15912e-08
2.4373e-09
8.12732e-11
1.82852e-12
6.14733e-13
4.09663e-11
3.15578e-09
5.65122e-07
1.27889e-05
1.66675e-06
5.47601e-06
1.44678e-05
2.78245e-05
4.17004e-05
4.83501e-05
4.91708e-05
5.00772e-05
5.21421e-05
5.48175e-05
5.79512e-05
6.1157e-05
6.39267e-05
6.6062e-05
6.70326e-05
6.66606e-05
6.5016e-05
6.23325e-05
5.9136e-05
5.61147e-05
5.34193e-05
5.16314e-05
5.12423e-05
5.19875e-05
5.35812e-05
5.58243e-05
5.83482e-05
6.03236e-05
6.13304e-05
6.15401e-05
6.06731e-05
5.79009e-05
5.28369e-05
4.54726e-05
3.62864e-05
2.67058e-05
1.84906e-05
1.24322e-05
8.47266e-06
6.35151e-06
5.28623e-06
4.85625e-06
4.79141e-06
4.92267e-06
5.26236e-06
5.78925e-06
6.62716e-06
7.08131e-06
5.27433e-06
2.04923e-06
4.13012e-07
4.39803e-08
2.56241e-09
8.49145e-11
1.89007e-12
6.14678e-13
4.09401e-11
3.15528e-09
5.64877e-07
1.41852e-05
1.64132e-06
6.57326e-06
1.54104e-05
1.92589e-05
2.06091e-05
2.05143e-05
2.1631e-05
2.42723e-05
2.72009e-05
2.95664e-05
3.18538e-05
3.4886e-05
3.86798e-05
4.304e-05
4.7536e-05
5.12674e-05
5.33661e-05
5.33978e-05
5.18177e-05
4.95526e-05
4.7508e-05
4.66857e-05
4.73634e-05
4.91515e-05
5.17616e-05
5.50387e-05
5.855e-05
6.16843e-05
6.4064e-05
6.56242e-05
6.62573e-05
6.55273e-05
6.3198e-05
5.88216e-05
5.19068e-05
4.24976e-05
3.19964e-05
2.25916e-05
1.55814e-05
1.09706e-05
8.36812e-06
7.32127e-06
7.06334e-06
6.82335e-06
6.60354e-06
6.54597e-06
6.68503e-06
6.77562e-06
5.4514e-06
2.48382e-06
5.12354e-07
5.38991e-08
3.07761e-09
1.00267e-10
2.16852e-12
6.16757e-13
4.09094e-11
3.15563e-09
5.64835e-07
1.67517e-05
2.97239e-06
7.91525e-06
1.26322e-05
1.43224e-05
1.65533e-05
1.89092e-05
2.15368e-05
2.4552e-05
2.82433e-05
3.28148e-05
3.83631e-05
4.47237e-05
5.2114e-05
6.06825e-05
6.93955e-05
7.69127e-05
8.21596e-05
8.34162e-05
8.07771e-05
7.73796e-05
7.57318e-05
7.63031e-05
7.91725e-05
8.3523e-05
8.8998e-05
9.5367e-05
0.000101844
0.000107307
0.000110898
0.000111769
0.000106945
9.32985e-05
7.37789e-05
5.52093e-05
4.07513e-05
2.95283e-05
2.0534e-05
1.38154e-05
9.40473e-06
6.98695e-06
6.12402e-06
6.32381e-06
7.478e-06
8.10824e-06
7.76887e-06
7.23472e-06
6.73515e-06
6.22119e-06
4.94471e-06
2.42092e-06
5.0774e-07
5.11626e-08
2.77071e-09
8.61938e-11
1.83282e-12
6.12102e-13
4.11311e-11
3.16038e-09
5.6552e-07
1.77807e-05
2.65445e-06
3.79607e-06
5.45939e-06
7.97784e-06
1.12651e-05
1.64472e-05
2.25896e-05
3.31161e-05
4.5511e-05
5.88502e-05
7.19664e-05
8.40783e-05
9.47307e-05
0.000101822
0.000104097
0.000102902
9.84824e-05
9.10674e-05
8.30603e-05
7.85598e-05
7.95582e-05
8.49781e-05
9.24145e-05
0.000100981
0.000109472
0.00011583
0.000117998
0.000114842
0.00010557
9.10116e-05
7.32252e-05
5.41304e-05
3.75367e-05
2.57225e-05
1.80664e-05
1.30212e-05
9.53688e-06
7.24837e-06
6.02464e-06
5.82107e-06
6.81312e-06
9.55038e-06
1.29058e-05
1.34178e-05
1.18366e-05
9.84307e-06
7.99767e-06
6.39247e-06
4.41571e-06
1.79237e-06
2.86553e-07
2.23168e-08
9.72614e-10
2.52628e-11
6.08392e-13
6.03455e-13
4.14529e-11
3.17228e-09
5.66264e-07
1.05752e-05
1.45873e-06
3.16052e-06
6.39356e-06
1.06334e-05
1.6963e-05
2.39479e-05
3.26493e-05
4.35114e-05
5.7536e-05
7.42636e-05
9.1121e-05
0.000107646
0.000121233
0.000129599
0.000132164
0.00013146
0.000127948
0.000120806
0.000111745
0.000106857
0.000110216
0.000117557
0.000125898
0.000133558
0.000139369
0.000142189
0.000141866
0.000136596
0.000125064
0.000109228
9.11697e-05
7.10726e-05
4.8209e-05
2.67243e-05
1.47267e-05
1.08287e-05
9.37177e-06
8.91889e-06
9.3054e-06
1.06066e-05
1.26306e-05
1.48479e-05
1.57032e-05
1.4735e-05
1.31387e-05
1.11741e-05
9.05214e-06
6.96111e-06
4.4537e-06
1.64738e-06