/*--------------------------------*- C++ -*----------------------------------*\
| =========                 |                                                 |
| \\      /  F ield         | OpenFOAM: The Open Source CFD Toolbox           |
|  \\    /   O peration     | Version:  2.1.1                                 |
|   \\  /    A nd           | Web:      www.OpenFOAM.org                      |
|    \\/     M anipulation  |                                                 |
\*---------------------------------------------------------------------------*/
FoamFile
{
    version     2.0;
    format      ascii;
    class       volScalarField;
    location    "0.0011";
    object      p;
}
// * * * * * * * * * * * * * * * * * * * * * * * * * * * * * * * * * * * * * //

dimensions      [1 -1 -2 0 0 0 0];

internalField   nonuniform List<scalar> 
36520
(
-22.704
-30.5535
-23.3055
-2.38736
22.4288
41.0977
50.315
52.3453
50.1343
46.1362
41.9896
38.793
37.133
37.1491
38.5661
40.8729
43.4831
45.7722
47.3365
47.7122
46.5476
43.6748
39.2643
33.796
27.9136
22.2792
17.4688
13.8723
11.5648
10.3631
9.98712
10.1809
10.6652
11.0254
10.805
9.41305
6.11644
-0.0608086
-10.2093
-25.524
-46.9693
-74.9039
-108.678
-145.95
-181.66
-205.743
-200.532
-144.501
-19.0994
126.785
232.136
295.307
328.693
346.493
355.489
359.271
361.184
361.527
361.77
361.616
-22.4017
-32.8577
-26.6189
-3.55263
23.5229
42.8961
52.0042
53.4911
50.7917
46.4045
41.9667
38.5783
36.8473
36.9118
38.4358
40.9003
43.6531
46.0492
47.7055
48.1362
46.9883
44.08
39.5746
33.9708
27.9463
22.1814
17.2685
13.6276
11.3338
10.1845
9.86979
10.1402
10.7434
11.2821
11.2881
10.1614
7.12791
1.23996
-8.64724
-23.8314
-45.4244
-73.8987
-108.785
-148.373
-187.569
-215.606
-214.376
-162.309
-34.7913
122.756
235.356
298.482
331.077
348.152
356.523
359.986
361.618
361.812
361.972
361.779
-23.0576
-38.1831
-33.2219
-6.1479
25.5262
46.4061
55.0195
55.623
52.0384
46.9015
41.8851
38.1086
36.2144
36.3296
38.0646
40.8869
43.9256
46.562
48.4141
48.9778
47.8825
44.9132
40.212
34.3158
27.9708
21.9212
16.788
13.0505
10.7943
9.73853
9.52932
9.96894
10.8066
11.7027
12.2138
11.6887
9.29659
4.0802
-5.31031
-20.3725
-42.428
-72.1134
-109.121
-153.103
-199.42
-235.34
-243.364
-198.854
-70.0909
112.567
242.186
304.784
335.885
351.479
358.604
361.38
362.491
362.393
362.386
362.115
-25.106
-46.7826
-43.4328
-10.2525
28.273
51.4615
59.076
58.6176
53.7867
47.5856
41.7297
37.3861
35.2552
35.486
37.7037
41.0687
44.4549
47.3694
49.5123
50.2895
49.2643
46.1825
41.1695
34.817
27.9662
21.4654
15.9672
12.0621
9.91457
9.05129
9.04296
9.69824
10.8785
12.275
13.4748
13.7527
12.1867
7.78157
-1.02438
-16.0191
-38.8358
-70.2797
-110.585
-160.724
-215.722
-261.413
-281.411
-248.883
-116.982
92.6459
253.912
314.046
343.031
356.316
361.803
363.433
363.793
363.265
363.016
362.631
-27.682
-57.5958
-57.3345
-15.822
31.5443
57.8347
64.9214
62.2947
55.8641
48.3387
41.3982
36.3011
33.8104
34.1097
36.6879
40.5597
44.5105
48.1168
50.8617
51.9991
51.0611
47.8611
42.4401
35.4471
27.8654
20.7303
14.7419
10.5686
8.54239
7.97757
8.29785
9.11861
10.6521
12.7262
14.7749
16.111
15.6318
12.388
4.47761
-10.0442
-33.503
-66.772
-109.892
-165.734
-229.972
-284.024
-307.114
-301.234
-174.014
62.5211
273.277
325.964
352.312
362.481
365.86
366.037
365.454
364.374
363.817
363.292
-29.8318
-69.3438
-73.9047
-23.2548
34.6417
64.289
70.706
66.1624
58.1417
49.1683
40.8966
34.865
31.9282
32.3973
35.7164
40.6601
45.4973
49.6327
52.8646
54.4494
53.6402
50.2623
44.2362
36.3161
27.7153
19.6854
13.0494
8.42977
6.49716
6.29579
6.79391
8.05668
10.0322
12.7326
15.7721
18.3627
19.4321
17.2047
10.4708
-2.95625
-26.8127
-61.5559
-106.663
-165.748
-242.79
-304.759
-331.208
-361.591
-250.205
28.4183
306.805
340.115
364.054
369.959
370.661
369.11
367.42
365.693
364.771
364.082
-30.9141
-78.0043
-92.496
-33.2097
36.2548
70.7421
76.9593
70.563
60.8493
50.2363
40.2581
33.0027
29.5073
30.1908
34.2826
40.0427
45.2917
49.8581
54.1822
57.1541
56.5152
52.8146
46.0598
37.1975
27.5814
18.6443
11.3533
6.3217
4.81216
5.03711
5.75635
7.04405
9.09743
11.9284
15.4709
18.805
21.0142
20.6632
15.9511
5.27872
-18.7307
-54.5993
-100.673
-161.965
-262.311
-339.356
-383.116
-478.15
-404.771
34.1288
352.101
361.951
377.73
378.583
376.119
372.611
369.677
367.215
365.88
365.006
-36.7572
-89.8355
-105.123
-44.7233
39.1291
79.0886
83.5444
75.0519
63.695
51.3776
39.2512
30.1733
25.7013
26.3166
31.0029
38.2355
45.0241
50.5287
56.696
61.2452
61.1658
56.7301
49.0715
39.307
28.5193
18.4821
10.5515
5.69872
3.81394
4.4999
5.60468
6.89581
8.52589
11.1917
15.1654
19.1272
22.1013
22.7513
18.9352
7.76011
-15.1134
-51.3987
-97.5711
-147.464
-233.063
-516.8
-517.368
-577.242
-364.928
124.229
393.335
387.305
393.698
388.771
382.598
376.82
372.449
369.123
367.299
366.21
0.992456
-53.9672
-90.263
-52.6523
17.3271
64.6902
79.5678
75.1515
65.1653
51.858
37.0807
26.0031
22.2656
25.0824
31.9671
40.3597
44.9643
49.3223
57.1439
63.6466
64.549
59.4972
50.6489
40.2876
28.6309
17.2327
8.29231
3.5304
3.00082
4.37703
5.57421
6.66821
7.86705
10.544
14.7496
17.7026
21.2121
23.1438
21.831
15.0762
-2.43886
-43.4
-94.8219
-138.837
-181.854
-191.22
-617.167
-530.841
-234.278
184.271
415.905
405.382
405.454
395.912
386.859
379.378
373.991
370.07
367.916
366.693
34.9843
-28.6519
-76.1727
-60.6771
-1.5033
53.9069
78.7815
78.7032
66.6712
52.0265
36.8065
25.6617
21.8079
23.8224
29.5064
35.4878
41.097
50.1491
61.4314
69.1846
70.4362
62.3868
51.6226
41.3619
29.2855
17.1686
7.96623
3.83234
4.04954
5.26993
6.04437
6.94632
8.66101
11.1212
14.6015
19.4024
23.5189
26.3302
26.1083
16.4026
-9.86406
-51.4936
-99.3291
-148.892
-172.419
45.7952
-721.386
-642.678
-157.422
220.935
428.066
412.24
408.908
397.663
387.58
379.536
373.853
369.789
367.558
366.311
22.3031
-33.5318
-92.6326
-77.2774
-5.43103
55.9558
84.7325
86.8501
72.4178
56.1914
37.4985
25.2378
21.106
22.5767
27.1581
32.3863
37.9092
45.3428
59.2844
73.4898
78.4087
66.1328
53.4685
41.6267
29.4778
16.8664
7.35705
4.12479
5.34781
7.41111
8.89936
9.62842
10.7375
12.3827
14.7644
18.3494
23.9291
31.8856
30.132
21.5313
-4.91324
-51.812
-99.8949
-139.957
-170.956
-14.3407
-673.389
-655.959
-138.648
274.859
437.742
418.664
411.109
398.723
387.984
379.603
373.752
369.602
367.332
366.072
-31.8354
-41.4316
-112.344
-93.7726
-17.7027
56.1128
98.3041
96.6947
78.295
60.3796
39.9341
25.2699
19.6151
20.5959
24.6246
30.2508
36.4336
45.596
56.4844
65.5426
69.8856
63.9316
54.0604
43.5531
31.5097
19.6558
10.9651
7.23823
7.02042
8.11688
9.43982
10.047
10.8302
13.0007
16.0878
20.7617
25.8146
29.074
26.6094
18.6731
-5.17101
-52.0084
-102.693
-139.053
-177.652
-111.894
-557.988
-669.739
-241.397
324.185
440.126
421.511
410
397.374
386.861
378.714
373.036
369.013
366.82
365.599
-22.4674
-43.8196
-155.034
-141.99
-48.6678
52.7928
127.405
118.655
89.809
64.9026
42.343
26.7426
19.9925
20.1904
23.8125
29.5018
35.6425
43.9123
54.052
63.8977
69.0966
63.3994
55.1319
46.1146
34.4816
22.7243
12.6189
7.34926
6.02624
7.15367
8.94912
10.5463
13.7969
16.983
19.0967
22.1576
27.0981
29.2801
26.1875
15.2485
-10.4394
-58.789
-110.001
-141.843
-171.591
-140.795
-594.379
-712.568
-198.819
315.688
436.779
421.752
410
397.377
386.896
378.755
373.078
369.047
366.852
365.629
28.808
-43.9494
-205.859
-212.565
-62.7485
79.421
170.006
142.327
95.2333
65.3175
40.6937
24.1736
16.7473
16.9423
21.1972
26.9792
33.0859
42.3181
57.2175
72.3206
76.5708
66.5095
55.1982
44.4447
32.4614
19.708
9.098
4.18719
4.67139
6.82743
8.2091
9.32866
11.2367
11.7325
15.0612
21.7354
26.2106
28.3936
24.3056
12.6435
-13.6252
-60.6805
-109.75
-140.328
-167.853
-167.167
-670.689
-741.213
-10.5604
270.885
431.511
418.786
410.583
398.429
387.892
379.589
373.769
369.628
367.364
366.106
86.5161
-44.5762
-263.586
-268.776
-91.1391
115.133
221.127
179.328
99.7354
64.7351
42.3664
26.0902
16.1567
15.7685
21.5041
28.6801
37.0775
46.6087
57.3158
65.1253
65.8675
60.4641
53.9509
45.2622
33.9436
21.3924
10.6893
5.4803
4.8746
6.55582
8.33956
10.7089
13.8111
15.83
17.3364
20.0481
22.1989
22.1731
17.0316
3.0328
-24.1109
-67.3535
-114.659
-150.663
-187.827
-175.856
-636.459
-738.222
55.181
246.927
416.092
412.734
407.407
396.831
387.167
379.316
373.739
369.718
367.516
366.281
-82.4923
-239.786
-261.875
12.008
127.852
116.425
140.068
114.363
80.869
58.0103
40.4152
27.2515
19.586
16.3019
19.4411
26.5444
35.2376
45.8887
56.1667
62.4161
62.4978
58.4171
52.1947
43.6881
33.0625
22.0357
12.7232
7.56686
6.49387
7.16149
8.21468
9.45402
11.1325
14.2198
17.5176
20.162
20.7535
18.4512
10.0654
-6.56734
-35.3362
-78.5114
-121.06
-144.994
-154.276
-169.436
-569.954
-681.19
21.4999
231.807
412.778
406.252
403.656
394.866
386.295
379.057
373.795
369.961
367.85
366.644
-63.7531
-101.907
-116.935
-55.3063
35.8384
77.6319
99.3914
85.7668
66.7341
51.1613
37.8116
27.6721
21.4967
19.2276
21.2395
26.222
34.5971
45.2326
55.6707
62.2486
62.8887
58.8178
51.9233
42.97
32.0771
20.7871
12.0405
7.427
6.30329
6.81641
7.81209
9.13243
11.2895
15.317
19.249
22.2088
22.6713
18.6999
6.74106
-14.317
-47.3777
-89.304
-127.101
-155.337
-187.43
-253.793
-354.446
-570.204
-259.429
159.678
395.981
389.363
393.15
388.339
382.367
376.731
372.443
369.17
367.372
366.293
-37.8233
-58.1424
-58.7094
-12.1839
27.5714
55.8634
70.6949
65.3249
55.2227
45.3302
36.0116
28.5615
23.89
22.3859
24.2556
28.7122
35.5673
44.266
52.6132
57.4908
58.5819
55.632
49.9564
41.9383
32.1722
22.054
14.0036
9.51652
8.10684
8.38557
8.92702
9.67094
11.1509
14.1788
17.4663
19.2448
18.4583
12.9715
-0.342478
-24.3388
-59.6631
-99.8897
-135.221
-163.723
-197.863
-233.495
-280.219
-384.027
-335.756
51.765
358.171
362.549
377.113
378.141
375.833
372.49
369.662
367.266
365.964
365.105
-18.2696
-32.2529
-35.1048
-10.1036
20.2205
41.8755
53.0623
52.104
47.1331
40.9583
34.5539
29.1951
25.8539
24.9627
26.6478
30.6608
36.6936
43.9331
50.8476
55.215
55.6381
52.95
47.5752
40.0339
31.2322
22.2949
15.133
10.8626
9.13533
8.94672
9.27798
9.86597
11.0076
13.0719
15.2077
15.6159
12.9286
5.05805
-10.3171
-34.8141
-68.3808
-107.13
-142.045
-168.721
-196.196
-227.366
-249.545
-266.804
-199.765
29.7957
316.205
338.511
363.018
369.124
370.024
368.719
367.194
365.571
364.708
364.045
-6.94192
-17.5936
-19.1424
-3.67476
16.9925
33.589
42.6873
44.2808
41.8255
37.9525
33.4997
29.6157
27.1991
26.7459
28.2985
31.7079
36.9308
43.2335
49.0136
52.8153
53.3521
50.8748
45.8604
38.8849
30.8211
22.7671
16.247
12.1077
10.0972
9.40887
9.39008
9.72162
10.4515
11.7072
12.7035
11.9189
7.80046
-1.49763
-17.582
-41.4683
-72.4666
-107.56
-138.346
-163.206
-187.751
-213.823
-230.52
-215.434
-125.178
60.4901
276.951
323.212
351.252
361.382
365.007
365.454
365.059
364.105
363.621
363.129
-1.30948
-8.57178
-9.03747
0.933417
15.3425
27.9264
35.5996
38.3114
37.8554
35.6418
32.6165
29.8464
28.131
27.9708
29.4739
32.6653
37.2231
42.7007
47.8834
51.1965
51.4478
49.0766
44.3447
37.8365
30.4079
23.083
17.0677
13.0286
10.8241
9.82541
9.51973
9.58644
9.85081
10.1943
9.91039
7.74462
2.29131
-7.91655
-24.1007
-46.7378
-75.1508
-106.786
-133.718
-155.539
-176.497
-196.711
-207.017
-174.445
-74.6811
92.2934
255.571
311.887
342.078
355.408
361.12
362.98
363.493
363.066
362.879
362.521
2.51929
-2.91842
-2.77601
4.33403
14.8657
24.7394
31.4296
34.5468
35.0615
33.866
31.8208
29.8542
28.6787
28.7751
30.2504
33.0546
37.1759
41.9773
46.4806
49.3671
49.8447
47.6342
43.1781
37.0582
30.1136
23.3174
17.6514
13.6635
11.2982
10.104
9.59426
9.4138
9.29781
8.93921
7.70456
4.56072
-1.68204
-12.2749
-28.1708
-49.39
-75.3004
-103.008
-127.359
-146.867
-163.639
-176.364
-170.641
-132.477
-32.9472
116.431
243.694
303.753
335.583
351.153
358.392
361.346
362.539
362.487
362.506
362.246
3.90284
0.0759191
0.908916
6.45338
14.6482
22.8618
28.9568
32.2566
33.2612
32.6785
31.2532
29.8157
29.0091
29.3038
30.8302
33.5874
37.4361
41.7911
45.826
48.3484
48.6889
46.5913
42.3434
36.5168
29.9194
23.4813
18.0468
14.0834
11.5871
10.2129
9.51861
9.13443
8.71562
7.86603
5.95736
2.17009
-4.57245
-15.341
-30.9147
-51.2657
-75.3368
-100.664
-123.179
-141.259
-155.531
-163.157
-151.363
-104.476
-4.25639
128.019
236.761
297.956
331.052
348.169
356.676
360.243
361.925
362.132
362.293
362.1
3.55881
1.0579
2.53309
7.48657
14.7777
22.1512
27.8577
31.1805
32.3924
32.0698
30.9279
29.7367
29.1079
29.4889
31.0151
33.6528
37.3581
41.5281
45.3606
47.8026
48.1025
46.0624
41.9241
36.2518
29.8347
23.579
18.2643
14.3266
11.7806
10.3202
9.52068
9.00903
8.43095
7.3823
5.23241
1.18867
-5.719
-16.4714
-31.7339
-51.4774
-74.7452
-99.0759
-120.988
-138.523
-151.61
-156.569
-141.103
-90.5258
9.21735
132.918
233.896
295.18
328.946
346.81
355.917
359.771
361.698
362.028
362.252
362.089
14.7307
12.391
11.818
11.0364
10.6173
10.9201
11.6391
12.7247
13.8891
15.0106
16.0994
17.3757
19.0494
21.2525
23.9423
27.041
30.4765
33.9784
37.1936
39.5173
40.2665
38.9479
35.5442
30.5407
24.7851
19.2437
14.6382
11.3533
9.37721
8.43031
8.18139
8.33568
8.58273
8.45768
7.24291
3.96466
-2.48633
-13.2353
-29.063
-50.136
-75.045
-100.819
-123.503
-140.797
-153.287
-160.478
-150.768
-107.164
-12.1257
116.824
228.786
293.524
329.286
347.689
356.833
360.604
362.405
362.643
362.812
362.617
16.0762
13.0598
11.7899
10.8906
10.441
10.7301
11.4729
12.5958
13.7996
14.9263
15.9794
17.2073
18.859
21.0707
23.7862
26.9167
30.3793
33.949
37.303
39.8012
40.6781
39.3857
35.8904
30.7106
24.7578
19.0524
14.3625
11.0838
9.17136
8.30572
8.15449
8.42644
8.828
8.89974
7.91973
4.88548
-1.42074
-12.1975
-28.2022
-50.0898
-76.1314
-103.145
-126.634
-143.986
-156.506
-165.802
-160.684
-121.373
-27.957
109.367
232.317
296.768
332.007
349.473
357.923
361.306
362.811
362.893
362.978
362.74
17.7692
13.8671
11.7254
10.5748
10.0668
10.3238
11.1428
12.3446
13.6399
14.7769
15.7488
16.8804
18.4889
20.7132
23.4926
26.7122
30.2905
34.0426
37.6397
40.3873
41.5059
40.2583
36.5804
31.0651
24.7272
18.7004
13.85
10.5903
8.80858
8.11393
8.14652
8.66491
9.42289
9.99749
9.631
7.18977
1.27991
-9.45137
-26.0959
-49.3445
-77.9167
-107.591
-132.811
-149.999
-162.26
-176.223
-180.984
-150.965
-61.539
92.2085
240.458
303.271
337.482
352.981
360.047
362.65
363.597
363.38
363.303
362.984
18.9673
14.4137
11.6137
10.1427
9.55225
9.78073
10.7007
12.0283
13.4472
14.5975
15.434
16.4136
17.9417
20.1727
23.0204
26.3283
30.0167
33.9628
37.8613
41.1291
42.6748
41.5116
37.5752
31.5797
24.6786
18.1904
13.1209
9.92677
8.36162
7.89961
8.20242
9.05708
10.3448
11.6858
12.2392
10.719
5.48025
-5.05428
-22.3179
-47.57
-79.7047
-113.437
-142.028
-158.925
-169.871
-190.259
-209.184
-193.568
-110.747
61.3927
254.711
312.942
345.385
357.833
363.069
364.461
364.653
364.026
363.719
363.298
20.4358
14.9261
11.3485
9.45642
8.79521
9.02858
10.1629
11.6927
13.2615
14.4275
15.0854
15.8485
17.2834
19.5287
22.4851
25.9292
29.7233
33.9954
38.422
42.2302
44.2388
43.1552
38.8503
32.2257
24.6252
17.5644
12.2618
9.19023
7.89693
7.66703
8.19696
9.45394
11.4374
13.774
15.5938
15.388
11.1562
0.990182
-16.9422
-44.6061
-81.1946
-119.815
-150.964
-166.238
-177.12
-204.728
-240.539
-247.411
-176.544
21.9255
276.503
325.752
355.173
363.653
366.617
366.584
365.895
364.775
364.201
363.663
21.7491
15.4569
10.8484
8.57179
7.93826
8.44677
9.91742
11.5819
13.2161
14.3267
14.7225
15.2142
16.5499
18.8193
21.9283
25.5421
29.4596
33.9562
38.9043
43.2321
46.027
45.0567
40.2451
32.8885
24.4823
16.813
11.3167
8.45824
7.4433
7.34833
8.05165
9.76469
12.4989
15.8584
19.2016
20.9792
18.9882
10.6629
-7.06463
-35.9456
-76.521
-121.495
-155.86
-170.487
-182.904
-217.444
-261.707
-286.416
-260.297
-5.33994
302.583
341.733
365.712
370.048
370.448
368.894
367.27
365.618
364.751
364.085
18.841
15.0988
10.1272
7.37866
6.83717
7.97642
10.0086
11.7964
13.2654
14.1847
14.2026
14.3642
15.6341
17.9737
21.3096
25.0358
28.817
33.6277
39.4947
44.9023
48.4635
47.455
41.8455
33.5071
24.0814
15.6251
9.82852
7.08251
6.21114
6.06411
6.6784
8.50059
11.7204
16.235
21.2538
25.1107
25.3734
18.9244
2.69036
-25.3035
-67.084
-116.872
-156.069
-174.175
-188.765
-230.998
-278.481
-327.4
-380.953
-0.971701
337.702
364.632
377.847
377.535
375.053
371.79
369.1
366.824
365.606
364.787
19.8482
16.0035
8.88084
5.2943
5.15572
7.72449
10.6659
12.4905
13.5461
13.9496
13.3012
13.0574
14.4192
16.9202
20.6395
24.7491
28.9929
34.4721
41.413
47.8077
51.5725
50.3833
43.571
33.9857
23.4008
14.0913
7.99793
5.53552
4.97256
4.86863
5.5999
7.43103
10.9079
16.0989
22.0144
27.2981
29.7416
25.5487
11.6179
-14.6934
-54.3773
-105.934
-151.523
-173.809
-184.776
-229.291
-277.172
-422.745
-570.805
79.4203
385.625
386.899
391.314
386.18
380.553
375.365
371.456
368.446
366.81
365.809
2.65391
12.2588
6.68998
2.83835
2.92592
7.45841
12.5773
14.835
15.1764
14.5864
12.8859
11.8886
13.175
16.0394
20.1243
24.1312
27.5806
33.2296
41.8112
50.349
54.7565
53.8914
45.2754
34.5059
23.1768
13.0319
6.3338
3.36279
2.58435
2.30823
2.30295
3.87627
7.25367
12.9188
19.7228
27.0369
32.3108
30.4953
18.584
-4.83104
-39.5015
-87.9203
-139.249
-171.436
-192.116
-194.77
-363.709
-558.315
-386.278
228.062
430.687
409.286
405.071
395.533
386.71
379.443
374.195
370.358
368.251
367.041
48.1965
27.2565
2.88965
-5.42095
-7.84705
4.57274
16.7155
19.0905
17.3592
14.2208
10.711
9.46602
12.1422
15.9509
20.1992
24.0548
28.1069
34.8597
44.5024
55.1883
61.3401
56.5722
44.9115
33.4337
21.7494
11.0015
4.30614
2.69604
3.17375
3.41666
3.92273
5.73176
9.06434
14.5383
21.0161
27.9974
31.5765
29.6686
19.073
-3.76123
-38.5232
-85.2674
-140.136
-175.71
-203.816
-140.027
-781.213
-653.306
-50.1341
278.424
441.689
420.772
412.367
400.452
389.848
381.379
375.374
371.079
368.713
367.395
90.0226
3.84136
-14.3815
-14.2122
2.19041
16.5878
27.1756
23.9243
18.7675
12.6571
8.67829
9.68854
13.3645
17.5469
21.7795
24.9517
28.7214
35.6416
45.2066
54.9284
60.654
55.687
44.3581
33.1407
20.5349
8.48205
0.537074
-0.943987
1.41256
3.30915
4.87481
7.30441
12.5697
20.4136
28.4937
36.7952
40.8104
39.9686
31.7838
9.16886
-26.209
-75.4177
-134.91
-178.061
-198.913
-62.1532
-920.765
-609.215
136.889
271.808
422.504
418.731
412.051
400.233
389.58
381.014
374.949
370.629
368.253
366.94
94.7598
17.0387
-14.1755
-28.0071
-49.2406
0.861668
38.2389
32.8728
24.0931
18.022
14.6921
13.8692
16.0301
19.5286
23.1298
25.661
28.9492
35.8876
45.3823
54.3515
58.3746
53.8756
43.7256
32.0013
19.5336
7.69073
0.689752
-0.0797151
2.94299
5.45802
7.13076
9.59226
15.7644
24.332
32.5007
40.4202
43.9328
41.2949
32.7785
13.3082
-21.0593
-69.236
-126.829
-173.207
-190.762
-108.94
-917.985
-554.038
200.343
285.457
406.386
417.098
412.011
400.269
389.557
380.912
374.799
370.454
368.067
366.753
81.6502
8.91308
-69.849
-77.8432
-36.782
48.0323
85.7878
55.7669
32.3774
21.1272
14.3318
12.6069
13.8018
16.7735
20.1545
24.6993
28.786
36.7657
47.3242
55.8437
58.5883
54.5049
44.9177
32.8791
19.4862
7.03195
-0.61837
-1.10687
2.10651
4.92095
6.70122
9.73305
16.7282
26.1562
35.0431
41.6318
44.022
41.0831
31.8656
13.2971
-19.5708
-66.9223
-122.944
-172.48
-192.481
-61.6501
-891.492
-586.287
172.217
280.921
406.75
416.119
411.657
399.939
389.292
380.712
374.649
370.337
367.969
366.664
49.0596
-1.94394
-50.799
-54.5787
-4.62573
42.3417
51.8778
37.6334
29.2147
23.4313
17.9825
13.8841
13.2038
15.3112
18.5591
22.7509
28.238
38.1697
49.6822
58.2844
60.3832
53.8683
42.9317
32.336
19.1216
6.99822
-0.227207
-1.28744
1.53403
4.37911
6.01407
9.88433
16.1137
22.2402
29.8604
36.8837
40.7275
38.6598
28.8421
10.5671
-19.7623
-64.0897
-118.542
-168.154
-206.421
-237.274
-795.249
-467.419
28.0346
262.156
415.658
414.565
410.091
398.66
388.392
380.134
374.292
370.117
367.826
366.554
8.43343
-10.0711
-39.6908
-40.5196
-4.01454
32.5656
48.9852
43.553
32.3872
23.536
16.6717
13.0265
13.0748
14.893
17.2107
20.8705
25.4365
34.623
48.7011
59.8708
60.9319
55.6728
45.3078
33.1038
18.7374
4.69429
-3.1987
-3.03457
0.572269
2.41707
2.34402
9.66622
19.9965
27.4922
31.9653
35.7786
37.3504
35.4546
26.7841
9.74495
-20.4932
-64.2079
-115.543
-172.017
-241.222
-228.003
-571.808
-430.845
-153.609
245.607
409.39
410.512
405.719
395.577
386.351
378.841
373.485
369.606
367.483
366.28
-9.64555
-16.8477
-28.4342
-26.4977
-2.9425
22.6116
35.391
36.7105
31.3341
24.8645
19.507
15.9921
15.3662
16.5582
19.1119
22.2647
26.4009
33.1857
44.3004
53.8029
55.7768
51.6123
44.2795
33.1521
20.2843
9.47737
3.61885
2.22678
4.21657
6.00419
5.93131
9.16257
15.2821
20.9778
28.6056
33.996
34.8844
30.5841
18.5426
-2.97846
-38.4419
-89.2563
-144.779
-178.726
-217.807
-205.453
-434.154
-469.426
-292.254
205.03
396.003
396.571
396.155
389.321
382.355
376.274
371.808
368.47
366.654
365.579
-32.5004
-21.2234
-20.7557
-16.7487
0.258321
19.954
30.8002
33.9238
30.5724
24.6334
19.799
16.872
16.634
18.232
20.9005
24.3845
28.6556
33.9187
42.5054
50.2017
52.9772
48.8165
42.0497
31.9939
19.77
8.73687
1.55191
-0.576203
1.16902
3.94401
6.59759
9.77892
15.6535
23.5633
29.8667
33.0963
31.5073
25.8103
12.2511
-11.6436
-46.2255
-89.849
-131.259
-168.181
-227.146
-346.455
-434.764
-417.282
-392.637
66.6509
372.101
383.648
390.201
385.81
380.428
375.264
371.344
368.31
366.661
365.66
-1.93319
-7.91626
-12.6631
-10.0087
2.18841
16.7102
25.5527
29.0972
27.6763
24.3642
21.5198
20.2076
20.0426
21.1338
23.4673
26.7902
31.1725
36.6018
43.4014
48.9701
50.6305
47.0476
40.4319
30.7402
19.4092
9.37257
3.16852
1.84172
3.72831
6.84859
10.4052
14.4621
18.8464
24.4155
29.0227
30.862
28.7038
21.1963
6.03291
-20.4735
-59.6459
-106.812
-151.58
-190.615
-227.718
-273.938
-317.955
-346.101
-282.763
9.22113
343.284
362.18
379.801
380.17
377.341
373.56
370.44
367.854
366.447
365.544
-0.567172
-7.36541
-8.92462
-5.17352
4.32443
15.4248
23.0467
26.5517
26.3576
24.599
22.8542
22.0139
22.2669
23.5274
25.7117
28.6935
32.4196
37.0242
42.2113
46.0404
46.7916
44.062
38.3154
30.0136
20.4405
11.8355
6.00521
3.80107
4.60219
6.9134
9.94136
13.7329
17.925
22.2873
24.8353
25.1058
21.8272
13.2155
-2.87036
-30.6666
-68.8194
-110.434
-145.228
-175.733
-204.119
-237.907
-261.952
-267.323
-186.894
17.4047
296.731
338.431
363.786
369.98
370.888
369.404
367.74
366.015
365.101
364.412
1.49958
-4.07209
-5.51976
-2.09555
5.66099
14.5308
21.2475
24.8453
25.5311
24.8518
23.9201
23.5262
23.9528
25.2274
27.2822
30.0427
33.3472
37.1698
41.0314
43.8607
44.1818
41.6761
36.58
29.4458
21.3287
14.0557
9.0232
6.83638
7.26348
8.97864
11.3751
13.9521
16.7545
19.1266
20.811
20.1074
15.8415
6.51057
-9.84747
-36.3302
-71.4944
-111.935
-146.64
-171.69
-194.502
-218.59
-232.194
-217.531
-131.435
50.1574
265.692
320.847
350.932
361.574
365.455
365.898
365.47
364.472
363.966
363.46
2.46304
-2.7008
-3.41175
-0.0491598
6.65808
14.2684
20.3469
23.9376
25.1345
25.061
24.6367
24.5436
25.0831
26.3484
28.2725
30.8297
33.8855
37.2515
40.4053
42.411
42.3636
39.923
35.2505
28.8673
21.7629
15.3196
10.6186
8.18991
7.83821
8.97997
10.931
13.221
15.3317
16.8307
17.226
15.4785
10.406
0.526891
-15.8962
-40.4921
-71.7873
-106.408
-137.426
-161.216
-181.482
-200.026
-204.667
-174.604
-82.7159
80.8705
247.285
308.393
340.843
355.002
361.14
363.126
363.702
363.289
363.109
362.753
2.74234
-1.74445
-2.0503
1.32098
7.38398
14.2774
19.8986
23.4824
24.9814
25.2853
25.1646
25.2349
25.8155
27.0494
28.8778
31.2458
34.0751
37.0481
39.7357
41.3259
41.0694
38.682
34.3235
28.4934
22.0846
16.2148
11.7908
9.29169
8.6238
9.26487
10.7442
12.4965
14.08
15.0071
14.6531
12.1385
6.43625
-3.7955
-20.0251
-43.0664
-71.6542
-102.366
-129.413
-150.127
-166.721
-179.291
-174.645
-137.196
-42.6305
103.872
236.429
299.557
333.542
350.122
357.953
361.09
362.436
362.461
362.525
362.283
1.64763
-1.84419
-1.2478
2.24086
7.91203
14.4549
19.765
23.3043
24.9617
25.4761
25.5299
25.6926
26.2886
27.4982
29.2781
31.5712
34.3069
37.0872
39.4538
40.7214
40.2987
37.9304
33.7656
28.2815
22.2915
16.7711
12.5154
9.96008
9.08325
9.47877
10.6577
12.101
13.3406
13.8551
12.9921
9.97178
3.8534
-6.5638
-22.48
-44.3792
-71.0395
-99.1889
-124.076
-143.542
-158.389
-166.721
-155.603
-111.221
-14.4898
116.491
230.076
293.706
328.696
346.856
355.946
359.731
361.628
361.946
362.175
362.009
0.525319
-2.21632
-1.00594
2.60177
8.11966
14.4965
19.6939
23.2153
24.9568
25.565
25.6959
25.8919
26.4894
27.6717
29.4304
31.691
34.3308
36.9879
39.2127
40.361
39.8817
37.5358
33.4741
28.1621
22.3739
17.0178
12.8413
10.2597
9.27245
9.53224
10.562
11.8603
12.9405
13.2612
12.1726
8.93101
2.61049
-7.90673
-23.6433
-44.8997
-70.4624
-97.327
-121.353
-140.249
-154.134
-160.353
-146.523
-98.6849
-2.67484
121.955
227.179
290.838
326.353
345.269
355.037
359.002
361.243
361.712
362.02
361.893
3.22569
0.94967
2.34133
7.23323
14.3116
21.4562
26.9628
30.1383
31.2802
30.9141
29.7239
28.4971
27.8742
28.3267
29.983
32.8837
36.9931
41.7209
46.1323
49.0496
49.5053
47.316
42.773
36.5373
29.5146
22.7314
17.0746
13.0418
10.6077
9.3805
8.81989
8.5159
8.1057
7.1329
4.92497
0.687888
-6.64877
-18.1793
-34.6321
-55.8701
-80.9386
-106.972
-129.617
-147.007
-160.994
-169.487
-158.144
-108.485
-0.661151
137.972
248.26
309.924
341.465
356.749
363.652
365.874
366.481
365.918
365.594
365.151
4.42256
1.67591
2.71756
7.10456
13.7252
20.4597
25.6933
28.698
29.8052
29.4836
28.3327
27.1493
26.5936
27.1549
28.9592
32.1225
36.5994
41.8657
46.896
50.3163
50.9348
48.6084
43.6395
36.8112
29.1677
21.8524
15.8742
11.7903
9.55464
8.66954
8.37166
8.27186
7.91409
6.84252
4.47367
-0.204125
-8.15709
-20.5973
-38.389
-61.2339
-87.8249
-115.225
-137.906
-154.35
-168.24
-179.994
-173.39
-125.036
-8.66785
145.902
264.998
325.572
354.171
366.407
371.181
371.708
371.001
369.568
368.715
368.008
4.24493
2.15475
3.16099
7.10724
13.0749
19.2947
24.0525
26.8976
28.0332
27.8213
26.7848
25.7113
25.2805
25.9809
27.9875
31.3951
36.1239
41.8356
47.4098
51.3178
52.1393
49.7092
44.2705
36.8072
28.515
20.6597
14.3277
10.1346
8.01088
7.12385
6.995
6.90199
6.45308
5.29496
2.6783
-2.35842
-10.7004
-23.6171
-42.28
-66.4157
-93.9698
-121.735
-143.699
-158.414
-172.159
-188.118
-187.686
-140.82
-14.7381
156.856
284.147
341.703
366.472
375.848
378.259
377.126
375.155
372.897
371.547
370.598
5.52245
3.19407
3.96902
7.22424
12.3725
17.8903
22.1824
24.84
25.9909
25.9085
25.0429
24.1518
23.8995
24.7605
26.9533
30.5276
35.4905
41.6159
47.6715
52.0359
53.0912
50.682
44.7822
36.7327
27.8856
19.6013
13.0777
9.09791
7.29523
6.92635
7.18995
7.52283
7.25703
5.81994
2.71663
-2.69149
-11.37
-24.6025
-43.6189
-68.2494
-95.9046
-123.12
-144.1
-158.069
-173.565
-195.402
-202.932
-156.587
-17.0586
170.344
305.261
357.65
377.983
384.523
384.638
381.924
378.816
375.806
374.012
372.849
5.46694
4.04998
4.95001
7.50165
11.6597
16.3554
20.1379
22.5777
23.738
23.8336
23.2294
22.6117
22.6394
23.7407
26.1413
29.868
35.0302
41.5065
48.0766
52.6999
53.611
51.197
45.0036
36.541
27.3069
18.7099
11.9773
7.84157
6.0498
5.84154
6.13213
6.22552
5.62224
4.07458
1.13736
-3.92324
-12.2685
-25.3723
-44.4727
-69.3132
-97.4614
-124.471
-144.705
-158.729
-180.038
-207.843
-220.586
-171.037
-17.5762
183.853
326.166
371.386
388.173
391.8
389.894
385.817
381.78
378.148
375.993
374.655
9.36036
6.69135
6.74205
7.82665
10.8344
14.8131
18.1912
20.4371
21.5724
21.826
21.5272
21.2452
21.6246
22.9921
25.513
29.3146
34.5026
40.9501
47.5027
52.132
53.0678
50.9989
44.7839
36.2
26.8295
18.1679
11.4284
7.45353
5.80859
5.66617
6.0193
6.12578
5.55617
3.97126
0.868194
-4.27581
-12.5714
-25.5732
-44.4872
-68.9229
-96.8306
-123.549
-142.748
-154.029
-173.124
-208.074
-223.517
-176.425
-15.2204
192.843
340.187
380.899
395.198
396.786
393.49
388.467
383.808
379.747
377.347
375.891
8.27994
7.5455
7.34264
8.27615
10.6282
14.0658
16.9267
18.7414
19.697
20.0308
19.9722
20.036
20.8106
22.4963
25.24
29.13
34.2878
40.559
46.9052
51.3202
52.8734
50.621
44.5008
35.8976
26.4793
17.8331
11.1202
7.0601
5.39699
5.20723
5.55483
5.7394
5.35774
3.96763
1.13891
-4.05964
-12.6377
-25.6968
-44.2122
-68.1395
-95.4809
-122.213
-143.389
-163.368
-193.977
-230.022
-233.64
-184.225
-19.1405
198.329
349.635
386.179
398.794
399.291
395.282
389.781
384.817
380.545
378.024
376.51
11.4817
9.83653
9.29823
9.22639
10.2624
12.6258
15.0669
16.8922
17.9507
18.4316
18.5685
18.9142
20.0405
22.0098
24.8953
28.8241
33.8745
39.8697
45.9873
50.4867
52.1462
49.6782
43.4566
34.8058
25.4144
16.9453
10.2164
6.17266
4.47783
4.49826
4.97847
5.24372
4.93153
3.64981
0.808399
-4.21698
-12.6365
-25.6438
-44.1689
-68.0836
-95.1446
-120.847
-141.903
-160.032
-174.49
-202.629
-222.787
-177.614
-24.3679
192.005
346.574
384.413
398.019
398.914
395.075
389.655
384.738
380.493
377.986
376.479
12.4279
10.9647
10.4368
10.1145
10.7457
12.3823
14.1598
15.6545
16.7154
17.3472
17.6836
18.246
19.5489
21.7409
24.7424
28.6804
33.59
39.2852
45.0677
49.3522
50.9657
48.7814
43.0562
34.7079
25.5443
17.1427
10.5765
6.46454
4.78866
4.68337
5.12027
5.53278
5.50355
4.49282
1.89126
-3.12039
-11.7495
-25.1196
-44.2492
-68.6557
-96.4566
-124.339
-149.112
-169.648
-184.592
-205.871
-219.221
-175.908
-30.9987
179.825
335.71
378.209
393.927
396.229
393.212
388.324
383.738
379.715
377.335
375.887
14.8446
12.3838
11.4179
10.7144
10.6189
11.5872
12.9267
14.3105
15.439
16.2472
16.7866
17.5708
19.053
21.3774
24.4624
28.3894
33.1194
38.4432
43.6391
47.6945
49.1774
47.1532
41.7018
33.7658
25.0073
16.9415
10.6308
6.61881
4.86557
4.6432
5.08476
5.65053
5.87502
5.2073
2.99219
-1.75031
-10.3177
-23.7499
-42.9369
-67.3711
-95.1388
-123.349
-148.076
-167.455
-184.38
-205.517
-216.29
-174.087
-35.939
166.866
321.874
369.214
387.448
391.718
389.981
385.958
381.929
378.291
376.132
374.79
15.3185
12.9612
12.1185
11.2393
10.7572
11.2665
12.2518
13.5184
14.6843
15.5911
16.2755
17.2143
18.8335
21.2408
24.3215
28.1472
32.6838
37.6641
42.5066
46.2259
47.6081
45.7709
40.6939
33.2702
24.9872
17.3148
11.2895
7.44675
5.70299
5.40939
5.70706
6.21958
6.58271
6.22453
4.55887
0.390713
-7.82921
-20.9577
-40.0049
-64.4648
-92.4778
-120.937
-146.172
-166.633
-185.119
-203.799
-210.575
-169.316
-38.5669
153.137
305.002
357.495
378.799
385.473
385.428
382.567
379.334
376.236
374.39
373.199
15.8502
13.4494
12.5284
11.5545
10.8222
11.0488
11.802
12.9724
14.1437
15.1279
15.9308
16.9659
18.6068
21.0024
24.0519
27.7264
32.0326
36.6572
41.0931
44.4541
45.699
44.0256
39.3626
32.489
24.7581
17.5484
11.8422
8.14785
6.39645
5.96003
6.19259
6.82603
7.63129
8.09598
7.20812
3.75601
-4.38149
-17.3869
-36.4175
-60.959
-89.1163
-117.681
-142.571
-161.695
-178.265
-195.388
-199.142