/*--------------------------------*- C++ -*----------------------------------*\
| =========                 |                                                 |
| \\      /  F ield         | OpenFOAM: The Open Source CFD Toolbox           |
|  \\    /   O peration     | Version:  2.1.1                                 |
|   \\  /    A nd           | Web:      www.OpenFOAM.org                      |
|    \\/     M anipulation  |                                                 |
\*---------------------------------------------------------------------------*/
FoamFile
{
    version     2.0;
    format      ascii;
    class       volScalarField;
    location    "0.0011";
    object      p_rgh;
}
// * * * * * * * * * * * * * * * * * * * * * * * * * * * * * * * * * * * * * //

dimensions      [1 -1 -2 0 0 0 0];

internalField   nonuniform List<scalar> 
36520
(
-22.6673
-30.5167
-23.2688
-2.3506
22.4655
41.1345
50.3518
52.382
50.171
46.173
42.0264
38.8298
37.1698
37.1859
38.6028
40.9096
43.5198
45.809
47.3733
47.7489
46.5844
43.7115
39.3011
33.8328
27.9504
22.316
17.5056
13.9091
11.6015
10.3999
10.0239
10.2177
10.7019
11.0622
10.8418
9.44981
6.1532
-0.0240484
-10.1725
-25.4872
-46.9326
-74.8671
-108.641
-145.914
-181.623
-205.706
-200.496
-144.465
-19.0626
126.821
232.172
295.344
328.73
346.53
355.525
359.307
361.221
361.564
361.807
361.653
-22.365
-32.821
-26.5822
-3.51585
23.5596
42.9329
52.041
53.5278
50.8285
46.4413
42.0035
38.615
36.8841
36.9486
38.4725
40.9371
43.6899
46.0859
47.7423
48.173
47.0251
44.1168
39.6114
34.0076
27.9831
22.2182
17.3053
13.6644
11.3706
10.2212
9.90657
10.177
10.7802
11.3189
11.3249
10.1982
7.16469
1.27673
-8.61046
-23.7946
-45.3876
-73.862
-108.748
-148.337
-187.532
-215.569
-214.34
-162.273
-34.7545
122.793
235.393
298.519
331.113
348.189
356.56
360.023
361.655
361.849
362.009
361.816
-23.0207
-38.1462
-33.1851
-6.11105
25.5631
46.4429
55.0563
55.6598
52.0752
46.9383
41.9219
38.1455
36.2513
36.3664
38.1014
40.9237
43.9624
46.5989
48.4509
49.0146
47.9194
44.9501
40.2488
34.3527
28.0077
21.9581
16.8249
13.0873
10.8312
9.77538
9.56617
10.0058
10.8435
11.7395
12.2507
11.7256
9.33344
4.11705
-5.27346
-20.3356
-42.3912
-72.0766
-109.085
-153.066
-199.383
-235.304
-243.327
-198.817
-70.054
112.604
242.223
304.821
335.922
351.516
358.64
361.417
362.527
362.43
362.423
362.152
-25.069
-46.7457
-43.3958
-10.2155
28.3099
51.4985
59.113
58.6546
53.8237
47.6225
41.7667
37.4231
35.2922
35.523
37.7407
41.1057
44.4919
47.4063
49.5493
50.3265
49.3013
46.2195
41.2064
34.854
28.0032
21.5024
16.0042
12.099
9.95155
9.08827
9.07994
9.73522
10.9155
12.3119
13.5117
13.7897
12.2237
7.81855
-0.987396
-15.9821
-38.7988
-70.2427
-110.548
-160.687
-215.685
-261.375
-281.372
-248.845
-116.945
92.6828
253.949
314.083
343.068
356.353
361.84
363.47
363.83
363.302
363.053
362.668
-27.6448
-57.5586
-57.2974
-15.7849
31.5814
57.8719
64.9585
62.3318
55.9012
48.3759
41.4353
36.3382
33.8476
34.1469
36.7251
40.5969
44.5476
48.1539
50.8989
52.0362
51.0982
47.8982
42.4772
35.4843
27.9026
20.7674
14.7791
10.6058
8.57957
8.01475
8.33504
9.1558
10.6893
12.7634
14.8121
16.1482
15.669
12.4252
4.5148
-10.007
-33.4657
-66.7345
-109.854
-165.694
-229.928
-283.975
-307.062
-301.184
-173.972
62.5586
273.314
326.001
352.349
362.518
365.897
366.074
365.491
364.411
363.855
363.329
-29.7944
-69.3064
-73.8673
-23.2175
34.6791
64.3264
70.7433
66.1998
58.1791
49.2057
40.9339
34.9024
31.9656
32.4347
35.7537
40.6975
45.5347
49.6701
52.902
54.4868
53.6776
50.2997
44.2737
36.3535
27.7528
19.723
13.0871
8.46753
6.53496
6.33358
6.83168
8.09444
10.07
12.7704
15.8099
18.4005
19.47
17.2427
10.5089
-2.91796
-26.7737
-61.5153
-106.617
-165.69
-242.701
-304.631
-331.049
-361.417
-250.078
28.4644
306.842
340.153
364.092
369.996
370.698
369.147
367.457
365.73
364.808
364.119
-30.8765
-77.9666
-92.4583
-33.1721
36.2925
70.7798
76.997
70.6007
60.887
50.2739
40.2958
33.0403
29.545
30.2285
34.3203
40.0804
45.3294
49.8959
54.22
57.1919
56.5531
52.8525
46.0978
37.2356
27.6196
18.6827
11.3918
6.36042
4.85093
5.07592
5.79532
7.0831
9.1363
11.9672
15.5097
18.844
21.0534
20.7028
15.9915
5.32086
-18.6853
-54.5468
-100.6
-161.791
-261.898
-338.668
-382.04
-476.97
-404.111
34.2152
352.139
361.988
377.767
378.621
376.156
372.648
369.715
367.252
365.918
365.043
-36.7191
-89.7974
-105.085
-44.6852
39.1672
79.1267
83.5825
75.09
63.7331
51.4157
39.2894
30.2116
25.7396
26.355
31.0414
38.274
45.0627
50.5673
56.7347
61.284
61.2048
56.7692
49.1107
39.3463
28.5587
18.5218
10.5916
5.73919
3.8549
4.54144
5.6471
6.93928
8.56955
11.2351
15.208
19.1691
22.1431
22.7929
18.9763
7.80101
-15.0713
-51.3546
-97.5229
-147.395
-232.714
-513.985
-510.288
-571.212
-363.156
124.343
393.373
387.343
393.737
388.809
382.636
376.858
372.487
369.162
367.337
366.248
1.03038
-53.9292
-90.2251
-52.6132
17.3662
64.7286
79.6059
75.1899
65.2036
51.8964
37.1196
26.0428
22.3054
25.1222
32.0066
40.3989
45.0036
49.3617
57.1833
63.6862
64.5889
59.5375
50.6897
40.3292
28.6739
17.2778
8.3399
3.58048
3.053
4.43087
5.62958
6.72567
7.92702
10.6055
14.8115
17.765
21.2748
23.2051
21.8869
15.1225
-2.39688
-43.3576
-94.7786
-138.794
-181.729
-187.553
-600.336
-517.871
-231.646
184.394
415.943
405.42
405.492
395.95
386.897
379.416
374.029
370.108
367.954
366.731
35.0216
-28.6147
-76.1355
-60.6398
-1.46571
53.9444
78.8187
78.7405
66.709
52.0656
36.8471
25.7029
21.8492
23.8639
29.5482
35.5291
41.1376
50.1891
61.4712
69.2246
70.4769
62.4286
51.6657
41.4067
29.3328
17.2195
8.02255
3.89287
4.11064
5.33133
6.10643
7.0091
8.7244
11.1851
14.666
19.4675
23.5842
26.3942
26.1701
16.4632
-9.80306
-51.4325
-99.2748
-148.845
-172.282
49.4773
-705.709
-631.458
-155.343
221.035
428.104
412.277
408.945
397.7
387.618
379.573
373.89
369.826
367.596
366.348
22.34
-33.4949
-92.5958
-77.2392
-5.39239
55.9931
84.7694
86.887
72.4547
56.2285
37.5359
25.2756
21.1441
22.615
27.1965
32.4245
37.9474
45.381
59.3229
73.529
78.4492
66.1748
53.5105
41.6685
29.5201
16.9097
7.40114
4.16925
5.39241
7.4558
8.94429
9.6738
10.7835
12.4294
14.8113
18.3961
23.9753
31.9308
30.1757
21.5739
-4.87027
-51.7684
-99.8533
-139.916
-170.857
-11.1093
-655.573
-642.272
-136.023
274.973
437.779
418.701
411.146
398.76
388.021
379.64
373.789
369.639
367.369
366.109
-31.7989
-41.3951
-112.307
-93.7362
-17.6663
56.1492
98.3406
96.7314
78.3318
60.4164
39.9711
25.307
19.6522
20.633
24.6618
30.2883
36.4714
45.6337
56.5217
65.5802
69.9267
63.973
54.1009
43.5932
31.5517
19.7051
11.0133
7.28178
7.0606
8.15696
9.48448
10.1042
10.8874
13.0571
16.1342
20.8039
25.8579
29.1173
26.6511
18.7138
-5.1301
-51.9677
-102.652
-139.013
-177.58
-110.359
-540.887
-650.357
-235.35
324.509
440.163
421.548
410.037
397.41
386.898
378.75
373.073
369.049
366.857
365.635
-22.431
-43.7832
-154.997
-141.951
-48.6244
52.8334
127.442
118.692
89.8457
64.9395
42.38
26.7794
20.0292
20.2272
23.8493
29.5388
35.6796
43.9494
54.0891
63.9356
69.1365
63.4401
55.172
46.1541
34.5206
22.7639
12.6701
7.41049
6.07496
7.19462
8.98971
10.5867
13.8403
17.0383
19.153
22.2122
27.1422
29.321
26.2287
15.291
-10.3949
-58.746
-109.961
-141.803
-171.512
-139.216
-578.342
-694.494
-192.855
316.029
436.817
421.788
410.037
397.413
386.932
378.791
373.115
369.084
366.889
365.665
28.8449
-43.9121
-205.809
-212.449
-62.6092
79.5013
170.045
142.364
95.2702
65.3544
40.7306
24.2107
16.785
16.9809
21.236
27.0179
33.1243
42.3561
57.2553
72.3589
76.6096
66.5487
55.2378
44.4845
32.5015
19.7486
9.13992
4.23041
4.71515
6.87171
8.25378
9.3737
11.2823
11.7791
15.1092
21.7836
26.258
28.4392
24.3494
12.6871
-13.5807
-60.635
-109.707
-140.283
-167.669
-162.342
-654.689
-731.222
-9.00967
270.958
431.548
418.823
410.619
398.466
387.929
379.626
373.806
369.665
367.401
366.143
86.5533
-44.5349
-263.498
-268.518
-90.7851
115.326
221.177
179.366
99.7732
64.773
42.4047
26.1292
16.1973
15.8102
21.5458
28.7207
37.1166
46.6473
57.3554
65.1653
65.9064
60.5017
53.9885
45.3005
33.989
21.4506
10.7489
5.53372
4.91987
6.59705
8.37964
10.7485
13.8517
15.8851
17.3992
20.1109
22.2533
22.2204
17.0786
3.08014
-24.063
-67.3058
-114.616
-150.619
-187.627
-170.457
-622.411
-730.914
55.9691
246.973
416.129
412.771
407.445
396.868
387.204
379.353
373.776
369.756
367.554
366.318
-82.4544
-239.735
-261.801
12.0744
127.905
116.467
140.106
114.401
80.9073
58.0489
40.454
27.2908
19.6258
16.3421
19.4814
26.5849
35.2784
45.93
56.2084
62.4567
62.5363
58.4555
52.2359
43.744
33.1187
22.0913
12.7723
7.61143
6.53841
7.20826
8.27124
9.53329
11.2123
14.2911
17.5674
20.207
20.799
18.4971
10.1109
-6.52231
-35.292
-78.4689
-121.02
-144.95
-154.02
-163.165
-554.812
-672.781
22.5111
231.858
412.816
406.29
403.694
394.904
386.333
379.095
373.833
369.999
367.888
366.682
-63.7151
-101.869
-116.897
-55.2683
35.8765
77.6699
99.4294
85.8049
66.7722
51.1994
37.8498
27.7104
21.535
19.266
21.2781
26.2607
34.6359
45.2714
55.7095
62.2872
62.9277
58.8582
51.9646
43.0114
32.1178
20.8265
12.0796
7.46743
6.35166
6.86885
7.86454
9.18376
11.3375
15.3598
19.2885
22.2478
22.7107
18.7397
6.78087
-14.2772
-47.3373
-89.2632
-127.06
-155.281
-186.996
-250.521
-348.633
-565.895
-258.339
159.753
396.019
389.401
393.188
388.377
382.405
376.769
372.481
369.208
367.41
366.331
-37.7859
-58.1049
-58.6719
-12.1464
27.6089
55.9009
70.7323
65.3624
55.2602
45.3677
36.0491
28.5989
23.9275
22.4234
24.293
28.7496
35.6048
44.3034
52.6506
57.5283
58.6194
55.6695
49.9939
41.9758
32.2098
22.0917
14.0414
9.55439
8.14481
8.42356
8.96483
9.70863
11.1885
14.2164
17.5039
19.2825
18.4961
13.0094
-0.304516
-24.3006
-59.6244
-99.8493
-135.172
-163.604
-197.515
-232.857
-279.271
-383.019
-335.208
51.8363
358.208
362.587
377.151
378.179
375.87
372.527
369.7
367.303
366.002
365.142
-18.2326
-32.216
-35.0678
-10.0666
20.2575
41.9125
53.0993
52.141
47.1701
40.9952
34.5909
29.2321
25.8909
24.9997
26.6847
30.6977
36.7306
43.9701
50.8846
55.252
55.6751
52.9869
47.6122
40.0709
31.2692
22.3319
15.17
10.8996
9.17232
8.98371
9.31497
9.90296
11.0446
13.1088
15.2447
15.6529
12.9655
5.09503
-10.2802
-34.7771
-68.3438
-107.093
-142.007
-168.679
-196.143
-227.289
-249.43
-266.644
-199.629
29.8437
316.242
338.548
363.055
369.161
370.061
368.756
367.231
365.608
364.745
364.082
-6.90533
-17.557
-19.1058
-3.63817
17.0291
33.6256
42.7239
44.3174
41.8621
37.9891
33.5363
29.6523
27.2357
26.7825
28.335
31.7445
36.9674
43.27
49.0502
52.8519
53.3887
50.9114
45.897
38.9215
30.8577
22.8037
16.2836
12.1443
10.1338
9.44546
9.42667
9.75821
10.4881
11.7438
12.7401
11.9555
7.83705
-1.46104
-17.5454
-41.4317
-72.43
-107.524
-138.309
-163.169
-187.714
-213.786
-230.481
-215.393
-125.136
60.5274
276.987
323.248
351.288
361.418
365.043
365.49
365.096
364.141
363.658
363.165
-1.27305
-8.53535
-9.00104
0.969848
15.379
27.9628
35.636
38.3478
37.8918
35.6782
32.653
29.8829
28.1674
28.0072
29.5104
32.7017
37.2595
42.7371
47.9199
51.2329
51.4842
49.113
44.3811
37.8729
30.4443
23.1194
17.1042
13.065
10.8605
9.86184
9.55616
9.62286
9.88724
10.2307
9.94682
7.78105
2.32774
-7.88012
-24.0643
-46.7013
-75.1144
-106.749
-133.682
-155.502
-176.46
-196.675
-206.98
-174.409
-74.6446
92.3298
255.607
311.924
342.114
355.445
361.156
363.016
363.529
363.103
362.915
362.557
2.5558
-2.88191
-2.7395
4.37055
14.9022
24.7759
31.4661
34.5833
35.098
33.9025
31.8573
29.8907
28.7152
28.8117
30.2869
33.0911
37.2125
42.0138
46.5171
49.4037
49.8813
47.6707
43.2147
37.0947
30.1501
23.3539
17.6879
13.7001
11.3347
10.1405
9.63077
9.45031
9.33432
8.97572
7.74107
4.59723
-1.64553
-12.2384
-28.1343
-49.3535
-75.2639
-102.971
-127.322
-146.83
-163.603
-176.327
-170.604
-132.44
-32.9106
116.468
243.731
303.79
335.62
351.19
358.429
361.383
362.575
362.524
362.543
362.282
3.93947
0.11255
0.945546
6.49001
14.6848
22.8985
28.9934
32.2932
33.2978
32.7151
31.2898
29.8523
29.0458
29.3404
30.8668
33.624
37.4727
41.8278
45.8626
48.385
48.7255
46.6279
42.38
36.5535
29.9561
23.518
18.0834
14.12
11.6237
10.2495
9.55524
9.17106
8.75225
7.90266
5.99398
2.20672
-4.53582
-15.3043
-30.8781
-51.229
-75.3002
-100.627
-123.143
-141.223
-155.494
-163.12
-151.326
-104.44
-4.21976
128.056
236.797
297.993
331.089
348.206
356.712
360.28
361.962
362.169
362.33
362.136
3.59555
1.09464
2.56983
7.52331
14.8144
22.1879
27.8945
31.2173
32.4291
32.1065
30.9646
29.7734
29.1447
29.5257
31.0518
33.6896
37.3948
41.5648
45.3973
47.8394
48.1392
46.0991
41.9609
36.2886
29.8714
23.6157
18.301
14.3633
11.8173
10.3569
9.55742
9.04577
8.46769
7.41904
5.26915
1.22541
-5.68226
-16.4346
-31.6971
-51.4406
-74.7085
-99.0392
-120.951
-138.486
-151.574
-156.532
-141.066
-90.489
9.25409
132.954
233.932
295.217
328.983
346.846
355.953
359.808
361.735
362.065
362.289
362.126
14.8116
12.4719
11.899
11.1173
10.6983
11.0011
11.7201
12.8056
13.97
15.0915
16.1803
17.4566
19.1303
21.3334
24.0232
27.122
30.5574
34.0594
37.2746
39.5982
40.3474
39.0289
35.6251
30.6217
24.866
19.3246
14.7191
11.4343
9.45814
8.51124
8.26233
8.41661
8.66367
8.53862
7.32384
4.0456
-2.40539
-13.1543
-28.9821
-50.0551
-74.964
-100.738
-123.422
-140.716
-153.206
-160.398
-150.687
-107.084
-12.0448
116.905
228.867
293.605
329.367
347.77
356.914
360.684
362.486
362.724
362.893
362.697
16.1571
13.1408
11.8708
10.9715
10.522
10.811
11.5538
12.6767
13.8806
15.0072
16.0603
17.2883
18.9399
21.1516
23.8672
26.9977
30.4603
34.0299
37.384
39.8822
40.759
39.4666
35.9714
30.7915
24.8387
19.1334
14.4434
11.1648
9.25231
8.38667
8.23544
8.50739
8.90895
8.98069
8.00068
4.96643
-1.33979
-12.1165
-28.1213
-50.0089
-76.0505
-103.064
-126.553
-143.905
-156.425
-165.721
-160.603
-121.292
-27.876
109.448
232.398
296.849
332.088
349.554
358.004
361.387
362.891
362.974
363.059
362.821
17.8502
13.9481
11.8064
10.6558
10.1478
10.4048
11.2238
12.4255
13.7209
14.8579
15.8297
16.9614
18.5699
20.7942
23.5736
26.7932
30.3715
34.1236
37.7207
40.4683
41.5869
40.3393
36.6614
31.1461
24.8082
18.7814
13.931
10.6713
8.88956
8.19491
8.2275
8.74589
9.50387
10.0785
9.71199
7.27076
1.36091
-9.37036
-26.0149
-49.2635
-77.8357
-107.51
-132.73
-149.918
-162.179
-176.142
-180.903
-150.884
-61.458
92.2895
240.539
303.352
337.563
353.062
360.128
362.731
363.678
363.461
363.384
363.065
19.0483
14.4948
11.6947
10.2237
9.6333
9.86177
10.7818
12.1094
13.5283
14.6785
15.5151
16.4946
18.0227
20.2537
23.1015
26.4093
30.0977
34.0438
37.9424
41.2101
42.7558
41.5927
37.6563
31.6607
24.7596
18.2714
13.2019
10.0078
8.44266
7.98066
8.28347
9.13813
10.4258
11.7668
12.3203
10.8
5.56131
-4.97322
-22.2368
-47.4889
-79.6235
-113.356
-141.947
-158.844
-169.79
-190.178
-209.102
-193.486
-110.665
61.4741
254.792
313.023
345.466
357.914
363.15
364.542
364.734
364.107
363.8
363.38
20.517
15.0072
11.4297
9.53756
8.87636
9.10973
10.2441
11.7739
13.3426
14.5086
15.1666
15.9297
17.3646
19.6099
22.5662
26.0103
29.8045
34.0766
38.5031
42.3114
44.3199
43.2363
38.9314
32.3068
24.7064
17.6456
12.3429
9.27138
7.97808
7.74818
8.27811
9.53509
11.5186
13.8552
15.6749
15.4692
11.2374
1.07133
-16.861
-44.525
-81.1134
-119.734
-150.882
-166.157
-177.038
-204.646
-240.453
-247.317
-176.443
22.0176
276.584
325.833
355.254
363.735
366.698
366.666
365.976
364.857
364.282
363.744
21.8303
15.5381
10.9296
8.65301
8.01948
8.52799
9.99864
11.6631
13.2973
14.408
14.8037
15.2954
16.6312
18.9005
22.0095
25.6233
29.5408
34.0374
38.9855
43.3133
46.1083
45.1379
40.3263
32.9697
24.5635
16.8942
11.3979
8.53946
7.52452
7.42955
8.13287
9.84591
12.5801
15.9396
19.2829
21.0604
19.0694
10.7441
-6.98339
-35.8643
-76.4397
-121.414
-155.779
-170.405
-182.82
-217.352
-261.582
-286.214
-260.024
-5.15041
302.667
341.814
365.793
370.129
370.529
368.976
367.351
365.7
364.832
364.166
18.922
15.1798
10.2082
7.45968
6.91819
8.05744
10.0896
11.8774
13.3465
14.2658
14.2837
14.4452
15.7152
18.0547
21.3906
25.1168
28.8981
33.7087
39.5757
44.9833
48.5445
47.536
41.9265
33.5881
24.1624
15.7062
9.90956
7.16356
6.29221
6.14519
6.7595
8.58171
11.8016
16.3161
21.335
25.1919
25.4546
19.0055
2.77155
-25.2222
-67.0026
-116.79
-155.985
-174.085
-188.656
-230.804
-277.963
-326.221
-379.587
-0.510515
337.79
364.713
377.928
377.616
375.134
371.871
369.181
366.905
365.687
364.868
19.9287
16.0841
8.96141
5.37487
5.2363
7.80507
10.7465
12.5711
13.6267
14.0302
13.3818
13.138
14.4998
17.0008
20.7201
24.8297
29.0736
34.5527
41.4937
47.8883
51.6531
50.464
43.6517
34.0664
23.4816
14.1722
8.07884
5.61647
5.05357
4.9497
5.68101
7.51217
10.9891
16.1802
22.0958
27.3798
29.8236
25.6311
11.7006
-14.6105
-54.2946
-105.852
-151.44
-173.712
-184.515
-228.173
-273.268
-416.408
-566.661
79.988
385.709
386.98
391.394
386.261
380.633
375.446
371.537
368.526
366.891
365.889
2.73385
12.3387
6.76993
2.91834
3.00597
7.53848
12.6574
14.9152
15.2567
14.6667
12.9664
11.9692
13.2556
16.1201
20.2049
24.2118
27.6613
33.3106
41.8924
50.4304
54.8381
53.9734
45.3582
34.5894
23.2608
13.1165
6.41886
3.44795
2.66941
2.39309
2.38759
3.96084
7.33847
13.0042
19.8084
27.1224
32.3965
30.582
18.6726
-4.74002
-39.4098
-87.8304
-139.165
-171.346
-191.782
-190.384
-342.409
-537.419
-380.041
228.376
430.768
409.366
405.151
395.613
386.79
379.523
374.275
370.438
368.331
367.121
48.2765
27.3365
2.96964
-5.34096
-7.76707
4.65354
16.7973
19.1731
17.4432
14.3058
10.796
9.55204
12.2291
16.0385
20.2876
24.1428
28.1932
34.9453
44.5875
55.2732
61.4258
56.66
45.0036
33.532
21.8568
11.1219
4.44213
2.84506
3.33024
3.57749
4.0871
5.89965
9.2368
14.7157
21.1951
28.1714
31.742
29.8229
19.2111
-3.63088
-38.3901
-85.1308
-140.015
-175.606
-203.434
-127.245
-731.518
-618.825
-45.3769
278.592
441.769
420.852
412.447
400.532
389.928
381.459
375.454
371.159
368.793
367.475
90.1032
3.92195
-14.3009
-14.1316
2.271
16.6686
27.2573
24.007
18.851
12.7405
8.76173
9.77232
13.4487
17.6317
21.865
25.0381
28.8086
35.7296
45.2954
55.0181
60.7453
55.781
44.4556
33.2428
20.6431
8.5978
0.660914
-0.813389
1.54788
3.44822
5.01764
7.45316
12.7298
20.5904
28.6843
36.9882
40.9989
40.1431
31.9378
9.30873
-26.0702
-75.2809
-134.795
-177.957
-198.37
-41.3696
-874.16
-587.477
138.965
271.913
422.585
418.812
412.131
400.314
389.661
381.094
375.03
370.71
368.334
367.021
94.8406
17.1195
-14.0947
-27.9261
-49.1536
0.947005
38.3221
32.9561
24.1765
18.1052
14.7753
13.9527
16.1139
19.613
23.2158
25.7453
29.0331
35.9802
45.4785
54.4473
58.4644
53.9685
43.8252
32.1008
19.6345
7.79455
0.796667
0.0302597
3.05621
5.57492
7.25231
9.72072
15.9055
24.4947
32.6768
40.5944
44.0946
41.4357
32.9031
13.4264
-20.9459
-69.1306
-126.735
-173.106
-189.776
-85.307
-884.442
-542.433
201.082
285.541
406.466
417.179
412.092
400.349
389.638
380.993
374.88
370.535
368.148
366.833
81.731
8.99812
-69.7211
-77.6204
-36.5545
48.1664
85.8738
55.8506
32.4613
21.2114
14.4165
12.6926
13.8888
16.8604
20.2403
24.7831
28.8689
36.8508
47.4203
55.9402
58.6792
54.589
45.0092
32.9769
19.5825
7.12825
-0.521774
-1.01008
2.20319
5.01721
6.7972
9.82912
16.8248
26.2544
35.1452
41.7415
44.1377
41.1991
31.9782
13.4019
-19.4715
-66.8257
-122.85
-172.383
-191.833
-43.5517
-857.292
-571.364
173.551
281.013
406.831
416.2
411.738
400.02
389.373
380.793
374.73
370.418
368.05
366.745
49.1403
-1.86317
-50.7139
-54.4843
-4.53455
42.4236
51.9588
37.7143
29.2962
23.5138
18.0656
13.9674
13.2871
15.3947
18.643
22.8354
28.3232
38.2556
49.7689
58.3724
60.4731
53.9606
43.0249
32.4296
19.2156
7.09317
-0.130618
-1.19053
1.63012
4.4732
6.10733
9.97811
16.2097
22.34
29.9653
36.9974
40.8515
38.7842
28.9614
10.6747
-19.6619
-63.9895
-118.445
-168.057
-206.068
-223.556
-749.746
-439.801
31.9085
262.318
415.739
414.646
410.171
398.741
388.473
380.215
374.373
370.197
367.907
366.634
8.51416
-9.99035
-39.6101
-40.4389
-3.93382
32.6463
49.0663
43.6343
32.4686
23.6174
16.7533
13.1082
13.1565
14.9747
17.2923
20.9521
25.518
34.7046
48.7827
59.9544
61.0166
55.7575
45.3932
33.192
18.8267
4.78397
-3.10948
-2.94573
0.660947
2.50635
2.43588
9.76336
20.0991
27.5953
32.0674
35.88
37.452
35.5543
26.8808
9.84106
-20.3959
-64.1114
-115.448
-171.916
-240.963
-221.224
-531.59
-395.265
-145.401
245.996
409.472
410.593
405.8
395.657
386.432
378.922
373.566
369.686
367.564
366.361
-9.56456
-16.7665
-28.3529
-26.4163
-2.86117
22.6931
35.4727
36.7925
31.4164
24.9472
19.5902
16.0758
15.4503
16.6427
19.1963
22.3485
26.4839
33.2682
44.3837
53.8874
55.8619
51.6981
44.3674
33.2445
20.3838
9.57817
3.71484
2.31935
4.31511
6.12312
6.04227
9.25825
15.3761
21.073
28.7002
34.0886
34.9753
30.675
18.6342
-2.88551
-38.3486
-89.1617
-144.685
-178.631
-217.59
-202.965
-419.951
-452.5
-285.285
205.556
396.086
396.652
396.236
389.402
382.436
376.355
371.889
368.55
366.735
365.66
-32.4201
-21.143
-20.6754
-16.6683
0.338696
20.0344
30.8806
34.0042
30.6528
24.7138
19.8794
16.9525
16.7147
18.313
20.9816
24.4655
28.7367
33.9999
42.5871
50.2837
53.0594
48.8991
42.1335
32.0798
19.858
8.82642
1.64118
-0.487247
1.25998
4.03864
6.69039
9.86615
15.7372
23.6468
29.9519
33.1846
31.5941
25.8953
12.3362
-11.5583
-46.14
-89.759
-131.153
-168.018
-226.654
-344.063
-428.143
-410.336
-388.848
67.1278
372.184
383.728
390.282
385.89
380.509
375.344
371.425
368.391
366.741
365.74
-1.85324
-7.83631
-12.5832
-9.92867
2.26841
16.7902
25.6329
29.1774
27.7565
24.4442
21.6002
20.289
20.1242
21.2155
23.5478
26.8705
31.2535
36.6833
43.4828
49.0512
50.7119
47.1294
40.514
30.8224
19.4915
9.45479
3.25067
1.92396
3.81117
6.93133
10.4872
14.5432
18.9274
24.4971
29.1056
30.9453
28.786
21.2776
6.11427
-20.3909
-59.5595
-106.719
-151.47
-190.365
-225.961
-270.904
-315.227
-344.223
-282.025
9.36457
343.365
362.26
379.881
380.25
377.421
373.64
370.52
367.934
366.527
365.624
-0.486743
-7.28498
-8.84419
-5.09304
4.40503
15.5054
23.1272
26.6322
26.4381
24.6797
22.935
22.0946
22.3476
23.6081
25.7925
28.7745
32.5005
37.105
42.2921
46.1213
46.8727
44.1433
38.3968
30.0951
20.5221
11.9172
6.08687
3.88267
4.68379
6.995
10.0229
13.8144
18.0067
22.3691
24.917
25.1877
21.9092
13.2977
-2.7878
-30.583
-68.7325
-110.335
-145.078
-175.463
-203.719
-237.438
-261.524
-267.05
-186.766
17.4875
296.811
338.512
363.866
370.061
370.968
369.484
367.821
366.096
365.181
364.492
1.58035
-3.99132
-5.43899
-2.01478
5.74175
14.6115
21.3283
24.9261
25.6119
24.9325
24.0009
23.607
24.0336
25.3082
27.363
30.1234
33.428
37.2505
41.1122
43.9415
44.2626
41.7568
36.6608
29.5266
21.4095
14.1365
9.10398
6.91716
7.34427
9.05942
11.4559
14.0329
16.8352
19.2073
20.8917
20.1882
15.9223
6.59134
-9.76671
-36.2494
-71.4136
-111.854
-146.558
-171.605
-194.413
-218.497
-232.097
-217.439
-131.351
50.2383
265.773
320.928
351.013
361.655
365.535
365.979
365.551
364.553
364.047
363.541
2.54399
-2.61984
-3.33079
0.0317956
6.73903
14.3494
20.4279
24.0185
25.2155
25.1419
24.7176
24.6245
25.1641
26.4294
28.3534
30.9107
33.9665
37.3325
40.4863
42.492
42.4446
40.0039
35.3315
28.9483
21.8438
15.4005
10.6996
8.27086
7.91917
9.06093
11.0119
13.3019
15.4126
16.9116
17.3069
15.5594
10.487
0.607846
-15.8153
-40.4111
-71.7063
-106.327
-137.345
-161.135
-181.401
-199.944
-204.585
-174.522
-82.6348
80.9515
247.366
308.474
340.924
355.083
361.221
363.207
363.783
363.37
363.19
362.834
2.82335
-1.66344
-1.9693
1.40199
7.46499
14.3584
19.9796
23.5634
25.0624
25.3663
25.2456
25.3159
25.8965
27.1304
28.9588
31.3269
34.1561
37.1291
39.8167
41.4069
41.1504
38.763
34.4046
28.5744
22.1656
16.2959
11.8718
9.3727
8.7048
9.34587
10.8252
12.5775
14.161
15.0881
14.7341
12.2195
6.51725
-3.7145
-19.9441
-42.9854
-71.5732
-102.285
-129.332
-150.046
-166.64
-179.21
-174.564
-137.115
-42.5495
103.953
236.51
299.638
333.623
350.203
358.034
361.171
362.517
362.542
362.606
362.364
1.72862
-1.7632
-1.16681
2.32185
7.99302
14.5359
19.846
23.3853
25.0427
25.5571
25.6109
25.7736
26.3696
27.5792
29.359
31.6522
34.3878
37.1681
39.5348
40.8024
40.3797
38.0114
33.8466
28.3624
22.3725
16.8521
12.5964
10.0411
9.16425
9.55977
10.7387
12.1819
13.4216
13.9361
13.0731
10.0528
3.93439
-6.48281
-22.399
-44.2982
-70.9585
-99.1079
-123.995
-143.461
-158.308
-166.64
-155.522
-111.14
-14.4089
116.572
230.157
293.787
328.777
346.937
356.027
359.812
361.709
362.027
362.256
362.09
0.606277
-2.13536
-0.924985
2.68273
8.20062
14.5775
19.7748
23.2962
25.0378
25.646
25.7768
25.9729
26.5704
27.7526
29.5113
31.7719
34.4117
37.0689
39.2937
40.442
39.9627
37.6168
33.555
28.2431
22.4548
17.0988
12.9223
10.3407
9.3534
9.6132
10.643
11.9413
13.0215
13.3421
12.2535
9.01197
2.69145
-7.82577
-23.5623
-44.8188
-70.3814
-97.246
-121.272
-140.168
-154.054
-160.273
-146.442
-98.6039
-2.59388
122.036
227.26
290.919
326.434
345.35
355.118
359.083
361.324
361.793
362.101
361.974
3.26529
0.989262
2.38092
7.27282
14.3512
21.4958
27.0024
30.1779
31.3198
30.9536
29.7635
28.5367
27.9138
28.3663
30.0226
32.9233
37.0327
41.7605
46.1719
49.0892
49.5449
47.3556
42.8126
36.5769
29.5541
22.771
17.1142
13.0814
10.6473
9.42009
8.85948
8.55549
8.14529
7.17249
4.96456
0.727479
-6.60918
-18.1397
-34.5925
-55.8305
-80.899
-106.932
-129.577
-146.968
-160.954
-169.447
-158.105
-108.446
-0.621561
138.011
248.299
309.963
341.504
356.789
363.692
365.914
366.52
365.957
365.633
365.19
4.46503
1.71837
2.76002
7.14702
13.7677
20.5022
25.7357
28.7404
29.8477
29.5261
28.3752
27.1918
26.636
27.1974
29.0017
32.1649
36.6419
41.9082
46.9385
50.3588
50.9772
48.6509
43.682
36.8537
29.2102
21.8949
15.9166
11.8328
9.5971
8.71201
8.41412
8.31433
7.95655
6.88498
4.51613
-0.161664
-8.11463
-20.5548
-38.3466
-61.1914
-87.7824
-115.183
-137.863
-154.307
-168.198
-179.952
-173.348
-124.994
-8.62539
145.944
265.04
325.615
354.214
366.449
371.223
371.751
371.044
369.611
368.758
368.051
4.2903
2.20012
3.20636
7.15261
13.1203
19.3401
24.0979
26.943
28.0785
27.8666
26.8302
25.7566
25.3258
26.0263
28.0329
31.4405
36.1693
41.881
47.4552
51.3631
52.1847
49.7545
44.3159
36.8526
28.5603
20.705
14.3731
10.18
8.05625
7.16922
7.04037
6.94736
6.49845
5.34034
2.72367
-2.31305
-10.6551
-23.5717
-42.2346
-66.3703
-93.9244
-121.69
-143.653
-158.368
-172.114
-188.072
-187.641
-140.774
-14.6927
156.901
284.192
341.748
366.517
375.894
378.304
377.171
375.201
372.942
371.593
370.643
5.57078
3.2424
4.01736
7.27258
12.4208
17.9386
22.2308
24.8883
26.0393
25.9569
25.0912
24.2001
23.9478
24.8088
27.0017
30.5759
35.5388
41.6642
47.7198
52.0842
53.1396
50.7303
44.8305
36.7811
27.9339
19.6496
13.1261
9.14625
7.34357
6.9747
7.23829
7.57117
7.30537
5.86828
2.76497
-2.64315
-11.3217
-24.5541
-43.5706
-68.201
-95.8562
-123.072
-144.052
-158.02
-173.517
-195.354
-202.884
-156.539
-17.0103
170.392
305.309
357.698
378.031
384.571
384.686
381.973
378.864
375.854
374.06
372.897
5.5183
4.10134
5.00138
7.55302
11.711
16.4067
20.1893
22.6291
23.7894
23.885
23.2808
22.6631
22.6908
23.7921
26.1927
29.9194
35.0815
41.5578
48.1279
52.7512
53.6624
51.2484
45.055
36.5924
27.3583
18.7613
12.0287
7.893
6.10124
5.89297
6.18353
6.2769
5.67361
4.12596
1.18874
-3.87184
-12.2171
-25.3209
-44.4212
-69.2615
-97.4093
-124.419
-144.653
-158.678
-179.986
-207.792
-220.534
-170.985
-17.5248
183.904
326.218
371.438
388.224
391.852
389.945
385.868
381.831
378.199
376.045
374.706
9.41478
6.74576
6.79646
7.88106
10.8889
14.8675
18.2456
20.4915
21.6268
21.8804
21.5817
21.2996
21.679
23.0465
25.5675
29.369
34.557
41.0045
47.5571
52.1864
53.1222
51.0534
44.8384
36.2545
26.8839
18.2223
11.4828
7.50795
5.86301
5.72059
6.07372
6.1802
5.61059
4.02569
0.922645
-4.22129
-12.5167
-25.5184
-44.4321
-68.8673
-96.7744
-123.492
-142.691
-153.973
-173.07
-208.02
-223.462
-176.371
-15.1659
192.897
340.242
380.954
395.252
396.841
393.544
388.522
383.862
379.802
377.402
375.946
8.33739
7.60295
7.40009
8.33359
10.6857
14.1233
16.9842
18.7989
19.7544
20.0882
20.0296
20.0935
20.868
22.5537
25.2974
29.1874
34.3453
40.6165
46.9627
51.3776
52.9308
50.6785
44.5583
35.9551
26.5367
17.8906
11.1776
7.11756
5.45446
5.2647
5.6123
5.79688
5.41521
4.0251
1.19638
-4.00218
-12.5802
-25.6393
-44.1548
-68.082
-95.4234
-122.156
-143.332
-163.31
-193.919
-229.964
-233.582
-184.167
-19.0828
198.387
349.693
386.236
398.852
399.349
395.34
389.838
384.875
380.602
378.081
376.567
11.5421
9.89696
9.35866
9.28683
10.3229
12.6862
15.1274
16.9526
18.0111
18.4921
18.6289
18.9746
20.1009
22.0703
24.9557
28.8845
33.9349
39.9302
46.0477
50.5472
52.2067
49.7386
43.5171
34.8664
25.475
17.006
10.2771
6.23349
4.53876
4.55929
5.03961
5.30498
4.99296
3.71146
0.870404
-4.15457
-12.5738
-25.5807
-44.1053
-68.0197
-95.0805
-120.784
-141.841
-159.971
-174.43
-202.569
-222.726
-177.553
-24.3074
192.065
346.635
384.473
398.079
398.975
395.135
389.716
384.798
380.553
378.047
376.539
12.4913
11.028
10.5002
10.1778
10.8091
12.4456
14.2232
15.7179
16.7787
17.4106
17.7469
18.3094
19.6122
21.8043
24.8058
28.7438
33.6533
39.3486
45.1311
49.4155
51.029
48.8448
43.1195
34.7712
25.6076
17.2061
10.6399
6.52794
4.85208
4.7468
5.18373
5.59626
5.56707
4.5564
1.95491
-3.05668
-11.6858
-25.0558
-44.1854
-68.5919
-96.3928
-124.275
-149.049
-169.584
-184.529
-205.808
-219.158
-175.845
-30.9353
179.889
335.774
378.273
393.991
396.293
393.275
388.387
383.801
379.779
377.398
375.95
14.9109
12.4501
11.4842
10.7807
10.6851
11.6534
12.9929
14.3768
15.5052
16.3134
16.8529
17.6371
19.1192
21.4437
24.5287
28.4557
33.1857
38.5095
43.7054
47.7608
49.2437
47.2195
41.7681
33.832
25.0736
17.0078
10.697
6.68507
4.93183
4.70947
5.15102
5.7168
5.94129
5.27357
3.05847
-1.68403
-10.2515
-23.6836
-42.8706
-67.3048
-95.0725
-123.282
-148.009
-167.389
-184.314
-205.451
-216.224
-174.021
-35.8728
166.932
321.94
369.28
387.515
391.784
390.047
386.024
381.996
378.357
376.198
374.856
15.3877
13.0304
12.1877
11.3084
10.8264
11.3357
12.3209
13.5875
14.7535
15.6603
16.3447
17.2835
18.9027
21.31
24.3907
28.2164
32.753
37.7333
42.5757
46.295
47.6773
45.8401
40.763
33.3394
25.0563
17.384
11.3586
7.51592
5.77216
5.47856
5.77623
6.28876
6.65188
6.2937
4.62804
0.459886
-7.76004
-20.8886
-39.9357
-64.3957
-92.4086
-120.868
-146.103
-166.564
-185.049
-203.73
-210.506
-169.247
-38.4977
153.206
305.071
357.564
378.868
385.542
385.498
382.636
379.403
376.305
374.459
373.268
15.9223
13.5216
12.6005
11.6266
10.8943
11.121
11.8741
13.0445
14.2158
15.2
16.0029
17.038
18.6789
21.0745
24.124
27.7985
32.1047
36.7293
41.1652
44.5262
45.7711
44.0977
39.4347
32.5611
24.8302
17.6205
11.9143
8.21996
6.46856
6.03214
6.26469
6.89813
7.7034
8.16809
7.28022
3.82812
-4.30938
-17.3148
-36.3454
-60.8869
-89.0442
-117.609
-142.499
-161.622
-178.193
-195.316
-199.07