/*--------------------------------*- C++ -*----------------------------------*\
| =========                 |                                                 |
| \\      /  F ield         | OpenFOAM: The Open Source CFD Toolbox           |
|  \\    /   O peration     | Version:  2.1.1                                 |
|   \\  /    A nd           | Web:      www.OpenFOAM.org                      |
|    \\/     M anipulation  |                                                 |
\*---------------------------------------------------------------------------*/
FoamFile
{
    version     2.0;
    format      ascii;
    class       surfaceScalarField;
    location    "0.0011";
    object      phi;
}
// * * * * * * * * * * * * * * * * * * * * * * * * * * * * * * * * * * * * * //

dimensions      [0 3 -1 0 0 0 0];

internalField   nonuniform List<scalar> 
105695
(
-7.13187e-08
-4.19529e-08
2.29989e-08
9.02726e-08
-1.42851e-07
3.98091e-08
5.37618e-08
-2.20382e-08
-1.95887e-07
3.38756e-08
1.78406e-08
1.31949e-09
-2.05379e-07
7.38813e-09
4.92282e-09
-2.81885e-09
-2.05532e-07
-3.94725e-09
-3.63428e-09
7.73418e-09
-2.01709e-07
-5.5522e-09
7.29675e-09
-5.56712e-09
-2.05105e-07
5.79422e-10
2.20877e-08
-1.92713e-08
-2.12098e-07
5.92421e-09
3.86932e-08
-3.76241e-08
-2.22768e-07
1.05122e-08
4.80471e-08
-4.78894e-08
-2.34723e-07
1.29039e-08
5.5518e-08
-5.64668e-08
-2.46113e-07
1.33099e-08
5.5288e-08
-5.7208e-08
-2.55878e-07
1.17561e-08
5.43126e-08
-5.63034e-08
-2.62588e-07
8.62651e-09
4.94261e-08
-5.13426e-08
-2.66506e-07
5.76134e-09
4.55412e-08
-4.73853e-08
-2.67974e-07
3.37975e-09
4.18627e-08
-4.37742e-08
-2.68528e-07
2.45398e-09
4.10538e-08
-4.29537e-08
-2.68899e-07
2.91137e-09
4.27799e-08
-4.53205e-08
-2.70407e-07
4.72665e-09
4.76625e-08
-5.08808e-08
-2.73667e-07
7.63993e-09
5.4622e-08
-5.90022e-08
-2.79677e-07
1.13808e-08
6.34687e-08
-6.88393e-08
-2.88798e-07
1.54884e-08
7.26594e-08
-7.90265e-08
-3.0125e-07
1.96696e-08
8.07864e-08
-8.80043e-08
-3.16259e-07
2.30734e-08
8.5793e-08
-9.38579e-08
-3.32625e-07
2.49638e-08
8.71863e-08
-9.57836e-08
-3.49074e-07
2.53118e-08
8.49206e-08
-9.37837e-08
-3.64516e-07
2.44789e-08
7.93656e-08
-8.84018e-08
-3.78107e-07
2.26348e-08
7.13802e-08
-8.04245e-08
-3.89241e-07
1.98273e-08
6.22932e-08
-7.09861e-08
-3.97963e-07
1.68584e-08
5.37168e-08
-6.18535e-08
-4.04665e-07
1.41375e-08
4.69539e-08
-5.43888e-08
-4.09808e-07
1.18537e-08
4.28419e-08
-4.95534e-08
-4.13731e-07
1.01397e-08
4.1685e-08
-4.79011e-08
-4.17133e-07
9.58357e-09
4.40686e-08
-5.02503e-08
-4.21034e-07
1.09028e-08
4.99372e-08
-5.6939e-08
-4.26584e-07
1.48876e-08
5.809e-08
-6.74274e-08
-4.35586e-07
2.25665e-08
6.79308e-08
-8.14952e-08
-4.50033e-07
3.41086e-08
7.72585e-08
-9.69209e-08
-4.72198e-07
4.90184e-08
8.55449e-08
-1.12398e-07
-5.04436e-07
6.75296e-08
9.02285e-08
-1.2552e-07
-5.48488e-07
8.85434e-08
8.81956e-08
-1.32687e-07
-6.04372e-07
1.09433e-07
7.54064e-08
-1.28955e-07
-6.699e-07
1.26895e-07
4.71817e-08
-1.08549e-07
-7.41251e-07
1.35947e-07
3.26068e-09
-6.78577e-08
-8.1329e-07
1.32672e-07
-5.63047e-08
-4.3283e-09
-8.754e-07
1.10865e-07
-1.23117e-07
7.43615e-08
-9.18081e-07
6.55121e-08
-2.16419e-07
1.93588e-07
-9.07997e-07
-2.05485e-08
-3.66898e-07
3.77362e-07
-7.95421e-07
-1.50631e-07
-5.6004e-07
5.98095e-07
-5.8637e-07
-2.73378e-07
-7.20815e-07
7.85142e-07
-3.39867e-07
-3.13401e-07
-7.47366e-07
8.14265e-07
-1.85078e-07
-2.31405e-07
-6.41825e-07
7.18442e-07
-8.92799e-08
-1.65755e-07
-5.21367e-07
5.91323e-07
-3.82426e-08
-1.12043e-07
-4.05095e-07
4.66101e-07
-1.10407e-08
-7.60266e-08
-3.11512e-07
3.60337e-07
8.3159e-10
-5.13634e-08
-2.36391e-07
2.75882e-07
6.2851e-09
-3.5976e-08
-1.83514e-07
2.14037e-07
6.64855e-09
-2.54412e-08
-1.41377e-07
1.66455e-07
5.24306e-09
-1.89893e-08
-1.15515e-07
1.3591e-07
2.85938e-09
-1.53609e-08
-9.73901e-08
1.15135e-07
-1.33341e-08
-8.88588e-08
1.05052e-07
-1.87335e-07
3.21681e-08
5.07572e-08
6.24564e-08
-2.74173e-07
9.98785e-08
8.6518e-08
-5.97486e-08
-3.15927e-07
6.6351e-08
3.10762e-08
-2.1798e-08
-3.20589e-07
1.27345e-08
1.14522e-08
-1.2137e-08
-3.15927e-07
-9.77534e-09
-6.73009e-09
7.8966e-09
-3.10992e-07
-1.07344e-08
7.34498e-09
-7.09732e-09
-3.13968e-07
1.32944e-09
1.98248e-08
-1.75993e-08
-3.20948e-07
1.29193e-08
3.76029e-08
-3.7618e-08
-3.32002e-07
2.13933e-08
4.54666e-08
-4.5294e-08
-3.44114e-07
2.67832e-08
5.14483e-08
-5.32157e-08
-3.55745e-07
2.72455e-08
4.94314e-08
-5.1736e-08
-3.65703e-07
2.41522e-08
4.70207e-08
-4.94588e-08
-3.72532e-07
1.75654e-08
4.00458e-08
-4.21551e-08
-3.76161e-07
1.12326e-08
3.4858e-08
-3.67004e-08
-3.77185e-07
6.07502e-09
3.00989e-08
-3.17704e-08
-3.77054e-07
3.72145e-09
2.80038e-08
-2.94023e-08
-3.76909e-07
5.02535e-09
2.92674e-08
-3.1526e-08
-3.7808e-07
8.61676e-09
3.29792e-08
-3.56987e-08
-3.80953e-07
1.46921e-08
3.93231e-08
-4.35022e-08
-3.86599e-07
2.22333e-08
4.65819e-08
-5.17888e-08
-3.95226e-07
3.06774e-08
5.45382e-08
-6.10996e-08
-4.07059e-07
3.91706e-08
6.0811e-08
-6.84795e-08
-4.2126e-07
4.61535e-08
6.43916e-08
-7.32702e-08
-4.36653e-07
4.9913e-08
6.43237e-08
-7.38801e-08
-4.5186e-07
5.03927e-08
6.10036e-08
-7.08779e-08
-4.65874e-07
4.81751e-08
5.43907e-08
-6.40728e-08
-4.77878e-07
4.39662e-08
4.57744e-08
-5.51021e-08
-4.87195e-07
3.76271e-08
3.62481e-08
-4.47301e-08
-4.93865e-07
3.10543e-08
2.74433e-08
-3.49697e-08
-4.98507e-07
2.5241e-08
2.06673e-08
-2.71288e-08
-5.01365e-07
2.00666e-08
1.66437e-08
-2.19986e-08
-5.02899e-07
1.59566e-08
1.5567e-08
-1.98495e-08
-5.03982e-07
1.40412e-08
1.79466e-08
-2.1321e-08
-5.05579e-07
1.55316e-08
2.33975e-08
-2.64294e-08
-5.08991e-07
2.22151e-08
3.10914e-08
-3.50068e-08
-5.16021e-07
3.60995e-08
4.07587e-08
-4.72621e-08
-5.28329e-07
5.72532e-08
5.02954e-08
-6.11324e-08
-5.47684e-07
8.55982e-08
5.8321e-08
-7.55459e-08
-5.76171e-07
1.21269e-07
6.26585e-08
-8.7911e-08
-6.15507e-07
1.6167e-07
6.05353e-08
-9.43251e-08
-6.65912e-07
2.02688e-07
4.72524e-08
-9.01027e-08
-7.25547e-07
2.3854e-07
1.9532e-08
-7.15423e-08
-7.91378e-07
2.60166e-07
-2.49454e-08
-3.34416e-08
-8.59036e-07
2.57348e-07
-8.06724e-08
2.36543e-08
-9.1901e-07
2.15029e-07
-1.48189e-07
1.03999e-07
-9.60248e-07
1.22286e-07
-2.43649e-07
2.28113e-07
-9.58647e-07
-4.69687e-08
-3.98476e-07
4.23295e-07
-8.46219e-07
-3.20503e-07
-6.21058e-07
6.78501e-07
-6.03426e-07
-5.96757e-07
-8.10556e-07
8.91143e-07
-3.33435e-07
-6.62883e-07
-8.32519e-07
9.12011e-07
-1.74528e-07
-4.80644e-07
-6.9112e-07
7.81452e-07
-7.98711e-08
-3.40721e-07
-5.54565e-07
6.34874e-07
-3.13824e-08
-2.28619e-07
-4.2652e-07
4.94607e-07
-6.21086e-09
-1.54667e-07
-3.26539e-07
3.80008e-07
4.40428e-09
-1.04408e-07
-2.46769e-07
2.89198e-07
8.61968e-09
-7.30246e-08
-1.91051e-07
2.23884e-07
8.01079e-09
-5.13875e-08
-1.4687e-07
1.73425e-07
6.17936e-09
-3.86989e-08
-1.19835e-07
1.41376e-07
3.15112e-09
-3.09686e-08
-1.00868e-07
1.19504e-07
-2.71595e-08
-9.1948e-08
1.08925e-07
-2.32549e-07
1.39486e-07
9.42791e-08
3.09517e-08
-3.32751e-07
1.7963e-07
1.01854e-07
-8.14031e-08
-3.75597e-07
1.08066e-07
3.46158e-08
-3.34847e-08
-3.72036e-07
1.86206e-08
-5.05899e-09
-4.38854e-09
-3.59771e-07
-1.68356e-08
-2.45409e-08
1.93365e-08
-3.51523e-07
-1.61946e-08
-4.18108e-09
1.39332e-09
-3.53583e-07
4.66087e-09
1.04943e-08
-1.17662e-08
-3.61048e-07
2.27949e-08
3.40762e-08
-3.6486e-08
-3.73041e-07
3.65316e-08
4.18077e-08
-4.49533e-08
-3.86199e-07
4.5053e-08
4.90089e-08
-5.41207e-08
-3.98675e-07
4.5403e-08
4.69403e-08
-5.26217e-08
-4.0928e-07
4.05492e-08
4.38985e-08
-4.96906e-08
-4.1646e-07
2.95871e-08
3.65924e-08
-4.14339e-08
-4.1966e-07
1.83965e-08
3.06746e-08
-3.4639e-08
-4.19925e-07
9.48464e-09
2.59642e-08
-2.91085e-08
-4.18768e-07
5.42759e-09
2.37654e-08
-2.66283e-08
-4.17785e-07
7.07742e-09
2.64835e-08
-2.95186e-08
-4.18173e-07
1.21786e-08
3.12548e-08
-3.44285e-08
-4.20265e-07
2.15663e-08
3.88048e-08
-4.35876e-08
-4.25205e-07
3.33929e-08
4.68352e-08
-5.30543e-08
-4.33318e-07
4.67185e-08
5.57599e-08
-6.36885e-08
-4.44878e-07
6.03163e-08
6.26055e-08
-7.21907e-08
-4.59033e-07
7.16906e-08
6.66267e-08
-7.80087e-08
-4.74556e-07
7.79156e-08
6.6771e-08
-7.92505e-08
-4.89902e-07
7.87019e-08
6.38058e-08
-7.67698e-08
-5.03995e-07
7.50889e-08
5.74952e-08
-7.03155e-08
-5.15993e-07
6.81315e-08
4.90803e-08
-6.12479e-08
-5.25058e-07
5.67567e-08
3.99113e-08
-4.99754e-08
-5.31173e-07
4.46167e-08
3.16056e-08
-3.90532e-08
-5.35222e-07
3.43011e-08
2.55536e-08
-3.05655e-08
-5.37796e-07
2.56468e-08
2.18996e-08
-2.49058e-08
-5.39013e-07
1.832e-08
2.11914e-08
-2.2337e-08
-5.39534e-07
1.41399e-08
2.40865e-08
-2.36644e-08
-5.40224e-07
1.49225e-08
3.03164e-08
-2.90176e-08
-5.42242e-07
2.37596e-08
3.89346e-08
-3.84611e-08
-5.47509e-07
4.42195e-08
4.96322e-08
-5.2485e-08
-5.57747e-07
7.6036e-08
6.04912e-08
-6.90358e-08
-5.74389e-07
1.18932e-07
7.073e-08
-8.74215e-08
-5.99601e-07
1.7292e-07
7.87376e-08
-1.05176e-07
-6.34768e-07
2.34952e-07
8.09628e-08
-1.19078e-07
-6.79298e-07
2.97629e-07
7.4455e-08
-1.24867e-07
-7.30795e-07
3.519e-07
5.5873e-08
-1.17736e-07
-7.86075e-07
3.84305e-07
2.54528e-08
-9.43127e-08
-8.44584e-07
3.77415e-07
-1.62468e-08
-4.53102e-08
-8.97547e-07
3.097e-07
-7.74883e-08
3.57803e-08
-9.3794e-07
1.68951e-07
-1.65589e-07
1.59317e-07
-9.60441e-07
-6.69997e-08
-3.25157e-07
3.67689e-07
-9.01691e-07
-4.59966e-07
-5.94329e-07
6.75044e-07
-6.72974e-07
-9.13837e-07
-8.84672e-07
9.73035e-07
-3.33444e-07
-1.09383e-06
-9.29343e-07
1.02076e-06
-1.58024e-07
-7.69101e-07
-7.25225e-07
8.38262e-07
-6.49704e-08
-5.31485e-07
-5.70517e-07
6.68227e-07
-2.0397e-08
-3.52067e-07
-4.32681e-07
5.11556e-07
1.68484e-09
-2.36326e-07
-3.29807e-07
3.89385e-07
9.91845e-09
-1.58618e-07
-2.48147e-07
2.94124e-07
1.22006e-08
-1.10392e-07
-1.91692e-07
2.26777e-07
1.03087e-08
-7.72239e-08
-1.47222e-07
1.7495e-07
7.53755e-09
-5.82308e-08
-1.20149e-07
1.42452e-07
3.77716e-09
-4.62897e-08
-1.01148e-07
1.2023e-07
-4.07101e-08
-9.22193e-08
1.09547e-07
-2.68723e-07
2.83857e-07
1.29377e-07
-5.02496e-09
-3.87987e-07
2.75406e-07
1.35763e-07
-1.12274e-07
-4.35461e-07
1.62664e-07
4.08692e-08
-4.79927e-08
-4.2135e-07
2.70367e-08
-2.68417e-08
4.31414e-09
-4.0011e-07
-2.20831e-08
-4.7334e-08
3.13417e-08
-3.87572e-07
-1.91884e-08
-1.82542e-08
8.70994e-09
-3.89568e-07
1.22005e-08
6.20382e-09
-1.17467e-08
-3.98424e-07
3.70424e-08
3.38101e-08
-3.9202e-08
-4.12233e-07
5.73331e-08
4.4648e-08
-5.1641e-08
-4.27522e-07
6.87647e-08
5.24309e-08
-6.08536e-08
-4.42015e-07
6.89224e-08
5.04516e-08
-5.94773e-08
-4.5378e-07
6.11382e-08
4.60272e-08
-5.48513e-08
-4.61499e-07
4.47506e-08
3.72787e-08
-4.47235e-08
-4.63952e-07
2.65595e-08
2.97227e-08
-3.54323e-08
-4.62395e-07
1.19718e-08
2.4458e-08
-2.85028e-08
-4.5944e-07
4.96396e-09
2.2947e-08
-2.54376e-08
-4.57236e-07
6.82406e-09
2.74257e-08
-2.93766e-08
-4.56249e-07
1.38725e-08
3.30046e-08
-3.56858e-08
-4.56966e-07
2.70852e-08
4.18963e-08
-4.66977e-08
-4.60815e-07
4.46472e-08
5.11873e-08
-5.85926e-08
-4.68251e-07
6.42168e-08
6.14685e-08
-7.15313e-08
-4.7962e-07
8.44758e-08
6.98023e-08
-8.25926e-08
-4.94122e-07
1.01678e-07
7.51745e-08
-9.06595e-08
-5.1032e-07
1.11559e-07
7.60313e-08
-9.34764e-08
-5.26117e-07
1.12747e-07
7.35044e-08
-9.17528e-08
-5.39824e-07
1.06606e-07
6.77117e-08
-8.55208e-08
-5.50935e-07
9.59941e-08
5.96882e-08
-7.64402e-08
-5.58904e-07
7.84211e-08
5.11068e-08
-6.48023e-08
-5.63564e-07
5.8385e-08
4.40221e-08
-5.31307e-08
-5.66093e-07
4.04966e-08
3.94621e-08
-4.31282e-08
-5.67133e-07
2.5712e-08
3.7237e-08
-3.62621e-08
-5.66851e-07
1.24929e-08
3.85156e-08
-3.2971e-08
-5.65544e-07
3.00519e-09
4.40447e-08
-3.42169e-08
-5.63895e-07
-6.09222e-11
5.36478e-08
-4.03128e-08
-5.63079e-07
8.56334e-09
6.60849e-08
-5.17054e-08
-5.64653e-07
3.45717e-08
8.06956e-08
-6.94731e-08
-5.69985e-07
7.73723e-08
9.56648e-08
-9.16694e-08
-5.79941e-07
1.34996e-07
1.1151e-07
-1.17618e-07
-5.96229e-07
2.07306e-07
1.27354e-07
-1.45452e-07
-6.18873e-07
2.89646e-07
1.40472e-07
-1.72522e-07
-6.44192e-07
3.70616e-07
1.45862e-07
-1.93529e-07
-6.66437e-07
4.36066e-07
1.40307e-07
-2.02228e-07
-6.80886e-07
4.69016e-07
1.19704e-07
-1.89966e-07
-6.89691e-07
4.51825e-07
8.27702e-08
-1.48376e-07
-6.95667e-07
3.54393e-07
1.99665e-08
-5.86838e-08
-7.06992e-07
1.86024e-07
-7.98697e-08
7.41215e-08
-7.61106e-07
-6.6874e-08
-2.30947e-07
2.84935e-07
-8.37387e-07
-5.20964e-07
-5.03044e-07
6.40323e-07
-7.24939e-07
-1.1648e-06
-8.85683e-07
1.0242e-06
-3.42406e-07
-1.56719e-06
-1.10001e-06
1.19083e-06
-1.27826e-07
-1.11567e-06
-7.95424e-07
9.27416e-07
-4.00556e-08
-7.32932e-07
-6.02512e-07
7.16189e-07
-2.34561e-09
-4.77686e-07
-4.4795e-07
5.35859e-07
1.5561e-08
-3.17988e-07
-3.38436e-07
4.02191e-07
1.91737e-08
-2.10446e-07
-2.52414e-07
3.0063e-07
1.82361e-08
-1.45483e-07
-1.94189e-07
2.30218e-07
1.42081e-08
-1.00967e-07
-1.48677e-07
1.76449e-07
9.82813e-09
-7.58985e-08
-1.21193e-07
1.43241e-07
4.85521e-09
-5.99483e-08
-1.01935e-07
1.20567e-07
-5.26779e-08
-9.28924e-08
1.09716e-07
-3.08896e-07
4.32032e-07
2.27186e-07
-6.64648e-08
-4.61477e-07
3.86759e-07
2.0112e-07
-1.59892e-07
-5.17394e-07
2.37508e-07
4.6429e-08
-6.53566e-08
-4.86838e-07
4.95788e-08
-6.8995e-08
1.58971e-08
-4.49433e-07
-1.53965e-08
-8.88973e-08
4.48059e-08
-4.30434e-07
-1.14565e-08
-4.49536e-08
1.82228e-08
-4.31288e-07
3.06111e-08
-5.43643e-09
-1.21207e-08
-4.41398e-07
6.07149e-08
3.03335e-08
-4.3896e-08
-4.56959e-07
8.72611e-08
4.58762e-08
-6.0243e-08
-4.74646e-07
1.02155e-07
5.58319e-08
-7.15344e-08
-4.91517e-07
1.01478e-07
5.49475e-08
-7.06328e-08
-5.03883e-07
8.83922e-08
4.95115e-08
-6.43986e-08
-5.11557e-07
6.50525e-08
4.0532e-08
-5.31606e-08
-5.12469e-07
3.72186e-08
3.1086e-08
-4.08332e-08
-5.08173e-07
1.49372e-08
2.53916e-08
-3.26531e-08
-5.02535e-07
6.1726e-09
2.33779e-08
-3.02238e-08
-4.97154e-07
7.26936e-09
2.8757e-08
-3.45831e-08
-4.92422e-07
1.39698e-08
3.76108e-08
-4.24405e-08
-4.89084e-07
2.80732e-08
5.13939e-08
-5.57202e-08
-4.89026e-07
5.04538e-08
6.47176e-08
-7.05819e-08
-4.92626e-07
7.57165e-08
7.83143e-08
-8.62137e-08
-4.99804e-07
1.01854e-07
8.9967e-08
-1.00168e-07
-5.09944e-07
1.24915e-07
9.78477e-08
-1.10946e-07
-5.21262e-07
1.38018e-07
1.00726e-07
-1.15868e-07
-5.31163e-07
1.38061e-07
9.98403e-08
-1.15254e-07
-5.3711e-07
1.25872e-07
9.5804e-08
-1.09123e-07
-5.39421e-07
1.08751e-07
8.88608e-08
-9.93067e-08
-5.38271e-07
8.18836e-08
8.10384e-08
-8.56513e-08
-5.3422e-07
5.07118e-08
7.52496e-08
-7.16264e-08
-5.29924e-07
2.28634e-08
7.2597e-08
-5.92601e-08
-5.2689e-07
-5.40869e-10
7.22217e-08
-4.90028e-08
-5.24924e-07
-2.11476e-08
7.55917e-08
-4.39176e-08
-5.22987e-07
-3.98866e-08
8.45435e-08
-4.35888e-08
-5.21545e-07
-5.12263e-08
9.92298e-08
-4.95061e-08
-5.20929e-07
-4.7988e-08
1.18664e-07
-6.27296e-08
-5.20593e-07
-2.30201e-08
1.43203e-07
-8.59468e-08
-5.19851e-07
2.3727e-08
1.70069e-07
-1.17166e-07
-5.18533e-07
9.06838e-08
1.98182e-07
-1.55187e-07
-5.15266e-07
1.74973e-07
2.26991e-07
-1.97925e-07
-5.06115e-07
2.68936e-07
2.5148e-07
-2.39921e-07
-4.82145e-07
3.58049e-07
2.63215e-07
-2.74618e-07
-4.30042e-07
4.25833e-07
2.56188e-07
-2.98058e-07
-3.42829e-07
4.60487e-07
2.19371e-07
-2.98054e-07
-2.39643e-07
4.44258e-07
1.67442e-07
-2.63061e-07
-1.47012e-07
3.45482e-07
8.18486e-08
-1.65568e-07
-1.08844e-07
1.72788e-07
-1.74582e-08
-7.47308e-09
-1.68393e-07
-3.86103e-08
-1.422e-07
1.73485e-07
-4.10742e-07
-4.33913e-07
-3.56392e-07
5.1169e-07
-5.78041e-07
-1.21776e-06
-8.01539e-07
1.02179e-06
-3.49351e-07
-1.90493e-06
-1.23731e-06
1.34637e-06
-7.38934e-08
-1.53152e-06
-9.10309e-07
1.0507e-06
4.86939e-10
-9.30765e-07
-6.50978e-07
7.74431e-07
3.0175e-08
-5.97981e-07
-4.75154e-07
5.6576e-07
3.66767e-08
-3.90084e-07
-3.52737e-07
4.18331e-07
3.32389e-08
-2.55154e-07
-2.60605e-07
3.08751e-07
2.73453e-08
-1.74907e-07
-1.99289e-07
2.34607e-07
2.00627e-08
-1.20381e-07
-1.51984e-07
1.7868e-07
1.32692e-08
-8.998e-08
-1.2364e-07
1.44515e-07
6.46331e-09
-7.06237e-08
-1.03868e-07
1.21349e-07
-6.19021e-08
-9.45719e-08
1.10259e-07
-3.8259e-07
5.98756e-07
3.50816e-07
-1.3495e-07
-5.6481e-07
4.84249e-07
2.98412e-07
-2.13683e-07
-6.24119e-07
3.30655e-07
5.90037e-08
-9.28412e-08
-5.66882e-07
9.68459e-08
-1.24133e-07
1.96282e-08
-5.07622e-07
1.00281e-08
-1.35155e-07
5.04712e-08
-4.78827e-07
5.48946e-09
-6.44864e-08
1.87449e-08
-4.77526e-07
5.12648e-08
-1.18817e-09
-2.07666e-08
-4.88476e-07
8.46231e-08
4.33923e-08
-5.63507e-08
-5.05037e-07
1.17135e-07
6.42179e-08
-7.75308e-08
-5.24413e-07
1.36467e-07
7.33981e-08
-8.83339e-08
-5.43419e-07
1.3673e-07
7.13107e-08
-8.75564e-08
-5.55952e-07
1.17041e-07
6.06001e-08
-7.6716e-08
-5.6173e-07
8.55429e-08
4.75857e-08
-6.22985e-08
-5.58727e-07
4.57785e-08
3.35584e-08
-4.51211e-08
-5.47466e-07
1.28201e-08
2.55841e-08
-3.47279e-08
-5.33262e-07
-1.20179e-09
2.57292e-08
-3.2559e-08
-5.18949e-07
-4.94133e-09
3.7899e-08
-4.00017e-08
-5.03895e-07
-4.37135e-09
5.38586e-08
-5.05706e-08
-4.89079e-07
6.19405e-09
7.3071e-08
-6.60079e-08
-4.75476e-07
3.22071e-08
8.82075e-08
-8.35646e-08
-4.62959e-07
6.40198e-08
1.02756e-07
-1.03576e-07
-4.50117e-07
9.68684e-08
1.13657e-07
-1.21514e-07
-4.36506e-07
1.25758e-07
1.20937e-07
-1.35391e-07
-4.20612e-07
1.40657e-07
1.23456e-07
-1.41989e-07
-3.99009e-07
1.34977e-07
1.22069e-07
-1.40588e-07
-3.69702e-07
1.1292e-07
1.15676e-07
-1.32031e-07
-3.34119e-07
8.73596e-08
1.04713e-07
-1.18905e-07
-2.97626e-07
5.2893e-08
9.20224e-08
-9.95244e-08
-2.64659e-07
1.37868e-08
8.2064e-08
-7.81062e-08
-2.38589e-07
-1.95548e-08
7.62641e-08
-5.99155e-08
-2.21033e-07
-4.52553e-08
7.18378e-08
-4.46794e-08
-2.10832e-07
-6.92533e-08
6.94236e-08
-3.15188e-08
-2.08654e-07
-9.00473e-08
7.04589e-08
-2.24768e-08
-2.13637e-07
-1.01723e-07
7.882e-08
-2.33399e-08
-2.2301e-07
-1.00418e-07
9.70139e-08
-3.52118e-08
-2.29942e-07
-8.38597e-08
1.29815e-07
-6.20434e-08
-2.27139e-07
-5.03315e-08
1.72376e-07
-1.01119e-07
-2.08057e-07
-5.60874e-10
2.18032e-07
-1.4587e-07
-1.67748e-07
6.29795e-08
2.63105e-07
-1.91421e-07
-1.0335e-07
1.45103e-07
2.95652e-07
-2.36218e-07
-1.49646e-08
2.39344e-07
3.02995e-07
-2.72675e-07
1.03799e-07
3.18724e-07
2.79964e-07
-2.91619e-07
2.62695e-07
3.60707e-07
2.26718e-07
-2.85833e-07
4.38694e-07
3.43027e-07
1.63389e-07
-2.38157e-07
5.9152e-07
2.57685e-07
6.80378e-08
-1.33068e-07
6.83259e-07
9.56908e-08
-2.92177e-08
1.45758e-08
6.83969e-07
-1.13246e-07
-1.04932e-07
1.78858e-07
5.0086e-07
-4.21686e-07
-2.72641e-07
4.43522e-07
5.72029e-08
-9.79429e-07
-6.68309e-07
8.73636e-07
-2.0217e-07
-1.82632e-06
-1.20773e-06
1.38849e-06
9.82042e-09
-1.92511e-06
-1.03027e-06
1.21188e-06
7.62027e-08
-1.11611e-06
-7.20149e-07
8.3911e-07
7.77898e-08
-6.8885e-07
-5.10601e-07
5.99884e-07
6.7323e-08
-4.42284e-07
-3.73233e-07
4.35899e-07
5.33459e-08
-2.85927e-07
-2.72883e-07
3.17633e-07
4.02796e-08
-1.93955e-07
-2.07158e-07
2.39273e-07
2.83086e-08
-1.32262e-07
-1.57206e-07
1.81058e-07
1.80999e-08
-9.80224e-08
-1.27492e-07
1.45743e-07
8.70544e-09
-7.63877e-08
-1.06898e-07
1.22057e-07
-6.6684e-08
-9.72328e-08
1.1072e-07
-4.57394e-07
6.88952e-07
6.38108e-07
-2.7091e-07
-6.92986e-07
5.32782e-07
4.73585e-07
-2.86525e-07
-7.63233e-07
4.27155e-07
1.07934e-07
-1.34187e-07
-6.69042e-07
2.16248e-07
-2.40296e-07
2.67019e-08
-5.73814e-07
9.61796e-08
-2.42354e-07
6.0975e-08
-5.27559e-07
5.69845e-08
-1.22912e-07
2.5162e-08
-5.1822e-07
9.25215e-08
-2.41494e-08
-2.64462e-08
-5.24884e-07
1.19077e-07
3.98462e-08
-6.76362e-08
-5.3708e-07
1.5324e-07
6.99649e-08
-9.38737e-08
-5.52994e-07
1.75557e-07
8.62838e-08
-1.09461e-07
-5.67021e-07
1.73273e-07
9.03125e-08
-1.12828e-07
-5.70609e-07
1.39579e-07
8.3017e-08
-1.01967e-07
-5.62007e-07
9.1166e-08
7.11315e-08
-8.53569e-08
-5.42709e-07
2.92365e-08
5.93464e-08
-6.21023e-08
-5.13746e-07
-1.83288e-08
4.76897e-08
-4.55043e-08
-4.81983e-07
-3.53776e-08
4.55757e-08
-4.31629e-08
-4.50967e-07
-4.48804e-08
5.93755e-08
-5.04524e-08
-4.16201e-07
-5.86897e-08
8.07348e-08
-6.1182e-08
-3.74667e-07
-6.00756e-08
1.01214e-07
-7.64788e-08
-3.28485e-07
-3.45987e-08
1.18644e-07
-9.80207e-08
-2.80448e-07
3.26786e-09
1.3671e-07
-1.23994e-07
-2.28759e-07
3.98455e-08
1.53653e-07
-1.48319e-07
-1.68927e-07
7.05423e-08
1.61363e-07
-1.65979e-07
-9.94669e-08
8.96176e-08
1.53262e-07
-1.71684e-07
-2.40355e-08
8.97678e-08
1.35453e-07
-1.65676e-07
4.92735e-08
7.17229e-08
1.21997e-07
-1.54109e-07
1.26196e-07
4.14016e-08
1.10686e-07
-1.41651e-07
2.05733e-07
2.58819e-09
9.25729e-08
-1.21805e-07
2.82082e-07
-4.1422e-08
7.68995e-08
-9.80396e-08
3.43895e-07
-7.40721e-08
6.99717e-08
-7.72676e-08
3.87039e-07
-9.58675e-08
6.62597e-08
-5.87914e-08
4.10123e-07
-1.17127e-07
6.68321e-08
-4.20421e-08
4.12304e-07
-1.37546e-07
7.3389e-08
-2.8071e-08
4.0178e-07
-1.54202e-07
8.51236e-08
-2.21201e-08
3.90527e-07
-1.63468e-07
1.00772e-07
-2.64694e-08
3.90024e-07
-1.64886e-07
1.24243e-07
-4.27128e-08
4.1146e-07
-1.58253e-07
1.58409e-07
-7.19238e-08
4.60356e-07
-1.35334e-07
1.96755e-07
-1.10877e-07
5.33366e-07
-8.79671e-08
2.31844e-07
-1.53907e-07
6.26015e-07
-8.31253e-10
2.51011e-07
-1.97725e-07
7.25299e-07
1.36068e-07
2.44293e-07
-2.40301e-07
8.49279e-07
2.3593e-07
2.29283e-07
-2.70469e-07
1.05169e-06
2.23113e-07
2.06181e-07
-2.70993e-07
1.26618e-06
1.62901e-07
1.93063e-07
-2.27432e-07
1.46455e-06
1.1745e-07
8.62565e-08
-1.44388e-07
1.6269e-06
-2.6764e-08
-2.02583e-08
-1.9641e-08
1.67811e-06
-2.17503e-07
-8.29445e-08
1.35993e-07
1.56705e-06
-4.39608e-07
-1.87255e-07
3.16239e-07
1.11674e-06
-7.59413e-07
-4.00712e-07
6.31008e-07
4.64271e-07
-1.46042e-06
-8.63597e-07
1.15016e-06
2.1699e-07
-1.94088e-06
-1.10721e-06
1.37026e-06
1.90899e-07
-1.19467e-06
-8.07229e-07
9.11882e-07
1.48206e-07
-7.18858e-07
-5.61272e-07
6.33972e-07
1.12035e-07
-4.54551e-07
-4.05212e-07
4.5365e-07
8.26255e-08
-2.89638e-07
-2.93558e-07
3.26678e-07
5.9197e-08
-1.93413e-07
-2.21231e-07
2.44117e-07
4.03696e-08
-1.30037e-07
-1.67101e-07
1.83704e-07
2.52268e-08
-9.50109e-08
-1.35076e-07
1.47208e-07
1.19717e-08
-7.30634e-08
-1.13022e-07
1.22953e-07
-6.33533e-08
-1.02692e-07
1.11333e-07
-6.35723e-07
6.62599e-07
1.03607e-06
-3.73996e-07
-8.47951e-07
2.63552e-07
8.62217e-07
-3.80759e-07
-8.43352e-07
5.5451e-07
7.88687e-08
-2.10821e-07
-6.97826e-07
4.46021e-07
-4.06151e-07
3.08526e-08
-5.39099e-07
3.31902e-07
-4.59427e-07
6.49775e-08
-4.51073e-07
1.85662e-07
-2.31919e-07
1.52158e-08
-4.06988e-07
1.42995e-07
-4.92874e-08
-4.52708e-08
-3.82055e-07
1.3461e-07
4.96883e-08
-9.0154e-08
-3.61879e-07
1.57227e-07
9.2685e-08
-1.16848e-07
-3.44064e-07
1.83192e-07
1.06934e-07
-1.32384e-07
-3.22039e-07
1.8262e-07
9.67845e-08
-1.28156e-07
-2.83338e-07
1.40423e-07
6.44458e-08
-1.03991e-07
-2.25987e-07
8.5342e-08
1.92164e-08
-7.07435e-08
-1.66967e-07
2.27829e-08
-1.97392e-08
-3.28269e-08
-1.17526e-07
-1.14761e-08
-5.13758e-08
-4.91768e-09
-5.95909e-08
-4.2382e-08
-4.88701e-08
-2.06066e-09
6.88732e-09
-7.95539e-08
-1.08745e-08
-2.09302e-08
7.98337e-08
-1.19448e-07
3.02058e-08
-4.2394e-08
1.60367e-07
-1.53207e-07
7.71708e-08
-6.45723e-08
2.43907e-07
-1.51133e-07
1.26462e-07
-9.34671e-08
3.27453e-07
-1.16556e-07
1.60802e-07
-1.24525e-07
4.11747e-07
-7.02188e-08
1.81539e-07
-1.55768e-07
5.05957e-07
-3.97165e-08
1.96037e-07
-1.79989e-07
6.18835e-07
-2.50794e-08
1.9613e-07
-1.9431e-07
7.47834e-07
-2.53776e-08
1.81331e-07
-1.95186e-07
8.8182e-07
-3.31827e-08
1.52186e-07
-1.81266e-07
1.01091e-06
-4.77061e-08
1.18673e-07
-1.58659e-07
1.13113e-06
-7.49236e-08
8.90394e-08
-1.31742e-07
1.23244e-06
-1.04709e-07
6.87408e-08
-1.06768e-07
1.30367e-06
-1.15856e-07
5.76077e-08
-8.7053e-08
1.34413e-06
-1.13159e-07
5.04917e-08
-7.36547e-08
1.35795e-06
-1.11517e-07
4.32875e-08
-6.27204e-08
1.34849e-06
-1.14747e-07
3.95583e-08
-5.29026e-08
1.3216e-06
-1.22984e-07
3.92926e-08
-4.36133e-08
1.29348e-06
-1.3506e-07
4.22047e-08
-4.25003e-08
1.27879e-06
-1.56706e-07
6.07155e-08
-5.4199e-08
1.2872e-06
-1.91282e-07
1.04735e-07
-8.01168e-08
1.32167e-06
-2.17509e-07
1.65923e-07
-1.18223e-07
1.38881e-06
-2.22488e-07
2.34606e-07
-1.67227e-07
1.49485e-06
-1.69287e-07
2.85683e-07
-2.23264e-07
1.61772e-06
-1.60025e-09
2.81643e-07
-2.66848e-07
1.73299e-06
1.53972e-07
2.51488e-07
-2.84794e-07
1.85695e-06
1.63737e-07
1.79301e-07
-2.43889e-07
2.15236e-06
-5.46534e-09
6.73789e-08
-1.94418e-07
2.47621e-06
-1.05083e-07
4.96772e-08
-1.51e-07
2.617e-06
-1.34481e-07
2.19448e-09
-3.52602e-08
2.61636e-06
-2.19873e-07
-8.6151e-08
8.91557e-08
2.47782e-06
-3.47156e-07
-1.7698e-07
2.23065e-07
2.06434e-06
-5.29625e-07
-3.01365e-07
4.85057e-07
1.19793e-06
-1.03063e-06
-6.53562e-07
1.09019e-06
5.66718e-07
-1.58751e-06
-1.16288e-06
1.44071e-06
3.81001e-07
-1.07899e-06
-9.04698e-07
9.74733e-07
2.68046e-07
-6.37515e-07
-6.31008e-07
6.62619e-07
1.90133e-07
-3.89282e-07
-4.55106e-07
4.6775e-07
1.34707e-07
-2.38454e-07
-3.29208e-07
3.3345e-07
9.35048e-08
-1.51912e-07
-2.47544e-07
2.47246e-07
6.24878e-08
-9.71809e-08
-1.86868e-07
1.85029e-07
3.83199e-08
-6.7453e-08
-1.50978e-07
1.47588e-07
1.80267e-08
-4.93655e-08
-1.2633e-07
1.22925e-07
-4.16514e-08
-1.14806e-07
1.11131e-07
-5.56224e-07
4.22924e-07
1.88142e-06
-1.08552e-06
-6.82378e-07
2.37729e-07
5.67147e-07
-4.15171e-07
-5.27296e-07
3.95874e-07
1.54758e-07
-1.51203e-07
-2.62302e-07
2.51096e-07
-8.5168e-08
1.50979e-08
-4.15326e-08
1.63757e-07
-1.01861e-07
4.92368e-08
1.26134e-07
5.10977e-08
-6.67422e-08
3.36398e-08
2.91366e-07
5.9178e-09
-2.54254e-08
-2.72991e-09
4.4002e-07
1.8973e-08
-4.01804e-09
-2.89993e-08
5.79678e-07
6.72419e-08
2.19543e-10
-4.98918e-08
7.40091e-07
8.80576e-08
2.2801e-10
-6.5507e-08
9.20587e-07
7.55031e-08
-2.65449e-09
-7.07248e-08
1.07497e-06
5.9519e-08
-9.17821e-09
-6.43021e-08
1.16433e-06
5.90285e-08
-9.9659e-09
-5.3082e-08
1.18221e-06
5.0061e-08
-8.34286e-09
-3.68125e-08
1.14198e-06
5.51775e-08
-5.09476e-09
-2.13262e-08
1.07601e-06
5.04629e-08
-2.22263e-09
-2.4652e-08
1.03033e-06
6.57341e-09
-1.15859e-09
-3.92965e-08
1.04164e-06
-7.84398e-08
-5.78797e-10
-5.17397e-08
1.10519e-06
-1.59009e-07
2.69563e-09
-6.04434e-08
1.20617e-06
-1.90061e-07
1.06032e-08
-7.2647e-08
1.32582e-06
-1.67807e-07
2.00072e-08
-8.84066e-08
1.45796e-06
-1.21204e-07
2.68952e-08
-1.08056e-07
1.60797e-06
-8.81437e-08
2.65797e-08
-1.28161e-07
1.77695e-06
-7.92985e-08
2.2299e-08
-1.37062e-07
1.94982e-06
-7.73284e-08
1.5138e-08
-1.36057e-07
2.10838e-06
-7.11487e-08
5.24501e-09
-1.25835e-07
2.23734e-06
-6.19268e-08
2.00737e-09
-1.16751e-07
2.32677e-06
-6.07353e-08
3.81863e-09
-1.07429e-07
2.38011e-06
-6.56071e-08
2.89052e-09
-9.53376e-08
2.41077e-06
-6.55037e-08
2.31326e-09
-8.33281e-08
2.42957e-06
-6.14807e-08
3.03189e-09
-7.35033e-08
2.43743e-06
-5.75839e-08
1.38819e-09
-6.31862e-08
2.43281e-06
-5.35874e-08
-5.61953e-10
-5.59723e-08
2.40866e-06
-4.46731e-08
7.46665e-10
-5.49077e-08
2.37434e-06
-4.5135e-08
3.32547e-09
-5.89361e-08
2.35244e-06
-7.02088e-08
4.87034e-09
-6.94657e-08
2.35061e-06
-1.12549e-07
5.65606e-09
-8.25519e-08
2.36232e-06
-1.3408e-07
5.67562e-09
-1.00817e-07
2.38052e-06
-1.28141e-07
1.04718e-08
-1.23017e-07
2.41613e-06
-7.47662e-08
2.24847e-08
-1.52616e-07
2.49776e-06
6.0963e-08
4.88967e-08
-1.93097e-07
2.67804e-06
1.49955e-07
6.19853e-08
-2.38247e-07
2.92422e-06
9.42738e-08
3.54748e-08
-2.12189e-07
3.03846e-06
-6.90196e-09
-3.13907e-09
-1.09662e-07
3.01442e-06
-5.31246e-08
-1.89739e-08
-8.94143e-09
2.90427e-06
-3.17223e-08
-4.45454e-08
5.19305e-08
2.77666e-06
-5.09753e-08
-1.48797e-07
1.0751e-07
2.59957e-06
-1.03938e-07
-2.60428e-07
1.943e-07
2.24926e-06
-1.82973e-07
-4.12425e-07
4.16084e-07
1.44563e-06
-3.86464e-07
-9.3348e-07
1.09294e-06
7.98927e-07
-4.76977e-07
-1.97126e-06
1.50743e-06
5.1043e-07
-2.99173e-07
-1.53174e-06
1.04042e-06
3.35821e-07
-1.53106e-07
-1.00937e-06
6.99574e-07
2.26274e-07
-7.82663e-08
-6.89737e-07
4.88269e-07
1.54484e-07
-3.62916e-08
-4.75288e-07
3.44915e-07
1.04401e-07
-1.3982e-08
-3.41601e-07
2.53754e-07
6.85193e-08
-1.86416e-09
-2.48213e-07
1.88778e-07
4.14549e-08
3.82422e-09
-1.94133e-07
1.4992e-07
1.94343e-08
6.70566e-09
-1.58506e-07
1.24455e-07
7.64901e-09
-1.42215e-07
1.12349e-07
-2.90399e-07
2.76479e-07
1.67493e-06
-1.23809e-06
-3.82495e-07
3.22853e-07
5.36967e-07
-5.29995e-07
-2.82314e-07
3.36643e-07
2.26659e-07
-2.67609e-07
-2.42192e-08
6.76526e-08
8.10985e-08
-1.55751e-07
2.63934e-07
-5.93194e-08
-2.08481e-08
-4.42284e-08
4.9602e-07
-1.32844e-07
-2.70014e-08
-2.11437e-08
6.76886e-07
-1.31946e-07
-5.73952e-09
-3.72616e-08
8.37038e-07
-9.30466e-08
1.74983e-09
-4.98823e-08
1.00993e-06
-4.38793e-08
-6.17403e-10
-6.11588e-08
1.17407e-06
-2.67641e-09
-8.27648e-09
-6.51217e-08
1.29799e-06
2.71484e-08
-1.10137e-08
-6.45544e-08
1.38319e-06
4.1649e-08
-1.10325e-08
-5.62973e-08
1.43946e-06
5.05128e-08
-9.09858e-09
-3.8657e-08
1.46638e-06
5.09323e-08
-8.8648e-09
-1.89287e-08
1.47407e-06
5.62142e-08
-7.77843e-09
-9.43308e-10
1.462e-06
6.13027e-08
-6.47651e-09
7.70396e-09
1.40891e-06
5.5861e-08
-7.00515e-09
1.08083e-08
1.31676e-06
1.88865e-08
-5.49609e-09
3.2248e-10
1.21736e-06
-4.05588e-08
-8.61604e-10
-1.81925e-08
1.16241e-06
-1.00932e-07
9.4304e-09
-4.36044e-08
1.16896e-06
-1.26425e-07
1.7188e-08
-6.51251e-08
1.22895e-06
-1.17118e-07
1.64437e-08
-8.05197e-08
1.32441e-06
-9.65831e-08
1.12807e-08
-9.82967e-08
1.43161e-06
-8.61294e-08
5.34053e-09
-1.05709e-07
1.54409e-06
-8.30679e-08
-1.70673e-09
-1.05042e-07
1.64515e-06
-6.63889e-08
-8.9084e-09
-9.69108e-08
1.71991e-06
-4.35719e-08
-6.77568e-09
-8.63357e-08
1.76453e-06
-2.94504e-08
-2.62066e-09
-7.32857e-08
1.78954e-06
-2.7318e-08
-1.19361e-09
-6.21048e-08
1.80806e-06
-2.99679e-08
-1.98013e-09
-5.20759e-08
1.82473e-06
-3.26056e-08
-2.97277e-09
-4.25751e-08
1.83664e-06
-3.49111e-08
-2.74696e-09
-3.18345e-08
1.84144e-06
-3.47026e-08
-1.8813e-09
-2.18047e-08
1.84168e-06
-3.15937e-08
-9.58798e-10
-1.23592e-08
1.83465e-06
-3.10818e-08
-3.88964e-10
-6.63184e-09
1.81006e-06
-3.74711e-08
-3.06025e-10
-7.8414e-09
1.7836e-06
-6.63191e-08
2.86158e-10
-2.00564e-08
1.77844e-06
-9.0618e-08
2.6941e-09
-4.09974e-08
1.8037e-06
-9.23842e-08
8.00085e-09
-6.90158e-08
1.90314e-06
-8.29199e-08
1.14289e-08
-1.02715e-07
2.10411e-06
-6.44783e-09
1.14204e-08
-1.44983e-07
2.3291e-06
7.63087e-08
2.91537e-09
-1.54255e-07
2.44507e-06
7.20503e-08
-3.2583e-09
-9.0488e-08
2.38291e-06
4.64828e-08
6.29923e-09
2.47621e-09
2.18908e-06
6.97815e-08
2.20697e-08
4.88551e-08
2.04208e-06
3.2845e-08
-2.90287e-08
1.1146e-07
1.94074e-06
1.72998e-08
-1.01941e-07
1.34999e-07
1.81005e-06
1.19958e-09
-1.87061e-07
2.12613e-07
1.55872e-06