/*--------------------------------*- C++ -*----------------------------------*\
| =========                 |                                                 |
| \\      /  F ield         | OpenFOAM: The Open Source CFD Toolbox           |
|  \\    /   O peration     | Version:  2.1.1                                 |
|   \\  /    A nd           | Web:      www.OpenFOAM.org                      |
|    \\/     M anipulation  |                                                 |
\*---------------------------------------------------------------------------*/
FoamFile
{
    version     2.0;
    format      ascii;
    class       volSymmTensorField;
    location    "0.0011";
    object      R;
}
// * * * * * * * * * * * * * * * * * * * * * * * * * * * * * * * * * * * * * //

dimensions      [0 2 -2 0 0 0 0];

internalField   nonuniform List<symmTensor> 
36520
(
(0.0791638 0.0038637 0.0216643 0.0246681 0.00565386 0.031894)
(0.14983 -0.0155451 0.0365064 0.0510285 -0.00109847 0.0479922)
(0.235364 -0.014431 0.0676521 0.0839132 -0.00283889 0.0802249)
(0.250861 -0.0184567 0.0785066 0.0946426 -0.00639576 0.0905349)
(0.277011 -0.0183393 0.0885428 0.104477 -0.00709895 0.10128)
(0.285555 -0.0194683 0.0927576 0.108543 -0.00857043 0.105686)
(0.297434 -0.0194364 0.0967481 0.112501 -0.00888941 0.109791)
(0.302106 -0.0194282 0.0987246 0.114272 -0.00929793 0.111585)
(0.303585 -0.0186571 0.0994892 0.114483 -0.00894498 0.111922)
(0.301257 -0.0180704 0.0991386 0.113349 -0.00865297 0.111015)
(0.294391 -0.0171208 0.0972298 0.110603 -0.007975 0.108403)
(0.285454 -0.0166242 0.0945468 0.107048 -0.00754557 0.105053)
(0.27372 -0.0159668 0.0907768 0.10252 -0.00703489 0.100581)
(0.261163 -0.0156162 0.0865196 0.0976405 -0.00677307 0.095613)
(0.247644 -0.0152321 0.0817696 0.0924279 -0.00659939 0.0901688)
(0.234669 -0.0148438 0.07709 0.0873032 -0.00653035 0.0847768)
(0.221281 -0.0142757 0.0722531 0.0820361 -0.00647529 0.0792271)
(0.208545 -0.0134891 0.0676601 0.0769323 -0.00635435 0.0739252)
(0.195535 -0.0124551 0.0630678 0.0717464 -0.00612952 0.0686221)
(0.182692 -0.0111638 0.0586551 0.0666069 -0.00574179 0.0634979)
(0.169318 -0.00967693 0.0542055 0.0613391 -0.00520098 0.0583504)
(0.155694 -0.00808362 0.0497973 0.0560509 -0.00452264 0.0532672)
(0.141478 -0.00651917 0.0453094 0.0506641 -0.00376989 0.0481522)
(0.12707 -0.00511767 0.0408163 0.0453082 -0.0030254 0.0431116)
(0.11267 -0.00392881 0.0363226 0.0400439 -0.00235204 0.0381546)
(0.0988226 -0.00296889 0.0319774 0.0350392 -0.00178102 0.0334245)
(0.0857444 -0.002236 0.0278498 0.0303556 -0.0013268 0.0289821)
(0.0737476 -0.00170801 0.0240322 0.0260838 -0.000987171 0.0249175)
(0.0629653 -0.00135005 0.020563 0.0222602 -0.000754361 0.0212552)
(0.0535079 -0.001114 0.0174905 0.0189156 -0.000606561 0.0180319)
(0.0453374 -0.000953817 0.0148108 0.0160335 -0.000517908 0.015235)
(0.0384284 -0.00083288 0.0125198 0.0136017 -0.000466792 0.0128539)
(0.0326757 -0.00072077 0.0105888 0.0115822 -0.000434986 0.0108509)
(0.0279613 -0.000592036 0.00898908 0.00993336 -0.000405834 0.00919272)
(0.0241326 -0.000436494 0.0076778 0.00860296 -0.000370145 0.00783418)
(0.0210383 -0.000250871 0.00661245 0.00753732 -0.000322938 0.00673158)
(0.0185157 -3.60148e-05 0.00574739 0.0066791 -0.00025847 0.00583885)
(0.0164069 0.000197547 0.00503632 0.0059707 -0.000177719 0.00510862)
(0.01457 0.000441283 0.00443963 0.00536047 -8.03253e-05 0.00449852)
(0.0128752 0.000678853 0.00392154 0.00480558 3.16603e-05 0.00397268)
(0.0112106 0.000879963 0.00344602 0.00426681 0.00015023 0.00349698)
(0.00949604 0.00100756 0.00298036 0.00370961 0.000261614 0.0030405)
(0.00772257 0.00103476 0.00250237 0.00312112 0.000350294 0.0025864)
(0.00595037 0.000959894 0.00200197 0.00251376 0.000404207 0.00213195)
(0.00427399 0.000800053 0.00148536 0.00191864 0.000415368 0.00168382)
(0.0029527 0.000605312 0.00102467 0.00143435 0.000398844 0.00131832)
(0.00203361 0.000391789 0.00061449 0.00107077 0.000356841 0.0010516)
(0.00137771 0.000185709 0.000269514 0.000776201 0.000283935 0.000809382)
(0.00059857 4.89799e-05 7.34817e-05 0.000442844 0.00018378 0.000428563)
(0.000151314 9.93586e-06 3.13274e-05 0.000239004 0.000119396 0.000188432)
(0.000108769 -1.3456e-05 4.82295e-06 0.00018573 9.36543e-05 0.000146837)
(0.000107451 -1.38659e-05 1.80554e-06 0.000154695 7.22622e-05 0.000129953)
(0.000111807 -1.89237e-05 -1.25149e-05 0.000135716 5.59876e-05 0.000122009)
(0.000108236 -1.00199e-05 5.61687e-07 0.000122616 4.23386e-05 0.00011516)
(0.000114218 -1.21095e-05 -1.48757e-05 0.000117463 3.25969e-05 0.000114396)
(0.000109414 -4.87381e-06 4.89406e-06 0.000112867 2.49662e-05 0.000111247)
(0.000115797 -6.7669e-06 -1.52714e-05 0.00011286 1.96681e-05 0.000112797)
(0.000111139 -1.42052e-06 1.02207e-05 0.000111065 1.58856e-05 0.00011087)
(0.000117995 -3.57341e-06 -1.63576e-05 0.0001133 1.37533e-05 0.000113737)
(0.000129593 -5.32779e-06 1.78391e-05 0.000126781 1.29749e-05 0.000126845)
(0.0446489 -0.001692 0.00724834 0.0119855 -0.000345687 0.0125135)
(0.0414637 -0.0045793 0.00978201 0.0142034 -0.000995396 0.0131387)
(0.0457374 -0.00321781 0.0127058 0.0165854 -0.00102832 0.0158056)
(0.0388308 -0.00270543 0.0116912 0.0148118 -0.000978299 0.014152)
(0.0358787 -0.00219419 0.0109986 0.013694 -0.000847504 0.0132261)
(0.0330677 -0.00196786 0.0102768 0.0126799 -0.000816327 0.0122935)
(0.0326294 -0.00180064 0.0101642 0.0124537 -0.0007676 0.0120942)
(0.0314967 -0.00168106 0.00987375 0.0120371 -0.000744954 0.0116876)
(0.0304122 -0.00153043 0.00956565 0.0115956 -0.000682586 0.0112661)
(0.0286903 -0.00139952 0.00905854 0.0109421 -0.000626117 0.0106202)
(0.0267968 -0.00126687 0.00847794 0.0102248 -0.000560296 0.00990774)
(0.0248583 -0.00116389 0.0078632 0.00948597 -0.000510324 0.00917278)
(0.0231166 -0.00106826 0.00729157 0.00882386 -0.000466793 0.00849835)
(0.021916 -0.00101346 0.00688108 0.00835729 -0.000445827 0.00801059)
(0.0211103 -0.000972072 0.00658439 0.00803406 -0.000436979 0.0076516)
(0.0206492 -0.000938886 0.00640276 0.00782462 -0.000436417 0.00741093)
(0.0202381 -0.000897891 0.00624045 0.00763271 -0.000436106 0.00718726)
(0.019798 -0.00083476 0.00607753 0.00741994 -0.000426081 0.00695724)
(0.0191319 -0.000751007 0.00585413 0.00712855 -0.000406256 0.00665716)
(0.0181931 -0.000639013 0.00555821 0.00673842 -0.000369619 0.00627605)
(0.0168954 -0.000510916 0.00516179 0.00622984 -0.000320275 0.00578927)
(0.0153272 -0.000377443 0.00468975 0.0056347 -0.000261496 0.00522804)
(0.0134841 -0.000254478 0.00413724 0.00495483 -0.000200436 0.00459275)
(0.0115215 -0.000152843 0.00354301 0.00424121 -0.000143912 0.0039295)
(0.00963108 -7.7316e-05 0.00296102 0.0035605 -9.85525e-05 0.0032959)
(0.0079548 -2.52276e-05 0.00243599 0.00296053 -6.52379e-05 0.0027359)
(0.0065176 8.20411e-06 0.00197832 0.00244786 -4.24924e-05 0.00225659)
(0.00533959 2.82123e-05 0.0015949 0.00202834 -2.78821e-05 0.00186386)
(0.00444324 3.87899e-05 0.00129398 0.00170947 -1.99829e-05 0.00156338)
(0.00379573 4.46042e-05 0.00106727 0.00147908 -1.66621e-05 0.00134472)
(0.00335348 4.88571e-05 0.000901669 0.00132179 -1.6039e-05 0.00119382)
(0.00308431 5.34724e-05 0.000785937 0.00122655 -1.73392e-05 0.00109941)
(0.00296767 5.98755e-05 0.000712573 0.00118629 -2.01143e-05 0.00105402)
(0.00296689 6.97844e-05 0.00066824 0.00118819 -2.37309e-05 0.00104516)
(0.003051 8.46636e-05 0.000640875 0.00122199 -2.78009e-05 0.00106259)
(0.003193 0.000106579 0.000620031 0.0012787 -3.14692e-05 0.00109851)
(0.00336196 0.000136672 0.000593393 0.00134777 -3.36613e-05 0.00114566)
(0.00353871 0.000174593 0.000551122 0.00142189 -3.40632e-05 0.00120151)
(0.00372271 0.000218841 0.000487926 0.00149923 -3.25447e-05 0.00126975)
(0.00391528 0.000264032 0.000397145 0.00157801 -3.01914e-05 0.00135563)
(0.00412853 0.000300477 0.00027294 0.00165795 -2.9351e-05 0.00146654)
(0.00438647 0.000318229 0.000112792 0.00174051 -3.25141e-05 0.00161215)
(0.00473921 0.000312579 -8.09691e-05 0.00183543 -4.13782e-05 0.00180819)
(0.00510612 0.000282771 -0.000283609 0.00190467 -5.11104e-05 0.00202157)
(0.00555225 0.000246366 -0.000458067 0.00197943 -5.67721e-05 0.00226439)
(0.00612123 0.000205214 -0.000590901 0.00208589 -5.42967e-05 0.00254363)
(0.0068651 0.000129021 -0.00069454 0.00225375 -3.51891e-05 0.00286447)
(0.00655708 -7.18801e-06 -0.000646506 0.00211378 3.13725e-05 0.00273551)
(0.00330086 -8.94263e-05 -0.000326927 0.00110449 7.99235e-05 0.00141812)
(0.00039957 -2.92795e-05 -5.09711e-05 0.000147036 1.49917e-05 0.000182177)
(2.42896e-05 -4.08501e-06 -3.35256e-06 1.94013e-05 3.01293e-06 2.44915e-05)
(1.81712e-05 -3.16954e-06 -1.28981e-06 1.86901e-05 2.14965e-06 2.20427e-05)
(2.09344e-05 -2.88799e-06 -1.39855e-06 2.05025e-05 1.59296e-06 2.29747e-05)
(2.19246e-05 -2.28618e-06 -3.24406e-07 2.16155e-05 1.15176e-06 2.32937e-05)
(2.34303e-05 -1.82684e-06 -9.46733e-07 2.24863e-05 8.53817e-07 2.37387e-05)
(2.31994e-05 -1.31284e-06 2.41317e-07 2.28179e-05 6.2233e-07 2.36532e-05)
(2.42045e-05 -9.78408e-07 -8.38598e-07 2.32452e-05 4.87164e-07 2.39221e-05)
(2.35999e-05 -5.97484e-07 6.23914e-07 2.33264e-05 3.72953e-07 2.37908e-05)
(2.77819e-05 -4.75045e-07 -9.57273e-07 2.67879e-05 3.36582e-07 2.72662e-05)
(8.53892e-05 -4.85788e-06 1.41771e-06 8.4442e-05 3.82417e-07 8.54879e-05)
(0.0198347 -0.000563238 0.00142608 0.00482012 -0.000234021 0.00494708)
(0.0100664 -0.00111972 0.00222723 0.00343793 -0.000298462 0.00317225)
(0.00853314 -0.000584266 0.00228012 0.00310747 -0.000227215 0.00295282)
(0.00580607 -0.000372765 0.00168625 0.00223988 -0.000147717 0.00211825)
(0.00462109 -0.000256193 0.00135687 0.00178592 -0.000112419 0.00169978)
(0.00386189 -0.000199742 0.00114109 0.00149529 -9.61242e-05 0.00142645)
(0.00363295 -0.000168231 0.00106993 0.00140301 -8.82487e-05 0.00133675)
(0.00339873 -0.000146922 0.00100392 0.0013157 -8.31326e-05 0.0012534)
(0.00318356 -0.000123333 0.000937283 0.00123386 -7.53409e-05 0.00117266)
(0.00293491 -0.000104965 0.000860054 0.00114249 -6.8679e-05 0.00108168)
(0.00267878 -8.72993e-05 0.000777005 0.00104864 -6.16825e-05 0.000988339)
(0.00245822 -7.45252e-05 0.000701489 0.000967888 -5.68994e-05 0.00090729)
(0.00228964 -6.42479e-05 0.000639622 0.000906582 -5.38437e-05 0.000845219)
(0.00221357 -5.9746e-05 0.000604681 0.000879952 -5.34546e-05 0.000816248)
(0.00221783 -5.87656e-05 0.00059277 0.00088267 -5.53268e-05 0.000815566)
(0.00227009 -5.89159e-05 0.000595709 0.000902058 -5.82535e-05 0.000831767)
(0.00234028 -5.86507e-05 0.000603879 0.000927788 -6.11465e-05 0.000854806)
(0.00239267 -5.50401e-05 0.000605814 0.000946065 -6.25887e-05 0.000872192)
(0.00240932 -4.89901e-05 0.0005962 0.000951608 -6.27735e-05 0.000878412)
(0.00237113 -3.89986e-05 0.000568364 0.000937577 -6.10003e-05 0.000868049)
(0.00227175 -2.73504e-05 0.000519586 0.000903135 -5.79822e-05 0.000839972)
(0.00212681 -1.54618e-05 0.00045325 0.000854162 -5.4619e-05 0.00079974)
(0.00194388 -5.82715e-06 0.000370623 0.000793673 -5.17133e-05 0.000750384)
(0.00175735 2.92473e-07 0.000280003 0.000733504 -5.03671e-05 0.000702984)
(0.00160803 2.68285e-06 0.000193229 0.000688087 -5.13672e-05 0.000670103)
(0.00151712 2.18363e-06 0.00011712 0.000664644 -5.46606e-05 0.000658138)
(0.00148348 -5.54679e-07 5.24142e-05 0.00066222 -5.9646e-05 0.000666436)
(0.0015023 -5.01393e-06 -2.47922e-06 0.000678619 -6.58635e-05 0.000693273)
(0.00157048 -1.04798e-05 -4.69727e-05 0.000712093 -7.30968e-05 0.000735743)
(0.00167874 -1.58419e-05 -8.32866e-05 0.000758717 -8.12373e-05 0.000789658)
(0.00182126 -2.02939e-05 -0.000114724 0.000816618 -9.05337e-05 0.000853064)
(0.00200028 -2.32816e-05 -0.000144273 0.000886822 -0.000101561 0.000927297)
(0.00222333 -2.39837e-05 -0.000173985 0.000972381 -0.000115189 0.00101448)
(0.00250367 -2.16138e-05 -0.000207215 0.00107861 -0.000132441 0.00111939)
(0.00286014 -1.55486e-05 -0.000247212 0.00121281 -0.000154582 0.00124834)
(0.00331465 -4.68977e-06 -0.000298154 0.00138277 -0.000182888 0.00140912)
(0.00389743 1.10932e-05 -0.000367497 0.00159857 -0.000218703 0.0016139)
(0.00464698 3.24298e-05 -0.000464419 0.0018717 -0.000263849 0.00187793)
(0.00562026 5.9738e-05 -0.000599699 0.00221716 -0.000320828 0.00222086)
(0.00689062 8.99182e-05 -0.000786333 0.00265332 -0.000391596 0.00266642)
(0.00854562 0.000116024 -0.00103872 0.00319936 -0.000475764 0.00324626)
(0.0106635 0.000126209 -0.00136574 0.00386276 -0.000569983 0.00398625)
(0.0132962 0.000108583 -0.0017689 0.00464219 -0.000662862 0.00490875)
(0.016429 6.20912e-05 -0.00223617 0.00551816 -0.000738151 0.00600588)
(0.0194455 4.66126e-06 -0.00260166 0.00627072 -0.000757676 0.00705171)
(0.0219886 -4.66789e-05 -0.00271963 0.00680802 -0.00072696 0.00788972)
(0.0243159 -0.000216658 -0.00266881 0.00729114 -0.000637826 0.00857323)
(0.0226843 -0.000350072 -0.00212023 0.00675792 -0.000337644 0.00793992)
(0.0123141 -0.000306078 -0.00107766 0.00386121 6.4586e-05 0.00450337)
(0.00221778 -0.000129947 -0.000247182 0.000750124 5.02778e-05 0.000863682)
(8.08713e-05 -7.56222e-06 -1.10303e-05 2.83537e-05 1.81412e-06 3.29308e-05)
(4.45242e-06 -6.12734e-07 -4.76869e-07 3.14658e-06 1.91331e-07 3.76316e-06)
(2.84558e-06 -3.81504e-07 -1.79028e-07 2.68341e-06 9.44785e-08 3.04403e-06)
(2.80687e-06 -2.94681e-07 -8.15511e-08 2.70915e-06 5.34664e-08 2.93921e-06)
(2.85228e-06 -2.16345e-07 -7.06703e-08 2.71125e-06 3.0309e-08 2.86813e-06)
(2.75488e-06 -1.58826e-07 -1.45781e-08 2.69056e-06 1.83061e-08 2.79311e-06)
(2.80276e-06 -1.09069e-07 -3.89654e-08 2.68589e-06 1.19782e-08 2.76315e-06)
(2.78398e-06 -7.34455e-08 1.33373e-08 2.74702e-06 7.76366e-09 2.80208e-06)
(6.41796e-06 -1.11802e-07 -4.16735e-08 6.20893e-06 8.57178e-09 6.31208e-06)
(7.11566e-05 -4.13798e-06 -8.16508e-08 7.03869e-05 3.91099e-08 7.11797e-05)
(0.00921958 -0.000215813 7.22901e-05 0.00213333 -0.00023268 0.00230555)
(0.00273961 -0.000311759 0.000588763 0.000928601 -0.00010296 0.000870942)
(0.00179203 -0.000111937 0.000460547 0.000657083 -5.42973e-05 0.00061927)
(0.00101926 -5.76296e-05 0.000278669 0.000403477 -2.7474e-05 0.000373741)
(0.000742038 -3.50614e-05 0.000195169 0.000297564 -2.05468e-05 0.00027574)
(0.000596568 -2.52264e-05 0.000147852 0.000242886 -1.74892e-05 0.000225618)
(0.000562558 -1.99164e-05 0.00012992 0.000231848 -1.74711e-05 0.000215567)
(0.000538687 -1.69651e-05 0.000114552 0.000226359 -1.77551e-05 0.000211544)
(0.000528674 -1.41703e-05 9.9761e-05 0.000227146 -1.85727e-05 0.000212723)
(0.000523846 -1.29323e-05 8.4179e-05 0.000231024 -1.98262e-05 0.000217576)
(0.000526913 -1.25286e-05 6.68286e-05 0.000238987 -2.15409e-05 0.000226779)
(0.000546624 -1.38306e-05 5.02309e-05 0.000253927 -2.41054e-05 0.000243398)
(0.000582644 -1.63212e-05 3.34505e-05 0.000275663 -2.75953e-05 0.000267494)
(0.00063921 -2.03135e-05 1.79935e-05 0.000305776 -3.19e-05 0.00030016)
(0.000717429 -2.55119e-05 3.49169e-06 0.000343976 -3.73004e-05 0.000341097)
(0.000812778 -3.11524e-05 -1.1293e-05 0.000388574 -4.36708e-05 0.00038852)
(0.000922858 -3.71706e-05 -2.82139e-05 0.000438678 -5.07355e-05 0.000442208)
(0.00104742 -4.33922e-05 -5.0382e-05 0.000494736 -5.86952e-05 0.000502815)
(0.0011873 -5.03951e-05 -7.90118e-05 0.000557163 -6.73834e-05 0.000571452)
(0.00134684 -5.82672e-05 -0.000117474 0.000628333 -7.71689e-05 0.000651366)
(0.00153113 -6.83291e-05 -0.000167959 0.000710933 -8.81351e-05 0.000745745)
(0.00175117 -8.13896e-05 -0.000231896 0.000809518 -0.000101031 0.000859042)
(0.00201505 -9.95116e-05 -0.00031095 0.000927651 -0.000115884 0.000996683)
(0.00233563 -0.000124577 -0.000406616 0.00106994 -0.000132968 0.00116551)
(0.00271822 -0.000157521 -0.000517915 0.00123748 -0.000151834 0.00136747)
(0.00316517 -0.000198689 -0.000643243 0.00143025 -0.000172012 0.0016016)
(0.00366924 -0.000248509 -0.000779869 0.00164452 -0.00019238 0.00186283)
(0.00422037 -0.000306397 -0.000925594 0.00187455 -0.000212324 0.00214693)
(0.00477764 -0.00036682 -0.00106747 0.00210205 -0.000231717 0.00243042)
(0.00530645 -0.000423179 -0.00119342 0.00230921 -0.000251767 0.00268981)
(0.005794 -0.000470972 -0.00129971 0.00248921 -0.000274262 0.00291812)
(0.00624367 -0.000505896 -0.00138852 0.00264323 -0.000302724 0.00311938)
(0.00667814 -0.000525345 -0.00146529 0.00278109 -0.000340556 0.0033005)
(0.00716374 -0.000534408 -0.00154431 0.0029305 -0.00039139 0.00348591)
(0.00778284 -0.000542027 -0.00164178 0.00312586 -0.000458824 0.00370596)
(0.00862643 -0.000556371 -0.00177537 0.00340266 -0.000547408 0.00399573)
(0.00981875 -0.000590959 -0.00197095 0.00380367 -0.00066051 0.00440701)
(0.0114823 -0.000655114 -0.00225347 0.00436435 -0.000802748 0.00499367)
(0.0137912 -0.000763857 -0.00265744 0.00512975 -0.000979892 0.00581822)
(0.016983 -0.00094821 -0.00321968 0.00616373 -0.0011979 0.00694759)
(0.0214082 -0.00126044 -0.00399348 0.0075588 -0.00146544 0.00848438)
(0.0274606 -0.00176549 -0.00502259 0.00938983 -0.00178299 0.0105222)
(0.0354786 -0.00249654 -0.0063258 0.0116984 -0.00213604 0.0131198)
(0.0451847 -0.00337287 -0.00776404 0.0143223 -0.0024434 0.0161132)
(0.0548526 -0.00409702 -0.00883777 0.0167185 -0.00257683 0.018886)
(0.0611471 -0.00409902 -0.00876855 0.0179323 -0.00257451 0.0203105)
(0.0637247 -0.00345773 -0.00734526 0.0180188 -0.0024581 0.0202659)
(0.0571436 -0.00213309 -0.00503583 0.0160586 -0.0017663 0.017751)
(0.032496 -0.000904512 -0.00257831 0.00960638 -0.000494703 0.010433)
(0.00808056 -0.000357901 -0.000760582 0.00263007 7.3039e-05 0.00285981)
(0.00044435 -3.66731e-05 -5.56348e-05 0.000146381 7.21107e-06 0.00016189)
(1.49723e-05 -1.20466e-06 -1.72856e-06 5.04245e-06 1.74901e-07 5.57845e-06)
(6.61097e-07 -6.96502e-08 -6.05251e-08 4.18313e-07 1.3399e-08 4.73938e-07)
(3.01027e-07 -3.11294e-08 -1.28663e-08 2.80267e-07 5.07076e-09 3.06024e-07)
(2.59645e-07 -1.95743e-08 -6.90623e-09 2.43781e-07 2.20786e-09 2.58568e-07)
(2.31153e-07 -1.32743e-08 -2.86857e-09 2.23909e-07 1.1047e-09 2.32954e-07)
(2.22063e-07 -8.58082e-09 -2.28554e-09 2.12097e-07 5.51201e-10 2.18428e-07)
(3.00776e-07 -7.87916e-09 -8.22893e-10 2.95495e-07 3.98907e-10 3.01654e-07)
(3.87946e-06 -7.24807e-08 -1.01771e-08 3.75776e-06 2.35549e-09 3.82328e-06)
(6.87657e-05 -3.98328e-06 -2.53839e-07 6.79573e-05 3.95509e-08 6.87957e-05)
(0.00450181 -0.000108784 -0.000164661 0.00101077 -0.000111485 0.00119022)
(0.000841893 -8.76208e-05 0.000169273 0.000290128 -3.58513e-05 0.000277858)
(0.000467447 -2.61365e-05 9.56442e-05 0.000186642 -1.65429e-05 0.00017313)
(0.000292171 -2.2541e-05 3.37656e-05 0.000139615 -8.75305e-06 0.00012741)
(0.000246648 -1.93416e-05 1.25438e-05 0.000125472 -9.35925e-06 0.000115405)
(0.000241645 -1.84176e-05 2.44512e-07 0.000126593 -1.14283e-05 0.000118279)
(0.000277985 -2.02731e-05 -1.01608e-05 0.000147345 -1.47935e-05 0.000139354)
(0.00033136 -2.45789e-05 -2.28952e-05 0.000177397 -1.8797e-05 0.000170075)
(0.000405643 -3.0408e-05 -3.91125e-05 0.000218477 -2.41279e-05 0.000211471)
(0.000500793 -3.94335e-05 -6.02028e-05 0.000270974 -3.02365e-05 0.000264674)
(0.000624464 -5.21645e-05 -8.87394e-05 0.000338559 -3.74124e-05 0.000334372)
(0.000780163 -7.0021e-05 -0.000125517 0.000422037 -4.57586e-05 0.000421765)
(0.000974623 -9.30891e-05 -0.000173416 0.000523377 -5.62494e-05 0.000530275)
(0.00121348 -0.000122879 -0.000234707 0.000645558 -6.84447e-05 0.000663566)
(0.00149586 -0.000157652 -0.000308971 0.000784732 -8.33504e-05 0.000818044)
(0.0018309 -0.000197052 -0.000398386 0.000944435 -0.00010191 0.000997329)
(0.00224733 -0.000246273 -0.00051241 0.0011379 -0.000122872 0.00121876)
(0.00277865 -0.000308689 -0.000662664 0.0013809 -0.000146265 0.00149775)
(0.00345259 -0.000388321 -0.000857404 0.00168474 -0.000171479 0.00184633)
(0.00433084 -0.000492342 -0.00111696 0.0020759 -0.000200355 0.00229372)
(0.0054852 -0.000633051 -0.00146716 0.00258697 -0.000231944 0.00288075)
(0.00701388 -0.000825723 -0.00193901 0.00326084 -0.000265197 0.00365664)
(0.00903016 -0.00109434 -0.00256862 0.00414767 -0.00029829 0.00467969)
(0.0116639 -0.00146616 -0.00340422 0.00530391 -0.000326489 0.00603168)
(0.0150146 -0.00196574 -0.00448421 0.00677171 -0.000343031 0.00777113)
(0.0192047 -0.00262081 -0.00583845 0.0085982 -0.000345319 0.00994184)
(0.0243534 -0.00347721 -0.0074807 0.0108307 -0.000324042 0.0125666)
(0.0305219 -0.00457843 -0.00941983 0.0134884 -0.000253106 0.0156865)
(0.0370094 -0.00583308 -0.0114166 0.0162684 -0.000133451 0.0189468)
(0.0430456 -0.00711384 -0.0132083 0.0188205 1.31009e-05 0.0219162)
(0.0486744 -0.00845633 -0.0147988 0.0211756 0.000193929 0.0245938)
(0.0528052 -0.00961748 -0.0159064 0.022833 0.000383089 0.0264461)
(0.0514327 -0.00962674 -0.0154049 0.022029 0.000471537 0.0255795)
(0.0453569 -0.00846013 -0.0135569 0.0191269 0.00038278 0.0224403)
(0.0377854 -0.0067138 -0.0112693 0.0155379 0.000127259 0.0186185)
(0.03233 -0.00524567 -0.00953423 0.012872 -0.000210577 0.0158392)
(0.0320954 -0.00496331 -0.00921661 0.0125016 -0.000484 0.015486)
(0.0344149 -0.00524149 -0.00954061 0.0131987 -0.000738344 0.0162025)
(0.0386787 -0.00588297 -0.0103252 0.0146174 -0.00100981 0.0176793)
(0.0453385 -0.0069877 -0.0116511 0.0168681 -0.00131531 0.0200574)
(0.0552061 -0.00873437 -0.0136493 0.0201996 -0.00168944 0.0235896)
(0.0692131 -0.0112463 -0.016397 0.0249089 -0.00222611 0.0285137)
(0.0895983 -0.0148568 -0.0201272 0.0316181 -0.00300256 0.0354311)
(0.117193 -0.0193479 -0.0245701 0.0400632 -0.00386866 0.0443032)
(0.142702 -0.0224069 -0.0269223 0.0466157 -0.00451583 0.0512092)
(0.148413 -0.020176 -0.0240989 0.0457815 -0.00499706 0.0502101)
(0.138714 -0.013481 -0.0173362 0.0403467 -0.00538978 0.0441491)
(0.117328 -0.00622525 -0.0103201 0.0328552 -0.00484146 0.0353245)
(0.0710883 -0.00193087 -0.0052642 0.020322 -0.0024313 0.0211838)
(0.0217502 -0.000642716 -0.00171912 0.00673156 -0.000195635 0.00699534)
(0.00188927 -0.000128827 -0.00020535 0.000608698 1.81896e-05 0.00064952)
(8.80319e-05 -6.31521e-06 -9.47638e-06 2.80592e-05 6.73963e-07 3.00111e-05)
(2.74002e-06 -1.92438e-07 -2.76013e-07 8.95993e-07 1.70746e-08 9.63564e-07)
(9.70833e-08 -7.73652e-09 -7.80226e-09 5.20356e-08 9.06038e-10 5.67897e-08)
(2.60886e-08 -1.90762e-09 -8.88453e-10 2.34631e-08 2.22113e-10 2.4998e-08)
(1.90564e-08 -1.06284e-09 -3.13163e-10 1.82021e-08 9.13577e-11 1.89844e-08)
(1.74486e-08 -6.59806e-10 -1.85969e-10 1.65848e-08 4.25411e-11 1.70746e-08)
(1.08669e-07 -2.81221e-09 -5.72589e-10 1.06087e-07 1.60886e-10 1.08065e-07)
(3.68724e-06 -6.99136e-08 -1.07493e-08 3.56563e-06 2.99454e-09 3.624e-06)
(6.84886e-05 -3.96334e-06 -2.78515e-07 6.7572e-05 5.75582e-08 6.83414e-05)
(0.00265174 -7.00254e-05 -0.000205578 0.000604592 -0.000128274 0.000794712)
(0.000424025 -4.86915e-05 1.66187e-05 0.000192409 -1.87959e-05 0.000186859)
(0.000555199 -8.36785e-05 -7.2195e-05 0.000320629 -4.39749e-06 0.00029467)
(0.00150633 -0.000315823 -0.000339724 0.000871543 3.57756e-05 0.000805376)
(0.00125077 -0.000261335 -0.000276717 0.000746289 1.46688e-05 0.000694562)
(0.00102877 -0.000196283 -0.000216145 0.000616194 -1.66705e-06 0.00058679)
(0.00115118 -0.000205823 -0.000244182 0.000675462 -9.83134e-06 0.000654396)
(0.00142575 -0.000248014 -0.000308611 0.000820816 -1.68961e-05 0.000804567)
(0.00178375 -0.000301269 -0.000395577 0.00101204 -2.66451e-05 0.00100208)
(0.00226326 -0.000378376 -0.000512344 0.00127086 -3.8372e-05 0.00126948)
(0.00291319 -0.000488285 -0.000677259 0.00162341 -5.14255e-05 0.00163641)
(0.00373244 -0.000635319 -0.00089521 0.00206859 -6.37797e-05 0.00210702)
(0.0046946 -0.000812443 -0.00116491 0.00258657 -7.91228e-05 0.00266761)
(0.00588997 -0.00103696 -0.00151852 0.0032241 -9.72701e-05 0.00337467)
(0.00720913 -0.00127898 -0.00192947 0.00391851 -0.000123824 0.00416326)
(0.00873214 -0.00153699 -0.00241541 0.0046992 -0.000173409 0.00506834)
(0.0108888 -0.00189902 -0.00309151 0.00578185 -0.000238088 0.00631497)
(0.0138789 -0.00238905 -0.00403283 0.00725509 -0.000320416 0.00799431)
(0.0180405 -0.00307172 -0.00534338 0.00927523 -0.000424426 0.0102633)
(0.0239786 -0.00405703 -0.00721633 0.0121125 -0.00056135 0.013425)
(0.032483 -0.0054885 -0.0099077 0.0161313 -0.000729301 0.0178878)
(0.044643 -0.00756684 -0.0137516 0.0218307 -0.000931301 0.0241509)
(0.0623621 -0.0107177 -0.019304 0.0300621 -0.00110907 0.0330351)
(0.0881561 -0.0155066 -0.0273624 0.0419205 -0.00117828 0.0457693)
(0.123674 -0.0223406 -0.0385551 0.0580838 -0.00105836 0.0633045)
(0.169222 -0.0311761 -0.0530073 0.0786152 -0.000872051 0.0860039)
(0.22656 -0.0424514 -0.0708938 0.10419 -0.000701903 0.114394)
(0.30256 -0.0578101 -0.0937749 0.137313 -0.000141401 0.150955)
(0.389028 -0.0762953 -0.118847 0.174274 0.00111591 0.191733)
(0.46457 -0.0940862 -0.139452 0.20597 0.00277515 0.22644)
(0.500184 -0.104758 -0.147506 0.220042 0.00452589 0.241374)
(0.497777 -0.108043 -0.144543 0.217924 0.00617482 0.238409)
(0.454704 -0.102637 -0.130373 0.198724 0.00744431 0.216573)
(0.377904 -0.0888173 -0.107716 0.165411 0.00777229 0.179338)
(0.292107 -0.0712163 -0.0836017 0.128139 0.00725435 0.138433)
(0.21868 -0.0545659 -0.0635414 0.0958932 0.00620952 0.103851)
(0.168304 -0.0420248 -0.0498583 0.0732171 0.00492951 0.0802574)
(0.146927 -0.0362971 -0.0441007 0.0630598 0.00414616 0.0702393)
(0.144331 -0.0354014 -0.0433088 0.0611057 0.00378884 0.0688266)
(0.150908 -0.0367483 -0.0445021 0.062961 0.0032951 0.0710292)
(0.167474 -0.0402693 -0.048011 0.0687336 0.00251536 0.077543)
(0.192384 -0.0452872 -0.053092 0.0776367 0.00116839 0.0876233)
(0.228644 -0.0527154 -0.0596048 0.0900946 -0.000650459 0.101382)
(0.278966 -0.0623586 -0.0669866 0.105861 -0.00255242 0.118148)
(0.317823 -0.0667394 -0.0694614 0.114441 -0.00447832 0.12664)
(0.305867 -0.0570772 -0.060516 0.104105 -0.00597026 0.115801)
(0.252147 -0.0358673 -0.0412046 0.0799488 -0.00816631 0.0896595)
(0.198806 -0.0153171 -0.0222155 0.0587364 -0.00940268 0.06364)
(0.133047 -0.0033289 -0.0100041 0.0382808 -0.00640925 0.0388141)
(0.0480628 -0.00073676 -0.00327939 0.0142006 -0.00125952 0.0142669)
(0.00639949 -0.000296764 -0.000552369 0.0019949 9.78625e-07 0.00205929)
(0.000423667 -2.63963e-05 -4.07183e-05 0.000132958 1.65509e-06 0.000138709)
(1.88125e-05 -1.18982e-06 -1.74513e-06 5.91062e-06 6.95062e-08 6.1972e-06)
(5.13651e-07 -3.21252e-08 -4.58063e-08 1.63809e-07 1.65662e-09 1.7254e-07)
(1.19144e-08 -7.72967e-10 -8.67036e-10 5.60232e-09 5.16957e-11 5.90182e-09)
(2.69701e-09 -1.5603e-10 -5.80831e-11 2.51113e-09 1.41681e-11 2.59566e-09)
(4.04896e-09 -1.54092e-10 -4.28035e-11 3.86086e-09 1.04667e-11 3.95298e-09)
(9.67336e-08 -2.51877e-09 -5.78375e-10 9.41353e-08 1.47768e-10 9.57835e-08)
(3.67421e-06 -6.99508e-08 -1.20569e-08 3.54594e-06 2.84646e-09 3.60282e-06)
(6.85053e-05 -3.94187e-06 -3.2049e-07 6.74725e-05 5.73484e-08 6.82315e-05)
(0.00308838 -0.000312396 -0.000453695 0.000981127 -0.000142635 0.00128761)
(0.00288034 -0.000438895 -0.000517689 0.00158451 -5.80242e-05 0.00154407)
(0.0103266 -0.00212359 -0.00237695 0.00594018 2.69501e-05 0.00542787)
(0.0385932 -0.00940682 -0.00949707 0.0213468 0.000879498 0.0191527)
(0.0323804 -0.00811005 -0.00811431 0.0182558 0.000566214 0.0166718)
(0.0192524 -0.00461133 -0.00468975 0.0109144 0.0001506 0.0103018)
(0.0143708 -0.00327674 -0.00338718 0.00816054 6.53319e-08 0.00783474)
(0.0164119 -0.00369094 -0.00387291 0.00917191 -1.9301e-05 0.00889213)
(0.0198071 -0.00440675 -0.00471558 0.0108888 -2.4943e-05 0.0106127)
(0.0244856 -0.00543274 -0.00586578 0.0132786 -1.44848e-05 0.0129557)
(0.031226 -0.00693752 -0.00758294 0.0167762 6.07528e-05 0.0164)
(0.040375 -0.00903414 -0.0100007 0.0215903 0.000240058 0.0211742)
(0.051812 -0.011729 -0.0131463 0.0276825 0.000518183 0.027195)
(0.0678488 -0.0155852 -0.0177117 0.0362022 0.000890607 0.0357168)
(0.0890579 -0.0208836 -0.0238041 0.0472988 0.00125577 0.0468771)
(0.0971292 -0.022807 -0.0269551 0.051564 0.00116567 0.0517163)
(0.110717 -0.0258114 -0.0317566 0.0585021 0.000910809 0.0596049)
(0.131059 -0.0301665 -0.0386144 0.0686023 0.000580802 0.0711692)
(0.150805 -0.0339057 -0.0454826 0.077992 -1.28078e-05 0.0822846)
(0.174652 -0.0381599 -0.0535254 0.0890405 -0.000989428 0.0951567)
(0.22078 -0.0476271 -0.0680599 0.110731 -0.00183289 0.119077)
(0.288947 -0.0621955 -0.0892292 0.142903 -0.00260184 0.15424)
(0.38039 -0.0818609 -0.117402 0.186381 -0.00390829 0.2012)
(0.515698 -0.111853 -0.157877 0.251149 -0.00586367 0.269327)
(0.711171 -0.157983 -0.213653 0.344516 -0.00668093 0.364591)
(0.932562 -0.212815 -0.274148 0.447349 -0.00423888 0.467476)
(1.13043 -0.264786 -0.327749 0.539221 -0.000444971 0.560313)
(1.349 -0.322693 -0.383794 0.638534 0.00242074 0.661267)
(1.56663 -0.378478 -0.435622 0.731549 0.00502609 0.756202)
(1.72008 -0.416127 -0.467628 0.788831 0.00761172 0.815971)
(1.80344 -0.436619 -0.4797 0.81245 0.0103151 0.841819)
(1.81725 -0.441639 -0.474838 0.806686 0.0142149 0.839114)
(1.7382 -0.426787 -0.449448 0.76377 0.0196156 0.798803)
(1.54721 -0.387918 -0.400393 0.678833 0.0250512 0.712605)
(1.27834 -0.330022 -0.336086 0.564777 0.0283282 0.594376)
(0.995447 -0.266046 -0.269587 0.446174 0.0290405 0.471572)
(0.742685 -0.205568 -0.208838 0.339071 0.0269629 0.360864)
(0.546334 -0.155418 -0.159116 0.253401 0.0224935 0.271619)
(0.419942 -0.120924 -0.124482 0.196028 0.017266 0.210395)
(0.35806 -0.10341 -0.105208 0.167058 0.0132782 0.176729)
(0.340521 -0.0984248 -0.0972721 0.158245 0.0112278 0.163093)
(0.338983 -0.0973203 -0.0945197 0.15575 0.0100247 0.158811)
(0.350193 -0.0994971 -0.0964961 0.158838 0.010687 0.163616)
(0.375931 -0.103446 -0.100105 0.165752 0.00989768 0.172946)
(0.396439 -0.102075 -0.098094 0.167686 0.00479021 0.175866)
(0.373403 -0.0856058 -0.0834978 0.149229 -0.00182593 0.158646)
(0.312434 -0.0580163 -0.0592836 0.115131 -0.00731142 0.123838)
(0.24682 -0.0298579 -0.0342279 0.0817603 -0.0104525 0.08725)
(0.187426 -0.00803903 -0.0151146 0.0557775 -0.00918479 0.0575548)
(0.0925616 -0.000568832 -0.00519206 0.0267877 -0.00326098 0.026904)
(0.018267 -0.000379517 -0.00111273 0.00548001 -0.00019278 0.0055325)
(0.00162505 -7.7549e-05 -0.000125835 0.000498889 -1.7403e-06 0.000509502)
(8.89164e-05 -4.82859e-06 -7.01892e-06 2.74942e-05 7.8919e-08 2.82834e-05)
(2.9338e-06 -1.6245e-07 -2.27781e-07 9.12002e-07 3.44989e-09 9.43422e-07)
(6.22086e-08 -3.44211e-09 -4.64025e-09 2.05071e-08 7.62676e-11 2.12958e-08)
(2.61034e-09 -1.50912e-10 -9.48321e-11 1.9717e-09 9.51655e-12 2.02521e-09)