/*--------------------------------*- C++ -*----------------------------------*\
| =========                 |                                                 |
| \\      /  F ield         | OpenFOAM: The Open Source CFD Toolbox           |
|  \\    /   O peration     | Version:  2.1.1                                 |
|   \\  /    A nd           | Web:      www.OpenFOAM.org                      |
|    \\/     M anipulation  |                                                 |
\*---------------------------------------------------------------------------*/
FoamFile
{
    version     2.0;
    format      ascii;
    class       volScalarField;
    location    "0.0011";
    object      TLS;
}
// * * * * * * * * * * * * * * * * * * * * * * * * * * * * * * * * * * * * * //

dimensions      [0 1 0 0 0 0 0];

internalField   nonuniform List<scalar> 
36520
(
0.00041242
0.000354761
0.00031502
0.000308165
0.000300256
0.000297599
0.00029472
0.000293582
0.000293346
0.000294004
0.00029579
0.00029816
0.000301381
0.000305041
0.000309248
0.000313614
0.000318459
0.000323467
0.000328992
0.000334932
0.000341664
0.000349209
0.000357939
0.000367911
0.000379335
0.000392146
0.000406451
0.000422173
0.000439294
0.000457639
0.000477104
0.000497369
0.000518124
0.000538931
0.000559407
0.000579218
0.000598271
0.000616825
0.00063548
0.000655243
0.000677689
0.000705126
0.000740258
0.000787163
0.000849334
0.000922197
0.000998527
0.00109152
0.00131562
0.00163397
0.00172698
0.0017763
0.00180065
0.00182893
0.00182798
0.00184408
0.00183321
0.00184425
0.00182819
0.00178131
0.000706941
0.000389631
0.000365746
0.000364131
0.000360419
0.000359464
0.000356098
0.000355186
0.000355666
0.000358671
0.000363917
0.000370737
0.000378538
0.000384812
0.000389414
0.000391787
0.000393239
0.000394336
0.00039602
0.000398682
0.000402919
0.000408687
0.00041648
0.000426201
0.00043735
0.000448802
0.000459551
0.000468132
0.000472786
0.000472377
0.000466896
0.00045735
0.000445547
0.00043264
0.000418933
0.000404147
0.000387407
0.000368237
0.000347027
0.000324516
0.000302067
0.000281297
0.000263576
0.00024954
0.000239297
0.000232107
0.000225941
0.000222667
0.000232446
0.000266635
0.000520646
0.000933158
0.000952644
0.00095086
0.000955149
0.000951905
0.000957164
0.00095112
0.000981764
0.00285878
0.000875358
0.00042855
0.00041155
0.00041628
0.000417307
0.000419883
0.000417909
0.000418241
0.000421051
0.0004269
0.000435599
0.00044472
0.000452619
0.000455574
0.000454058
0.000449535
0.000443674
0.000437853
0.000432406
0.000427392
0.000422425
0.000416504
0.000408605
0.000397594
0.000383665
0.000368325
0.000353461
0.000340284
0.000329597
0.000321012
0.00031383
0.000307517
0.000301736
0.000296131
0.000290505
0.000284723
0.00027866
0.000272331
0.000265947
0.000259835
0.000254323
0.000249658
0.000245791
0.00024242
0.000239665
0.000237677
0.000235411
0.000231526
0.000235595
0.000259412
0.000297218
0.000493303
0.000750489
0.000746344
0.000743021
0.000735649
0.000738738
0.000731869
0.000852861
0.00299186
0.00106378
0.000466014
0.000453387
0.000460977
0.000462241
0.000462394
0.000456619
0.000450252
0.000443405
0.000435599
0.000426078
0.000415169
0.000403799
0.000393237
0.000384093
0.000375648
0.000367452
0.000359139
0.000350771
0.000342158
0.00033346
0.00032494
0.000316774
0.000309134
0.000302147
0.00029574
0.000289884
0.000284656
0.00028039
0.000277237
0.000275067
0.000273811
0.000273097
0.000272034
0.000269883
0.000266525
0.000262344
0.000257828
0.000253202
0.000248724
0.000244538
0.000240715
0.000237194
0.000233828
0.000230668
0.000228746
0.000229019
0.000233587
0.000241547
0.000261078
0.000290777
0.000313847
0.000457221
0.000655925
0.000645674
0.000631514
0.000627678
0.000646962
0.000941204
0.00301753
0.00127247
0.000467657
0.000406654
0.000294164
0.00030232
0.000315317
0.000314606
0.000311503
0.000309295
0.000306847
0.000303856
0.000301185
0.000298975
0.000296
0.000294938
0.000294489
0.000290852
0.000285277
0.000279078
0.000272534
0.000265725
0.000258732
0.000251718
0.000244777
0.000238022
0.00023151
0.000225253
0.000219304
0.00021409
0.000209724
0.000205637
0.000202501
0.0002033
0.000208628
0.000218433
0.000229309
0.000231695
0.000230464
0.000228348
0.000225783
0.000222967
0.000219903
0.000215561
0.000208315
0.00019844
0.000191286
0.000190416
0.000201582
0.000230174
0.000263404
0.000290001
0.000308151
0.00031784
0.000404199
0.000582729
0.000562427
0.000544032
0.000676651
0.000980614
0.00302154
0.00144147
0.000238055
0.000177515
0.000147302
0.000162523
0.000177486
0.000181829
0.000183977
0.000186337
0.000188605
0.000190343
0.000192307
0.000195987
0.000200289
0.000207008
0.000215166
0.00021923
0.000219793
0.000218244
0.000215357
0.000211695
0.000207705
0.000203532
0.000199144
0.000194695
0.000190476
0.000186455
0.000182254
0.0001781
0.000174584
0.000172529
0.000171471
0.00017162
0.000173418
0.000177111
0.000182439
0.000188228
0.000191445
0.000192248
0.000192467
0.000191564
0.000188673
0.000179587
0.000159052
0.000130646
0.000112378
0.00010702
0.000107762
0.00013187
0.000237262
0.00028897
0.000306844
0.000314256
0.000320092
0.000354288
0.000417025
0.000455744
0.000693963
0.00098491
0.00302218
0.00134352
0.000160515
0.000148088
0.000136239
0.000142456
0.000149794
0.000154026
0.000155421
0.000156364
0.000157552
0.000158622
0.00015952
0.00016088
0.00016259
0.00016349
0.000168077
0.000172064
0.000174105
0.000176327
0.000178754
0.000178487
0.00017657
0.000174685
0.000172479
0.000169405
0.000166293
0.000163764
0.000161383
0.000159538
0.000158413
0.000157547
0.00015707
0.000157364
0.000158196
0.000159441
0.000161263
0.000164157
0.000168205
0.000172234
0.000173624
0.000170823
0.00016251
0.00014091
9.4879e-05
6.57873e-05
5.52253e-05
4.92724e-05
5.0348e-05
6.43889e-05
0.000170053
0.000283483
0.000305729
0.000317196
0.000324489
0.000331508
0.000374616
0.000445855
0.000695246
0.000984918
0.00302311
0.000774396
0.000142808
0.000134497
0.000126114
0.000126523
0.000132751
0.000145312
0.00014752
0.000146751
0.000146108
0.00014534
0.000143958
0.000142076
0.000139509
0.000140312
0.000144841
0.000150007
0.000151556
0.000151858
0.000151841
0.000151134
0.000149581
0.00014799
0.000146784
0.000145736
0.000144635
0.000143744
0.000143231
0.000142938
0.000142584
0.000141855
0.000141034
0.000141635
0.000143162
0.00014567
0.000148246
0.000150402
0.000153065
0.000157432
0.000162443
0.000166261
0.000168592
0.000167307
0.000146183
7.25496e-05
3.84383e-05
3.49013e-05
3.73931e-05
4.93126e-05
0.000155031
0.000290409
0.000314837
0.000328963
0.000337954
0.00034414
0.000362561
0.000444378
0.000694945
0.000984717
0.00302433
0.000618576
0.000154494
0.000144993
0.000139709
0.000138288
0.000136958
0.000135825
0.000133814
0.000132212
0.000131514
0.000130712
0.00012885
0.000128091
0.000128308
0.000128923
0.00013021
0.000132272
0.000134873
0.000136806
0.00013777
0.000138249
0.000138412
0.000138424
0.000138226
0.000137354
0.000135323
0.000132685
0.000130431
0.000128897
0.000128018
0.000127294
0.000125947
0.000124216
0.000123587
0.00012431
0.00012529
0.000126353
0.000128848
0.000135598
0.000149625
0.000159083
0.00016261
0.000166483
0.000171417
0.000108116
3.52227e-05
3.25999e-05
3.638e-05
4.89313e-05
0.000166655
0.000325921
0.000348554
0.000360719
0.00036874
0.000374208
0.000379289
0.000441918
0.000694112
0.000984776
0.00302575
0.00061809
0.000157972
0.000148749
0.000145933
0.000144903
0.000144615
0.000144978
0.00014541
0.000144771
0.000143101
0.000141072
0.000140642
0.0001408
0.000140986
0.000140725
0.000141755
0.000143404
0.000144223
0.00014443
0.000144754
0.000145042
0.00014482
0.0001443
0.000143218
0.00014102
0.000137152
0.000131809
0.000128221
0.000128525
0.00012917
0.000129507
0.000129859
0.000130425
0.000131128
0.000131711
0.00013197
0.000132568
0.000135285
0.000140363
0.000145707
0.000149115
0.000152749
0.0001678
0.000187903
0.000118314
4.04669e-05
3.78787e-05
4.21117e-05
5.71198e-05
0.00019724
0.000343875
0.000362692
0.000372577
0.000379076
0.000383459
0.000386667
0.000441799
0.000693882
0.000984931
0.00302569
0.000665526
0.000173391
0.00016315
0.000148461
0.000142899
0.000142334
0.000142113
0.000141808
0.000141965
0.000142216
0.000142782
0.000142755
0.000142392
0.000142166
0.000142134
0.000142268
0.000141646
0.000140129
0.00013844
0.000137473
0.000136793
0.000136244
0.000137696
0.000138737
0.000138526
0.000137266
0.000136622
0.000136498
0.000136843
0.000137393
0.000137822
0.00013818
0.000138481
0.000138896
0.00013995
0.000141267
0.000142779
0.000145452
0.00015068
0.00015694
0.000162792
0.000169393
0.000180672
0.000189944
0.000129481
3.8601e-05
3.45035e-05
3.74315e-05
4.85031e-05
0.000163959
0.000308188
0.000329621
0.00034347
0.000353176
0.00036007
0.000366955
0.00043947
0.000694355
0.000985726
0.00302666
0.000685254
0.0001725
0.000158418
0.000139217
0.000132772
0.00013203
0.000134567
0.000136375
0.000135417
0.000133667
0.000132611
0.000131918
0.000131365
0.000131006
0.000131003
0.00013097
0.000130822
0.000131723
0.000133621
0.000135072
0.000132094
0.000133961
0.000136405
0.000136736
0.000132578
0.000121657
0.000122232
0.000128148
0.000133575
0.00013444
0.000128546
0.00011524
0.000116564
0.000118678
0.000131947
0.000140045
0.000140502
0.000143345
0.000149027
0.000154499
0.000159982
0.000167303
0.000174159
0.000178927
0.000140085
4.16316e-05
3.07079e-05
3.17131e-05
3.58528e-05
8.38678e-05
0.000245428
0.00026563
0.000279935
0.000291312
0.000300117
0.00031396
0.00043717
0.000695745
0.000986752
0.00302727
0.000632869
0.000167839
0.000153374
0.000136987
0.000126723
0.000130648
0.000138231
0.000137794
0.000135968
0.000134157
0.000132678
0.000131671
0.000131136
0.000130652
0.00013039
0.000130448
0.00013083
0.00013177
0.000133296
0.000134155
0.000133155
0.000133997
0.00013594
0.000136353
0.000135957
0.000134346
0.000118478
0.000108944
0.000122478
0.000134249
0.000135709
0.000136765
0.000133283
0.000119904
0.000120841
0.000124716
0.000140805
0.00014874
0.000151135
0.000152977
0.000155499
0.000165111
0.000174863
0.000177306
0.000131184
4.05311e-05
3.02177e-05
3.12468e-05
3.53969e-05
8.11239e-05
0.000241062
0.000261878
0.000276373
0.000287986
0.000297004
0.000311261
0.000436967
0.000695762
0.000986582
0.00302757
0.000644762
0.00017787
0.000135634
8.39375e-05
7.35233e-05
9.41314e-05
0.000135002
0.000141832
0.000142963
0.00014397
0.000144765
0.000144706
0.000143618
0.00014215
0.000141803
0.000142016
0.000142136
0.000142027
0.000141657
0.00014202
0.000143432
0.000145414
0.000147156
0.000148255
0.000148231
0.000147038
0.000144707
0.00014272
0.000142127
0.000141855
0.000141995
0.0001424
0.000142626
0.000142214
0.000140807
0.00014123
0.000143166
0.000147243
0.000152753
0.000157295
0.000162438
0.000168858
0.000181186
0.000184324
9.74941e-05
3.63015e-05
3.44875e-05
3.75376e-05
5.31985e-05
0.000197708
0.000300956
0.000323437
0.000338428
0.000348768
0.000356009
0.000363779
0.000440091
0.000695712
0.000985538
0.00302657
0.000627526
0.000172198
0.000108445
5.97838e-05
4.78571e-05
5.92822e-05
0.000114272
0.000136577
0.000138948
0.000139828
0.000139866
0.000138758
0.000136444
0.000134967
0.000135582
0.000137734
0.000141006
0.000142355
0.000141917
0.000142392
0.000145616
0.000148532
0.00014893
0.0001484
0.000138286
0.000123805
0.000123008
0.000130304
0.00014189
0.000149313
0.000152234
0.000154161
0.000153797
0.000133948
0.000127264
0.000128648
0.00013935
0.00015113
0.000154654
0.000158847
0.000164772
0.000173977
0.00019214
0.00019856
0.00010275
3.93302e-05
3.83542e-05
4.26116e-05
7.23941e-05
0.000273856
0.000330955
0.000350025
0.000361052
0.00036801
0.00037258
0.000377689
0.000442766
0.000695742
0.000984965
0.00302546
0.00064898
0.000158317
0.000106955
0.000104912
0.000116384
0.000130315
0.000140635
0.000141457
0.000140558
0.000139552
0.000138341
0.000137307
0.000136429
0.000136182
0.000136342
0.000136689
0.000136957
0.000137151
0.000137008
0.00013936
0.000143533
0.000144166
0.000139987
0.000121777
0.000122981
0.000125282
0.000134516
0.00014246
0.000144132
0.000142654
0.000131852
0.000113418
0.000114267
0.000121708
0.000146259
0.000155206
0.000156179
0.0001577
0.000161078
0.000166039
0.000173264
0.000183094
0.000192413
0.000190099
8.62053e-05
3.60624e-05
3.58728e-05
4.00152e-05
6.4234e-05
0.000251069
0.000318001
0.000337199
0.000349318
0.00035738
0.000362908
0.000370906
0.000442975
0.000694889
0.000984587
0.00302568
0.000837933
0.000163468
0.000154784
0.000146582
0.000145341
0.000146477
0.000150505
0.000155162
0.000158772
0.000158686
0.000158516
0.000158173
0.000157541
0.000155912
0.000153202
0.000151717
0.000151709
0.000152514
0.00015426
0.000155501
0.000154874
0.000151821
0.000149947
0.000149634
0.000150694
0.000152453
0.000152533
0.000150047
0.000137852
0.000132746
0.000132673
0.000133907
0.000138378
0.000147342
0.000155351
0.000159036
0.0001612
0.000162931
0.000165583
0.000168889
0.000171812
0.000174431
0.000177944
0.000159628
6.50286e-05
3.6948e-05
3.56562e-05
3.93259e-05
5.68696e-05
0.000189303
0.000286471
0.000306036
0.000318926
0.000327854
0.000334676
0.000360037
0.000444325
0.00069363
0.000984975
0.0030257
0.00135909
0.000172826
0.000161752
0.000154605
0.000152253
0.000152909
0.000157838
0.00016272
0.000164992
0.00016683
0.000168958
0.000170915
0.000172373
0.000172485
0.000170643
0.000167431
0.00016669
0.000167684
0.0001707
0.000174951
0.00017654
0.000175645
0.000174351
0.000172943
0.000171244
0.000169237
0.000167192
0.000165431
0.000163973
0.000162946
0.000163364
0.000164641
0.000167048
0.000170986
0.000175095
0.000177334
0.000177158
0.000176096
0.000174843
0.000173929
0.000172146
0.000167843
0.00015279
0.000100982
6.35406e-05
5.14854e-05
4.69026e-05
4.90123e-05
6.52605e-05
0.00017956
0.000275297
0.00029721
0.000309715
0.000318443
0.000333373
0.00041561
0.000460479
0.000694265
0.000985241
0.00302354
0.00134719
0.000273227
0.000198857
0.000170504
0.000163558
0.000167997
0.000189817
0.000205392
0.000208491
0.000211415
0.000214202
0.000216393
0.000217616
0.000216663
0.000213021
0.000208676
0.000203537
0.000207896
0.000218163
0.000222488
0.00022126
0.000219613
0.000218048
0.000216398
0.000214609
0.000212843
0.000211602
0.000211256
0.000211776
0.00021325
0.000216052
0.000219248
0.000221596
0.000221952
0.000219687
0.000215532
0.000210276
0.000204492
0.000198475
0.000192667
0.000187287
0.000181963
0.000174181
0.000166149
0.000150001
0.000128973
0.000111928
0.00010212
0.000118078
0.000219897
0.000281196
0.000300034
0.000309682
0.000321688
0.000435734
0.000515568
0.000506658
0.000691971
0.000985383
0.00302288
0.00115582
0.000467788
0.000414595
0.000340374
0.000263773
0.000277814
0.00032067
0.000329367
0.00032888
0.000328084
0.000326603
0.000324546
0.000321917
0.00031857
0.000314359
0.000308969
0.000301785
0.00030186
0.000303671
0.000301349
0.00029796
0.000294432
0.000290899
0.000287301
0.000283667
0.000280013
0.00027645
0.000272986
0.000269486
0.000265758
0.00026166
0.000256989
0.000251711
0.000245893
0.000239586
0.000232922
0.000226011
0.000218989
0.000211943
0.000204905
0.000197624
0.000191679
0.000188721
0.00019085
0.000196028
0.00020017
0.000201002
0.000202568
0.00021416
0.000251271
0.000283012
0.000303224
0.000315251
0.000408706
0.00058816
0.000581882
0.000568153
0.000673882
0.000980408
0.00302226
0.000961028
0.000457666
0.000449314
0.000468449
0.000459849
0.000446179
0.000435307
0.000423629
0.000412937
0.000403487
0.000394468
0.00038617
0.000378644
0.000371933
0.000365646
0.000360055
0.000355247
0.000351189
0.00034714
0.000342479
0.000337553
0.000332357
0.000327018
0.000321579
0.000316136
0.00031072
0.000305355
0.000299992
0.000294602
0.00028907
0.000283299
0.000277228
0.000270799
0.000264001
0.000256808
0.000249275
0.000241502
0.000233631
0.000225836
0.000218297
0.000211092
0.000203921
0.000199201
0.000200438
0.000205652
0.00021142
0.000215814
0.000220925
0.0002294
0.000253117
0.000289305
0.000312483
0.000386191
0.000632998
0.000648147
0.000641996
0.000639695
0.000658319
0.000944726
0.00301977
0.000824113
0.000425526
0.000412763
0.000431131
0.000439352
0.000447666
0.000447133
0.000448826
0.000449413
0.000450677
0.000453731
0.000458234
0.000460973
0.000460426
0.000456477
0.000449789
0.000443057
0.000436471
0.000429949
0.000422971
0.000415447
0.000407196
0.000397774
0.00038687
0.00037467
0.000361983
0.000349936
0.00033907
0.000329268
0.000320107
0.000311261
0.000302398
0.000293181
0.000283384
0.000272933
0.000261864
0.000250316
0.000238504
0.00022667
0.00021515
0.000204446
0.000197142
0.000194448
0.000197643
0.000204963
0.000211865
0.00021544
0.000216184
0.00022601
0.000255785
0.000296037
0.000426263
0.000743233
0.000757371
0.000757555
0.000753902
0.000754428
0.000749991
0.000869816
0.00299807
0.000694939
0.000391813
0.0003713
0.000377032
0.000377723
0.000380536
0.000379217
0.000380098
0.000381063
0.000383581
0.000387611
0.000394662
0.000402815
0.000411287
0.000419225
0.000424137
0.000428139
0.000431295
0.000433561
0.000435029
0.000437993
0.000442652
0.000448965
0.000456478
0.000464825
0.000472769
0.000478491
0.000480255
0.000477468
0.000470327
0.00045969
0.000446488
0.000431128
0.000413351
0.000392968
0.000370191
0.000345298
0.000319057
0.000292687
0.000268953
0.000249612
0.000235586
0.000227681
0.000224694
0.000222083
0.000216515
0.000211327
0.00021243
0.0002281
0.000268484
0.000539709
0.000961362
0.000980423
0.000978372
0.000979503
0.000975438
0.000977466
0.000971489
0.000999183
0.00288731
0.000391159
0.00035731
0.000322995
0.00031757
0.000311885
0.000310047
0.000308407
0.00030808
0.000308701
0.000310004
0.000312332
0.000315156
0.0003189
0.000323089
0.000327992
0.000333235
0.000338944
0.000344707
0.000350938
0.000357557
0.000364971
0.000373174
0.000382602
0.000393258
0.000405423
0.000419005
0.000433953
0.000449939
0.000466837
0.000484422
0.000502481
0.000520623
0.000538682
0.000556553
0.000574333
0.000592096
0.000610163
0.000629359
0.000650848
0.000676238
0.000709677
0.000753684
0.000810689
0.000882174
0.000966572
0.00106294
0.00117191
0.00129791
0.00150661
0.00171824
0.00178571
0.00182327
0.00184338
0.00186893
0.00186965
0.00188709
0.00187818
0.00189119
0.00187683
0.00184604
0.000416297
0.000372728
0.000332932
0.000324298
0.000315975
0.000312649
0.000310169
0.000309424
0.000309966
0.000311236
0.000313728
0.000316658
0.000320628
0.000324925
0.000329966
0.000335291
0.000341199
0.000347353
0.000354067
0.000361194
0.000369206
0.000378145
0.000388449
0.000400158
0.000413447
0.000428065
0.000443939
0.000460798
0.000478525
0.000496854
0.000515573
0.000534341
0.000552956
0.000571162
0.000588824
0.000605866
0.00062259
0.000639867
0.000658945
0.000681484
0.000711442
0.000752101
0.000804519
0.000869857
0.000947196
0.00103542
0.00113398
0.00124981
0.00145188
0.00171142
0.00179724
0.00183497
0.00185369
0.00187751
0.0018771
0.00189342
0.00188419
0.00189644
0.0018799
0.00182357
0.000718397
0.00040705
0.000379724
0.000376417
0.00037076
0.000371874
0.000371212
0.000373155
0.000375742
0.000379922
0.000384464
0.000391804
0.000398651
0.000406497
0.000413874
0.000419844
0.000425196
0.000429017
0.000431598
0.000434368
0.000438191
0.000443437
0.000450362
0.000458327
0.000466267
0.000472183
0.000474196
0.000471105
0.000463062
0.000451089
0.000436743
0.000421093
0.000404661
0.000387306
0.000368674
0.000348511
0.000326789
0.000304011
0.000281947
0.000262171
0.000245319
0.000232235
0.00022302
0.000216759
0.000211768
0.000206168
0.000199265
0.000196388
0.000208164
0.000245127
0.000448841
0.000930899
0.000964636
0.000964126
0.000969037
0.000964916
0.000970208
0.000963005
0.000994848
0.00286978
0.000899783
0.000443475
0.000420745
0.000423606
0.000420908
0.000427507
0.000429139
0.000434284
0.000438697
0.000443979
0.000447801
0.000453099
0.00045458
0.000453955
0.000450326
0.000444247
0.000436821
0.000428646
0.000420146
0.000411137
0.000401361
0.000390312
0.000377731
0.000363832
0.000349343
0.000335551
0.000323156
0.000312177
0.000302293
0.000293198
0.000284635
0.000276314
0.000268044
0.000259572
0.000250697
0.000241373
0.000231713
0.000221949
0.00021239
0.000203398
0.000195298
0.000189664
0.000187153
0.000188338
0.000193197
0.000198206
0.000199923
0.000198452
0.000206548
0.000236086
0.000276507
0.000387574
0.000719317
0.000741654
0.000745752
0.000743107
0.000746673
0.000742115
0.000870721
0.00299502
0.00105388
0.000477368
0.000456647
0.000461334
0.000453555
0.00044507
0.000429374
0.000412592
0.000396909
0.00038326
0.000371417
0.000360944
0.000352139
0.000344458
0.000337657
0.000331417
0.000325362
0.000319513
0.000313912
0.000307759
0.000301492
0.000295194
0.000288949
0.000282894
0.000277146
0.000271754
0.000266713
0.000261925
0.000257252
0.000252568
0.000247689
0.000242334
0.000236249
0.00022927
0.000221411
0.000212778
0.00020357
0.000194045
0.000184554
0.000175449
0.000166863
0.000158428
0.000154476
0.000155869
0.000162984
0.000174571
0.000186795
0.000197304
0.000208421
0.000234114
0.00027017
0.000296878
0.000342514
0.000591456
0.000628324
0.000626543
0.000629861
0.000656795
0.000950966
0.00301922
0.00120843
0.000486756
0.00043793
0.000385211
0.000352389
0.000330112
0.000316367
0.000305516
0.00029658
0.000289085
0.000282571
0.000276923
0.000272109
0.000268093
0.000264906
0.000262375
0.000259819
0.000258065
0.000256634
0.000253576
0.00024985
0.000246021
0.000242265
0.000238734
0.000235531
0.000232622
0.000229853
0.000226997
0.000223919
0.000220702
0.000217361
0.000213662
0.000209304
0.000204018
0.000197753
0.000190621
0.000182813
0.000174564
0.000166151
0.000158001
0.00015051
0.000143948
0.000138286
0.000139353
0.000148003
0.000162166
0.000171844
0.000174826
0.000182929
0.000219257
0.000263383
0.000289545
0.000301372
0.000320005
0.000475161
0.000511085
0.000522691
0.000681175
0.00098214
0.00302232
0.00134241
0.00033821
0.000266583
0.000239879
0.000231469
0.000224809
0.000218709
0.000212939
0.00020747
0.000202806
0.000198675
0.00019512
0.000192273
0.000189979
0.000188572
0.000188319
0.000189018
0.000191734
0.000195286
0.000196725
0.000196063
0.000194743
0.000193237
0.000191845
0.000190969
0.000191149
0.00019249
0.000194253
0.000195632
0.000196495
0.000197219
0.000197594
0.000196833
0.000194352
0.000189916
0.000183721
0.000176423
0.000168539
0.000160441
0.000152549
0.000145174
0.000138271
0.000132767
0.000133743
0.000139702
0.000145679
0.000136969
0.000117555
0.000110022
0.000146109
0.000248103
0.000275989
0.000287875
0.000297518
0.000320539
0.000400677
0.000453612
0.000696186
0.000986243
0.00302382
0.00140165
0.000194817
0.000180698
0.000174135
0.000171831
0.000169884
0.000167949
0.000166113
0.000164211
0.000162516
0.000161081
0.000160026
0.000159373
0.000158723
0.000158285
0.000158488
0.000159209
0.000160601
0.00016306
0.00016465
0.000164752
0.000163929
0.000162527
0.000160793
0.000159009
0.000157536
0.000156756
0.000156531
0.000156418
0.000156162
0.000156201
0.000156768
0.000157362
0.000158248
0.000163002
0.000166026
0.000164662
0.000161014
0.000156184
0.00015095
0.000146152
0.000142624
0.000139864
0.000137066
0.000129137
0.00010246
6.91114e-05
5.26964e-05
5.42274e-05
9.40033e-05
0.000230442
0.000262295
0.000277345
0.000288393
0.000299567
0.000368806
0.000446515
0.000696803
0.00098603
0.00302456
0.00119811
0.000168588
0.000158709
0.000153031
0.000153125
0.000153472
0.000153803
0.000154078
0.000153795
0.000153081
0.000152109
0.000150901
0.000149892
0.00014878
0.000147212
0.000146996
0.000147494
0.000147885
0.000148775
0.000149783
0.000149142
0.000147541
0.000145269
0.000142781
0.000140336
0.000138087
0.000136389
0.000135278
0.000134468
0.000133625
0.000133068
0.000133045
0.000133539
0.000134351
0.000135536
0.00013735
0.000139702
0.000142136
0.000143847
0.000145071
0.000146652
0.000148865
0.000150253
0.000142962
9.21651e-05
5.12486e-05
3.60074e-05
3.44564e-05
4.08477e-05
9.0693e-05
0.000245407
0.000271412
0.000286622
0.000298269
0.000307647
0.000345909
0.00044495
0.000695485
0.00098556
0.0030254
0.000740528
0.000166344
0.000155478
0.000148437
0.000146301
0.000144391
0.000142989
0.000141595
0.000139877
0.000138286
0.000137021
0.00013544
0.00013428
0.000133625
0.000133113
0.00013315
0.000133819
0.000134074
0.000133987
0.000134208
0.00013412
0.000133089
0.000131353
0.000129407
0.000127872
0.000126848
0.000126412
0.000126688
0.0001274
0.000128341
0.00012934
0.000130244
0.000130931
0.000131256
0.000131591
0.000132164
0.000133194
0.000134605
0.000136156
0.00013813
0.000142346
0.000149408
0.000159365
0.000157738
8.74613e-05
3.54014e-05
2.97338e-05
3.21313e-05
4.10287e-05
0.000130643
0.000277257
0.000299956
0.00031519
0.000325943
0.000333696
0.000349246
0.000442769
0.000694303
0.000985209
0.00302648
0.000592288
0.000147659
0.000138966
0.00013425
0.000130672
0.000128531
0.000126901
0.000126193
0.00012541
0.000124431
0.000124769
0.000125034
0.000125239
0.000125295
0.000125099
0.000125359
0.00012657
0.000127491
0.000128505
0.000129626
0.000130529
0.000130408
0.000128779
0.000125923
0.000121812
0.000116631
0.00011153
0.000108428
0.000107628
0.00010805
0.000108799
0.000109565
0.000109986
0.000110209
0.000111227
0.000114138
0.000118305
0.000124029
0.00013316
0.000139888
0.000141966
0.000144249
0.000157113
0.000173186
9.60076e-05
3.40589e-05
3.30687e-05
3.67402e-05
5.15365e-05
0.000208596
0.000326202
0.000345976
0.000358119
0.000366234
0.000371771
0.000376956
0.000440806
0.000694662
0.000985074
0.00302686
0.000615318
0.000160288
0.000140649
0.000134696
0.000135783
0.000137025
0.000138202
0.000139386
0.000140361
0.000141908
0.000142741
0.000142887
0.000143149
0.000143579
0.000144079
0.000144478
0.000144282
0.000143842
0.000143485
0.00014326
0.000143256
0.000143559
0.000143689
0.000143065
0.000141575
0.000139051
0.00013611
0.000133735
0.000132294
0.000131268
0.00013012
0.000127912
0.000123652
0.000118083
0.000114275
0.000114269
0.000116629
0.000122469
0.000132377
0.000142316
0.000148066
0.00015594
0.000177888
0.000194486
9.36506e-05
3.79728e-05
3.94528e-05
4.44121e-05
7.33025e-05
0.000288578
0.000352991
0.000368915
0.000377638
0.000383065
0.000386538
0.000388768
0.000442003
0.000695527
0.00098529
0.00302657
0.000632
0.000163346
0.000140501
0.000131123
0.000127773
0.000129629
0.000132026
0.000132506
0.000132772
0.000133119
0.000133559
0.000134138
0.000134948
0.000135731
0.00013622
0.000139296
0.000141179
0.000135832
0.000134618
0.000136136
0.000142006
0.000141563
0.000138883
0.000140653
0.000141214
0.000140501
0.000139486
0.000138344
0.000137075
0.000135641
0.000133726
0.000130574
0.000124941
0.000116833
0.000112789
0.00011394
0.000119222
0.000129564
0.000141032
0.000150406
0.000161475
0.000176955
0.000197547
0.000199789
7.46766e-05
3.83335e-05
4.03061e-05
4.66783e-05
0.000106953
0.000323048
0.000359829
0.00037513
0.000382492
0.000386727
0.000389282
0.000390501
0.000442516
0.000695531
0.000985619
0.00302748
0.000638361
0.000208488
0.000122253
8.22953e-05
7.78921e-05
9.9638e-05
0.000126464
0.000131402
0.000133255
0.000134302
0.000134855
0.000134658
0.000134223
0.000134922
0.000136703
0.000139538
0.000141526
0.000140955
0.000133972
0.000134787
0.000139866
0.000146805
0.000142834
0.000140176
0.00014302
0.00014457
0.000145465
0.000146063
0.000146854
0.000148017
0.000148922
0.000149168
0.000148646
0.000147067
0.000143873
0.000139141
0.000136552
0.000138444
0.000143989
0.000155019
0.000167176
0.000178633
0.000191375
0.000198005
8.61793e-05
3.7969e-05
3.92051e-05
4.45766e-05
8.29644e-05
0.000299899
0.000349173
0.000365903
0.000374343
0.000379327
0.00038242
0.000384861
0.00044204
0.000695456
0.000985841
0.00302807
0.000604867
0.000155845
0.000139789
0.000123346
0.000126585
0.000136619
0.00014128
0.000143971
0.000144457
0.000144418
0.000145145
0.000146613
0.000148036
0.000149246
0.000150151
0.000150435
0.000150399
0.000150297
0.000150332
0.000150344
0.000150511
0.000150743
0.000152099
0.000153525
0.000154566
0.00015458
0.000153577
0.000153333
0.000153811
0.000155029
0.000155027
0.000153701
0.000152039
0.000149726
0.000146056
0.000139953
0.000134043
0.000134331
0.000138463
0.000148013
0.000157294
0.000164281
0.000176558
0.000187276
0.000107559
3.72325e-05
3.67565e-05
4.03904e-05
5.64767e-05
0.000213084
0.000324168
0.000343577
0.000355077
0.000362664
0.000367795
0.000372993
0.000440489
0.000695004
0.000985827
0.00302797
0.000557441
0.000172574
0.000162762
0.000145871
0.000149019
0.000150707
0.000152004
0.000152731
0.000153554
0.000153635
0.000153066
0.000152355
0.000151895
0.000151461
0.000150832
0.000149973
0.000148844
0.000147651
0.000147142
0.000145976
0.000146227
0.000147345
0.0001473
0.000144895
0.000143709
0.000142593
0.000141589
0.000140214
0.000138463
0.000135907
0.000131722
0.000126401
0.00012291
0.000124758
0.000129551
0.000135138
0.000139794
0.00014532
0.000152199
0.000159418
0.000169202
0.000184086
0.000198723
0.000197266
0.000126971
4.07613e-05
3.5243e-05
3.69472e-05
4.42407e-05
0.000126841
0.000284781
0.000304789
0.000318695
0.000329198
0.00033709
0.000347056
0.00043854
0.000695277
0.000984885
0.0030258
0.000540957
0.000192893
0.000183652
0.000172095
0.000171448
0.000168124
0.000164394
0.000159847
0.000155075
0.000150856
0.000147357
0.000144815
0.000143095
0.000141645
0.000141182
0.000141866
0.000143226
0.000145104
0.000147015
0.000148999
0.000149497
0.000148379
0.000145105
0.00013985
0.000133617
0.000131658
0.000133854
0.000135553
0.000131189
0.000119901
0.000124617
0.000135121
0.000138507
0.000141
0.000145536
0.000151558
0.000157714
0.000162909
0.000169312
0.000177558
0.000187779
0.000192547
0.000189617
0.000185836
0.000125615
4.72952e-05
3.4294e-05
3.49321e-05
4.06138e-05
9.79861e-05
0.000247909
0.000267564
0.000280884
0.000291224
0.000299287
0.000321955
0.000442336
0.000696061
0.00098503
0.00302442
0.000703855
0.000189788
0.000180056
0.000172506
0.000166877
0.000162043
0.000157926
0.000154205
0.000150433
0.000147087
0.000143945
0.000141492
0.000139509
0.000138281
0.000138081
0.000138734
0.000139682
0.000140969
0.000142654
0.000145053
0.000146573
0.000145857
0.000143542
0.000140464
0.000137757
0.000135968
0.000136002
0.000136365
0.000135167
0.000133285
0.0001356
0.000140759
0.000144665
0.000146895
0.000150862
0.000158544
0.000167681
0.000172903
0.000174027
0.000173642
0.000172842
0.000169508
0.000158951
0.000133341
8.2793e-05
4.64552e-05
3.71715e-05
3.79554e-05
4.43345e-05
9.76271e-05
0.000237701
0.000258891
0.000272738
0.000284112
0.000293388
0.000321943
0.000442993
0.000695397