/*--------------------------------*- C++ -*----------------------------------*\
| =========                 |                                                 |
| \\      /  F ield         | OpenFOAM: The Open Source CFD Toolbox           |
|  \\    /   O peration     | Version:  2.1.1                                 |
|   \\  /    A nd           | Web:      www.OpenFOAM.org                      |
|    \\/     M anipulation  |                                                 |
\*---------------------------------------------------------------------------*/
FoamFile
{
    version     2.0;
    format      ascii;
    class       volVectorField;
    location    "0.0011";
    object      U;
}
// * * * * * * * * * * * * * * * * * * * * * * * * * * * * * * * * * * * * * //

dimensions      [0 1 -1 0 0 0 0];

internalField   nonuniform List<vector> 
36520
(
(-1.00388 -0.399893 -0.52581)
(-1.567 0.237544 0.121429)
(-3.10275 0.0162253 0.171878)
(-3.37426 0.0210049 0.0541405)
(-3.54179 -0.0584978 0.00741833)
(-3.4342 0.0556578 -0.0087728)
(-3.45607 0.179698 0.0064216)
(-3.54477 0.327981 0.0237523)
(-3.68792 0.411559 0.0351748)
(-3.89748 0.480566 0.0414529)
(-4.08212 0.4816 0.0401616)
(-4.26864 0.475797 0.0345372)
(-4.39751 0.431673 0.0210039)
(-4.4871 0.400133 0.011969)
(-4.52381 0.369282 0.00294706)
(-4.54706 0.364098 0.000384768)
(-4.54554 0.381717 0.00162074)
(-4.56612 0.42637 0.00863281)
(-4.60126 0.489894 0.0186194)
(-4.6869 0.568518 0.0312088)
(-4.81521 0.649805 0.044543)
(-5.00745 0.721674 0.0584032)
(-5.24413 0.767521 0.0703194)
(-5.51613 0.782746 0.0778177)
(-5.79327 0.767251 0.080225)
(-6.06531 0.723096 0.079418)
(-6.30978 0.657304 0.0752348)
(-6.51851 0.580289 0.0670989)
(-6.68353 0.507096 0.0580829)
(-6.8139 0.44912 0.0486432)
(-6.91069 0.413692 0.0390317)
(-6.98423 0.404443 0.0297396)
(-7.04024 0.427671 0.0242343)
(-7.09625 0.484817 0.0237337)
(-7.16712 0.570064 0.0312396)
(-7.281 0.681393 0.0494623)
(-7.46977 0.801024 0.0787569)
(-7.77089 0.916641 0.121804)
(-8.23247 1.00655 0.18202)
(-8.89258 1.04051 0.26057)
(-9.77128 0.977862 0.350969)
(-10.8568 0.773795 0.443506)
(-12.0696 0.40965 0.516199)
(-13.2926 -0.0837071 0.552282)
(-14.4664 -0.751636 0.524233)
(-15.4888 -1.70727 0.39808)
(-15.7662 -3.16381 0.132596)
(-14.6535 -4.92333 -0.322388)
(-11.3537 -6.38278 -0.744432)
(-7.52985 -6.65764 -0.881382)
(-4.13652 -5.78911 -0.620305)
(-2.28169 -4.73207 -0.414855)
(-0.872286 -3.70027 -0.254571)
(-0.485926 -2.85475 -0.153021)
(0.0897611 -2.1739 -0.0894023)
(-0.0734367 -1.68872 -0.0518049)
(0.287857 -1.30612 -0.0296724)
(-0.0798881 -1.06825 -0.0151507)
(0.264413 -0.902078 -0.00983471)
(-0.174553 -0.82325 -0.00500659)
(-2.60909 -0.268765 -0.0473209)
(-3.88323 0.573834 0.456476)
(-5.07297 0.187628 0.357094)
(-5.32142 0.104129 0.0539074)
(-5.37455 -0.0759387 -0.0564841)
(-5.23292 0.0632884 -0.0896915)
(-5.25651 0.156751 -0.0255468)
(-5.32441 0.323235 0.0132248)
(-5.48251 0.386638 0.060651)
(-5.68521 0.448196 0.0798498)
(-5.87537 0.432221 0.0890678)
(-6.05754 0.41358 0.0719854)
(-6.18713 0.350222 0.0454795)
(-6.26801 0.306624 0.0157243)
(-6.30034 0.265664 -0.0075349)
(-6.3189 0.248485 -0.0183835)
(-6.3048 0.263426 -0.0153638)
(-6.32513 0.297887 -0.000507299)
(-6.34786 0.358332 0.0245828)
(-6.43156 0.425125 0.0581427)
(-6.54685 0.499057 0.0958706)
(-6.73127 0.558185 0.136678)
(-6.9493 0.594539 0.172093)
(-7.20482 0.597646 0.19422)
(-7.4562 0.572122 0.202514)
(-7.70436 0.518364 0.199588)
(-7.91959 0.445884 0.187387)
(-8.09872 0.362739 0.165529)
(-8.22755 0.285476 0.140699)
(-8.3213 0.225162 0.117778)
(-8.3791 0.186689 0.0974256)
(-8.41093 0.173812 0.0811801)
(-8.42867 0.191139 0.0744614)
(-8.44392 0.236451 0.0865055)
(-8.47377 0.307761 0.126755)
(-8.54892 0.406008 0.205933)
(-8.69572 0.514466 0.327589)
(-8.9464 0.62386 0.492057)
(-9.34449 0.712766 0.702606)
(-9.92836 0.745151 0.947969)
(-10.7158 0.679538 1.20436)
(-11.6961 0.482741 1.43648)
(-12.7984 0.142162 1.59314)
(-13.9227 -0.336341 1.62213)
(-15.0258 -1.01563 1.44922)
(-15.9979 -2.02603 1.03091)
(-16.2621 -3.57913 0.218367)
(-15.2576 -5.67877 -1.11008)
(-11.837 -7.35233 -2.36068)
(-7.51203 -7.4994 -2.7127)
(-3.89619 -6.31013 -1.89414)
(-2.10131 -5.08438 -1.26364)
(-0.703297 -3.92608 -0.779445)
(-0.403112 -3.00993 -0.477935)
(0.178602 -2.27849 -0.288665)
(-0.0530083 -1.76448 -0.178361)
(0.343004 -1.35995 -0.11067)
(-0.0935863 -1.10999 -0.0709731)
(0.307878 -0.935361 -0.0520081)
(-0.209785 -0.852527 -0.0405974)
(-3.07832 0.00276518 0.61819)
(-4.57284 0.798129 0.8788)
(-5.75691 0.278597 0.60539)
(-5.93165 0.0119138 0.127899)
(-5.84499 -0.196491 -0.0421669)
(-5.62947 -0.0259754 -0.086107)
(-5.62309 0.0919402 0.00377006)
(-5.68248 0.309318 0.0717481)
(-5.84582 0.376352 0.131952)
(-6.05222 0.448568 0.169966)
(-6.24847 0.433544 0.173352)
(-6.42957 0.407258 0.149711)
(-6.56277 0.339184 0.0968992)
(-6.63647 0.283468 0.0428205)
(-6.65777 0.239912 0.000269383)
(-6.66523 0.221835 -0.0184767)
(-6.63191 0.248722 -0.0091475)
(-6.6419 0.291777 0.0171616)
(-6.64587 0.365603 0.0608044)
(-6.7167 0.441929 0.117508)
(-6.81152 0.526725 0.182271)
(-6.98279 0.593751 0.250931)
(-7.1859 0.637284 0.310374)
(-7.43182 0.643876 0.347947)
(-7.67033 0.620648 0.359469)
(-7.90742 0.566328 0.350379)
(-8.1108 0.49087 0.325115)
(-8.27793 0.401748 0.278513)
(-8.39262 0.319131 0.227958)
(-8.47256 0.256534 0.181837)
(-8.52205 0.215976 0.136076)
(-8.54814 0.202188 0.0943122)
(-8.55568 0.220006 0.0642538)
(-8.55577 0.269312 0.0605346)
(-8.56323 0.349796 0.101093)
(-8.6073 0.463817 0.204935)
(-8.71515 0.595292 0.376384)
(-8.91508 0.740037 0.616195)
(-9.24417 0.875148 0.928862)
(-9.73934 0.971082 1.29547)
(-10.4059 0.995367 1.68579)
(-11.2287 0.899194 2.04768)
(-12.1366 0.666337 2.31007)
(-13.0562 0.260848 2.37712)
(-13.9709 -0.410102 2.13092)
(-14.8557 -1.4539 1.49575)
(-15.2823 -3.19005 0.256763)
(-14.8727 -5.76943 -1.73056)
(-12.5655 -8.35611 -3.9831)
(-7.42672 -8.52817 -4.53649)
(-3.47248 -6.78539 -3.10687)
(-1.74088 -5.34515 -2.03647)
(-0.451637 -4.05063 -1.23935)
(-0.240078 -3.0773 -0.751226)
(0.276412 -2.31219 -0.447041)
(0.00923016 -1.78294 -0.270561)
(0.379567 -1.36935 -0.16061)
(-0.0728227 -1.11633 -0.100554)
(0.319984 -0.93951 -0.067651)
(-0.208018 -0.855988 -0.0520318)
(-3.27246 0.274533 1.33875)
(-4.87018 1.10298 1.24084)
(-6.11891 0.411315 0.80329)
(-6.2054 -0.100032 0.167885)
(-5.99132 -0.339714 -0.0636768)
(-5.69235 -0.110644 -0.114666)
(-5.66208 0.0773679 0.0234963)
(-5.72546 0.32357 0.10243)
(-5.90252 0.423205 0.199288)
(-6.11957 0.497195 0.248718)
(-6.33002 0.481504 0.259932)
(-6.51514 0.43967 0.23052)
(-6.64967 0.353977 0.16315)
(-6.71777 0.277503 0.0887092)
(-6.71531 0.225349 0.0265966)
(-6.69457 0.21057 -0.00665807)
(-6.64065 0.251718 -0.0102314)
(-6.6296 0.306388 0.00901006)
(-6.61206 0.395013 0.0582995)
(-6.66128 0.48791 0.131387)
(-6.73388 0.589297 0.214481)
(-6.88631 0.675572 0.304245)
(-7.07264 0.735695 0.384888)
(-7.30469 0.752961 0.43457)
(-7.52792 0.734422 0.446786)
(-7.74368 0.682266 0.429076)
(-7.92194 0.607011 0.390954)
(-8.05891 0.515622 0.319926)
(-8.14314 0.429462 0.237881)
(-8.1934 0.362548 0.164648)
(-8.21997 0.318413 0.105038)
(-8.22323 0.304049 0.0465379)
(-8.20589 0.32641 0.00453986)
(-8.17385 0.386793 -0.0100291)
(-8.14283 0.486318 0.0300737)
(-8.13884 0.632083 0.146358)
(-8.17648 0.80787 0.346182)
(-8.27523 1.01256 0.626526)
(-8.4637 1.23004 0.991724)
(-8.76655 1.43481 1.43163)
(-9.15549 1.57202 1.89258)
(-9.57651 1.58326 2.31426)
(-9.92136 1.43732 2.57631)
(-10.0919 1.09025 2.58924)
(-10.1344 0.400229 2.20964)
(-10.3572 -0.684965 1.39977)
(-10.6906 -2.46586 0.073754)
(-11.4274 -5.53359 -2.17614)
(-11.9019 -8.83406 -4.83637)
(-7.34569 -10.2876 -6.42889)
(-2.81572 -7.5587 -4.34604)
(-1.18706 -5.72666 -2.74294)
(-0.0796023 -4.23404 -1.66016)
(-0.00190172 -3.17109 -1.00791)
(0.418638 -2.35522 -0.59913)
(0.0999987 -1.80355 -0.365175)
(0.430991 -1.37653 -0.219128)
(-0.0410982 -1.11889 -0.140729)
(0.334797 -0.939102 -0.0961492)
(-0.202662 -0.854566 -0.0759807)
(-3.26435 0.994331 2.04106)
(-5.17203 1.66351 1.57329)
(-6.49098 0.58489 1.08833)
(-6.52051 -0.26902 0.337219)
(-6.08383 -0.541765 0.0572035)
(-5.6883 -0.239325 -0.0193307)
(-5.61101 0.039586 0.129111)
(-5.66813 0.340882 0.205584)
(-5.8485 0.476943 0.302444)
(-6.06899 0.57332 0.34977)
(-6.28995 0.563102 0.346938)
(-6.47911 0.508993 0.293249)
(-6.60161 0.416618 0.188539)
(-6.66066 0.315419 0.0695922)
(-6.61476 0.251814 -0.0315584)
(-6.56617 0.231206 -0.0812126)
(-6.47676 0.273844 -0.0824729)
(-6.42338 0.349782 -0.0489573)
(-6.35474 0.470426 0.0157704)
(-6.35051 0.592871 0.109462)
(-6.36445 0.718817 0.216339)
(-6.44956 0.82895 0.344531)
(-6.56307 0.910195 0.461507)
(-6.71474 0.944815 0.54005)
(-6.84214 0.936959 0.559012)
(-6.94179 0.889267 0.530234)
(-6.99453 0.810034 0.47302)
(-6.995 0.703708 0.369424)
(-6.95259 0.59953 0.239549)
(-6.89909 0.513739 0.116888)
(-6.85325 0.452823 0.00832809)
(-6.81799 0.42363 -0.105674)
(-6.78695 0.438883 -0.209097)
(-6.75532 0.503572 -0.277844)
(-6.73346 0.623951 -0.267131)
(-6.72367 0.828344 -0.142588)
(-6.70241 1.09946 0.107131)
(-6.67629 1.43759 0.446344)
(-6.65302 1.81978 0.843006)
(-6.60801 2.17603 1.3008)
(-6.45417 2.43213 1.77423)
(-6.04825 2.56516 2.15932)
(-5.20141 2.51154 2.40016)
(-3.89267 2.21809 2.44663)
(-2.38837 1.4196 2.12136)
(-1.4924 0.237429 1.3372)
(-1.47825 -1.16942 0.368955)
(-3.3809 -4.02855 -1.50423)
(-6.60698 -8.78237 -5.27239)
(-6.94752 -11.7536 -7.73997)
(-1.88445 -8.65456 -5.65847)
(-0.414802 -6.18933 -3.31099)
(0.402775 -4.46916 -1.98932)
(0.304113 -3.28624 -1.19665)
(0.603076 -2.40961 -0.705011)
(0.215434 -1.83013 -0.428648)
(0.496885 -1.38797 -0.255338)
(-0.000207529 -1.12409 -0.163698)
(0.354013 -0.94106 -0.110167)
(-0.195809 -0.855022 -0.087116)
(-3.69784 1.68994 2.21903)
(-5.60394 2.28026 1.69902)
(-6.91948 0.930014 1.27695)
(-6.78704 -0.388909 0.517605)
(-6.11586 -0.669898 0.172742)
(-5.60271 -0.267057 0.0558661)
(-5.47405 0.126504 0.191093)
(-5.5136 0.459045 0.264243)
(-5.68639 0.63145 0.391709)
(-5.8973 0.713834 0.478986)
(-6.11697 0.688868 0.489945)
(-6.29722 0.586035 0.437959)
(-6.39406 0.455887 0.333215)
(-6.41222 0.307237 0.196166)
(-6.30309 0.217433 0.0756431)
(-6.17316 0.213727 0.0272802)
(-6.00269 0.316643 -0.000645497)
(-5.83707 0.451755 -0.0150097)
(-5.65447 0.606964 -0.000512917)
(-5.51136 0.748601 0.0881428)
(-5.36045 0.897407 0.207558)
(-5.23327 1.01793 0.328409)
(-5.08404 1.10643 0.433275)
(-4.93147 1.13813 0.474462)
(-4.70297 1.11136 0.431113)
(-4.3988 1.03403 0.335209)
(-4.03224 0.922308 0.24207)
(-3.59048 0.758046 0.10498)
(-3.18243 0.583213 -0.0523439)
(-2.8459 0.445031 -0.184195)
(-2.61281 0.328083 -0.288049)
(-2.44193 0.229453 -0.392405)
(-2.36415 0.173036 -0.486222)
(-2.37324 0.192029 -0.569038)
(-2.45066 0.308237 -0.608752)
(-2.55514 0.56501 -0.588274)
(-2.59278 0.93706 -0.469765)
(-2.48252 1.34213 -0.234781)
(-2.14619 1.74279 0.0882798)
(-1.59795 2.10847 0.501424)
(-0.734196 2.34743 0.963084)
(0.400571 2.39758 1.38135)
(1.89333 2.19088 1.6983)
(3.8856 1.73198 1.78384)
(5.94627 0.839444 1.4125)
(7.4016 -0.159805 0.842816)
(7.77002 -1.16623 0.0366794)
(7.20995 -3.15375 -1.48)
(4.56697 -6.85783 -4.71794)
(-3.15461 -11.6571 -8.20639)
(-0.68273 -9.92004 -6.89782)
(0.634615 -6.72622 -3.73896)
(0.986985 -4.72441 -2.20213)
(0.671325 -3.41055 -1.3102)
(0.820842 -2.46823 -0.771005)
(0.349896 -1.85759 -0.469552)
(0.574004 -1.39933 -0.281103)
(0.0474564 -1.12822 -0.181449)
(0.376444 -0.941682 -0.123022)
(-0.187922 -0.854265 -0.097801)
(-3.65116 3.53083 2.81454)
(-5.94372 3.38559 1.86712)
(-7.23266 1.47013 1.44403)
(-6.99734 -0.616537 0.885468)
(-6.00513 -0.948431 0.457739)
(-5.35152 -0.439497 0.244871)
(-5.11969 0.0876953 0.342316)
(-5.09648 0.491938 0.404634)
(-5.19751 0.712594 0.50752)
(-5.35504 0.846265 0.557245)
(-5.49838 0.875247 0.550672)
(-5.58072 0.796048 0.445451)
(-5.55872 0.665635 0.285013)
(-5.40077 0.5048 0.0729378)
(-5.14124 0.370613 -0.108725)
(-4.86884 0.35687 -0.22303)
(-4.5602 0.445879 -0.30757)
(-4.23545 0.577453 -0.373047)
(-3.85532 0.735667 -0.377751)
(-3.45948 0.917146 -0.292862)
(-2.98517 1.10535 -0.179447)
(-2.51873 1.28707 -0.0417002)
(-1.98334 1.40796 0.0991678)
(-1.36016 1.41483 0.208124)
(-0.608804 1.32207 0.236651)
(0.131754 1.20917 0.165845)
(0.821942 1.11217 0.0530942)
(1.60617 0.95789 -0.0771446)
(2.38232 0.773292 -0.218145)
(3.05994 0.611084 -0.360244)
(3.5529 0.455693 -0.470342)
(3.89455 0.309731 -0.564661)
(4.02097 0.182836 -0.64458)
(3.96116 0.124757 -0.686764)
(3.82491 0.128364 -0.680062)
(3.76563 0.223791 -0.629212)
(3.83399 0.451138 -0.55556)
(4.17183 0.765379 -0.435312)
(4.77311 1.10021 -0.253639)
(5.52875 1.41921 0.0698369)
(6.47491 1.66532 0.476302)
(7.42557 1.81444 0.764264)
(8.82468 1.72078 0.861766)
(11.0472 1.34973 0.740176)
(13.2643 0.893853 0.729273)
(15.2328 0.0517688 0.240893)
(16.358 -0.893144 -0.790346)
(16.3613 -2.1314 -1.88831)
(14.8798 -3.84109 -3.25504)
(7.86694 -7.84204 -5.85471)
(1.2332 -10.9085 -7.12674)
(1.95414 -7.29764 -3.9511)
(1.67577 -4.96702 -2.25173)
(1.08606 -3.52888 -1.33252)
(1.06721 -2.52381 -0.783367)
(0.501814 -1.88272 -0.476328)
(0.662202 -1.40958 -0.285265)
(0.102081 -1.13125 -0.183969)
(0.402671 -0.941144 -0.124247)
(-0.178741 -0.852227 -0.0989262)
(-4.47763 4.27546 1.26917)
(-6.22554 4.60815 0.668234)
(-6.60452 2.90874 1.55616)
(-5.98494 -0.86494 1.72892)
(-4.72142 -1.231 1.22765)
(-3.86919 -0.375179 0.664784)
(-3.36585 0.377683 0.539334)
(-3.08636 0.830195 0.469068)
(-2.91023 1.06572 0.559141)
(-2.79321 1.16795 0.693905)
(-2.63377 1.0725 0.704553)
(-2.37277 0.774162 0.523055)
(-2.02155 0.369915 0.297182)
(-1.47588 -0.0350758 0.0483736)
(-1.05879 -0.311364 -0.136478)
(-0.716383 -0.29894 -0.187965)
(-0.224149 -0.0559719 -0.215737)
(0.329249 0.262994 -0.357943)
(0.941874 0.607067 -0.491508)
(1.52253 0.957937 -0.479778)
(2.1802 1.24745 -0.351386)
(2.80257 1.47467 -0.213036)
(3.46356 1.64915 -0.118828)
(4.21925 1.74489 -0.0653158)
(5.18977 1.70685 -0.0634648)
(6.24503 1.52463 -0.0981697)
(7.24298 1.25204 -0.201719)
(8.20617 0.956212 -0.37527)
(9.08474 0.714365 -0.533611)
(9.74569 0.553766 -0.615921)
(10.137 0.442534 -0.635158)
(10.3501 0.326883 -0.677121)
(10.3706 0.226496 -0.748871)
(10.2111 0.116473 -0.84584)
(9.96673 0.0377096 -0.915133)
(9.80519 0.069217 -1.01637)
(9.77191 0.238376 -1.18126)
(9.90833 0.539237 -1.28603)
(10.2904 0.994634 -1.22767)
(10.8655 1.51313 -0.877245)
(11.7527 1.79593 -0.208503)
(12.7068 1.83688 0.541097)
(13.6319 1.21147 0.667551)
(14.6853 0.448166 0.389997)
(17.732 0.132172 -0.048382)
(19.8152 -0.40632 -0.585061)
(20.2937 -0.944543 -0.975515)
(19.8948 -1.60492 -1.43247)
(18.5534 -2.69798 -2.15738)
(13.2274 -6.09657 -4.11893)
(3.97268 -11.04 -6.00705)
(3.31947 -7.78174 -3.80524)
(2.42003 -5.15779 -2.1724)
(1.54049 -3.61197 -1.28477)
(1.34391 -2.55454 -0.757011)
(0.67432 -1.88777 -0.460383)
(0.764912 -1.40373 -0.277675)
(0.165007 -1.1209 -0.180273)
(0.433497 -0.92918 -0.122837)
(-0.169125 -0.840061 -0.0985389)
(-3.90459 18.2101 3.01465)
(-5.91476 5.56114 0.978446)
(-5.0821 1.03772 2.45507)
(-2.96878 -1.1313 1.83979)
(-0.997228 -1.35032 1.43595)
(0.333632 -0.930127 0.781173)
(1.58203 -0.532148 0.519051)
(2.98709 -0.328163 0.501399)
(4.05619 -0.284657 0.614895)
(5.14815 -0.266585 0.643242)
(6.60258 -0.246486 0.589681)
(8.2096 -0.213152 0.453278)
(9.10202 -0.15436 0.317502)
(9.55678 -0.112734 0.16196)
(9.44289 -0.111185 0.113014)
(8.8004 -0.0283743 -0.0482832)
(8.29328 0.144046 -0.361062)
(8.20903 0.309888 -0.689235)
(8.49711 0.383919 -0.882719)
(9.0981 0.396758 -0.89338)
(9.96713 0.395207 -0.74212)
(10.9647 0.407903 -0.533287)
(12.0605 0.416462 -0.404733)
(13.3002 0.377622 -0.349456)
(14.707 0.293144 -0.348356)
(16.0712 0.184505 -0.361967)
(17.2305 0.164924 -0.361596)
(18.1182 0.210517 -0.388698)
(18.6442 0.216534 -0.425773)
(18.9286 0.190923 -0.408918)
(19.0922 0.176571 -0.358381)
(19.1799 0.148597 -0.306813)
(19.1737 0.124644 -0.269922)
(19.0451 0.113699 -0.223081)
(18.7423 0.125436 -0.23342)
(18.5218 0.193283 -0.34379)
(18.4248 0.263045 -0.479632)
(18.4646 0.293912 -0.610373)
(18.6085 0.311769 -0.667348)
(18.7187 0.322298 -0.534841)
(18.9691 0.381662 0.0370518)
(19.7456 0.470095 0.631216)
(21.8381 0.304259 0.470839)
(23.8376 0.0875056 -0.441392)
(23.9793 -0.0662917 -0.620006)
(23.56 -0.232611 -0.308839)
(22.401 -0.855978 -0.552105)
(21.2922 -1.46991 -0.968781)
(19.8206 -2.40735 -1.5275)
(15.1331 -5.94408 -3.04609)
(6.2661 -11.2826 -4.54076)
(4.67503 -8.30911 -3.13668)
(3.13906 -5.47157 -1.80075)
(1.94131 -3.80012 -1.06154)
(1.56594 -2.66763 -0.621093)
(0.800031 -1.95391 -0.373313)
(0.835235 -1.44382 -0.22212)
(0.204406 -1.14574 -0.141353)
(0.453222 -0.946132 -0.0937435)
(-0.163907 -0.853283 -0.0743665)
(-2.73666 19.8082 6.96406)
(-4.81471 7.24012 3.49203)
(-4.15651 2.47246 2.90952)
(-2.07883 1.0292 1.10812)
(1.62448 -0.0649439 0.250654)
(4.5597 -0.130003 -0.271953)
(6.85417 0.0384419 -0.405687)
(8.71182 0.0477511 -0.239415)
(10.5908 -0.0346073 0.105153)
(12.7316 -0.125795 0.275008)
(14.418 -0.126896 0.276272)
(15.6961 -0.101977 0.24406)
(16.424 -0.0887836 0.313376)
(16.9384 -0.0914735 0.331313)
(17.0793 -0.113669 0.398184)
(17.0028 -0.137405 0.455421)
(16.6972 -0.138932 0.341056)
(15.8321 -0.0162527 -0.114957)
(14.585 0.182247 -0.694354)
(13.4901 0.340054 -1.03243)
(13.2004 0.372307 -0.955637)
(13.6082 0.295793 -0.715968)
(14.5609 0.208694 -0.493777)
(15.6475 0.142405 -0.44255)
(16.9612 0.0628958 -0.453633)
(18.2385 0.00236118 -0.40162)
(19.2806 0.0246384 -0.321798)
(19.9584 0.0621423 -0.284294)
(20.2592 0.0769437 -0.307152)
(20.4732 0.0715164 -0.333838)
(20.6646 0.0696993 -0.339146)
(20.8138 0.0731325 -0.328184)
(20.8906 0.0729756 -0.294489)
(20.8922 0.0697556 -0.242317)
(20.8474 0.0739696 -0.228891)
(20.6829 0.095716 -0.333609)
(20.2934 0.163162 -0.637268)
(20.1017 0.203373 -0.768868)
(20.1621 0.203238 -0.68558)
(20.6411 0.127292 -0.333068)
(22.169 -0.0186065 0.463215)
(24.7497 -0.171459 0.827903)
(27.0534 -0.149402 0.495868)
(27.4162 0.0292395 0.2444)
(26.7184 0.384286 0.0315399)
(24.0097 -0.250719 -0.0780577)
(22.591 -0.8548 -0.268846)
(21.4069 -1.45763 -0.585642)
(19.8299 -2.4757 -1.14271)
(14.7581 -6.50647 -2.86555)
(6.42992 -11.4751 -3.62072)
(4.85979 -8.50297 -2.32444)
(3.28931 -5.64552 -1.30172)
(2.02867 -3.9209 -0.77205)
(1.61177 -2.74993 -0.455363)
(0.818764 -2.01011 -0.275195)
(0.842562 -1.4838 -0.165086)
(0.204885 -1.17563 -0.105497)
(0.452984 -0.970129 -0.0703813)
(-0.164773 -0.874399 -0.0559101)
(-1.671 13.4727 6.34105)
(-3.3428 3.66589 3.66103)
(1.80355 1.22097 2.57751)
(5.38852 0.0846242 0.179827)
(7.81609 -0.533897 -0.976816)
(8.93683 -0.719263 -1.56267)
(10.1239 -0.78063 -1.52418)
(11.0142 -0.398946 -1.04052)
(12.364 -0.112574 -0.65486)
(14.0868 -3.40505e-05 -0.297693)
(16.1563 0.00429616 0.0470899)
(17.8529 -0.0267146 0.259413)
(18.826 -0.0371594 0.340739)
(19.3278 -0.0747459 0.3366)
(19.4325 -0.130385 0.330428)
(19.3649 -0.170373 0.328949)
(19.12 -0.221137 0.308504)
(18.4936 -0.264773 0.220559)
(16.8998 -0.254367 0.0303077)
(14.2949 -0.105606 -0.195925)
(12.2737 0.183629 -0.472209)
(11.9296 0.359812 -0.642562)
(12.5444 0.378018 -0.680414)
(14.0527 0.346685 -0.688689)
(15.7451 0.272277 -0.676084)
(17.5813 0.188427 -0.542565)
(19.395 0.130135 -0.314222)
(20.6429 0.0750503 -0.14769)
(21.2378 0.0237698 -0.0944989)
(21.4604 0.0116748 -0.096612)
(21.471 0.0167131 -0.110973)
(21.4143 0.0257657 -0.12699)
(21.3803 0.0312169 -0.163334)
(21.4071 0.0122187 -0.190836)
(21.441 -0.000702138 -0.213748)
(21.3646 -0.0271123 -0.243436)
(20.8741 -0.0751276 -0.29525)
(19.4305 0.021216 -0.313005)
(18.3939 0.3769 -0.353257)
(18.4603 0.710795 -0.437706)
(19.9114 1.06062 -0.190733)
(23.8488 0.934233 0.542175)
(26.7071 0.231267 0.602927)
(27.0719 -0.167007 0.493689)
(26.3685 -0.00854686 0.909797)
(24.0685 -0.31211 0.35973)
(22.7117 -0.877698 0.0452575)
(21.6927 -1.44337 -0.174013)
(20.3463 -2.39723 -0.585768)
(16.2271 -5.98211 -2.05381)
(7.6834 -11.1375 -2.6542)
(5.27827 -8.51169 -1.55075)
(3.47662 -5.78017 -0.814545)
(2.10265 -4.01605 -0.473427)
(1.64376 -2.81415 -0.279507)
(0.830651 -2.05309 -0.169906)
(0.845999 -1.51435 -0.102838)
(0.204376 -1.19802 -0.0670845)
(0.451773 -0.988262 -0.0455292)
(-0.164898 -0.890119 -0.0369995)
(-2.64593 4.45386 4.1562)
(-4.33357 3.54098 3.39552)
(-1.64269 3.46321 2.49272)
(-0.722511 0.214713 -0.265638)
(1.63055 -1.6072 -1.91817)
(2.45499 -1.56192 -2.53319)
(3.11884 -1.00809 -2.22459)
(3.6991 -0.190249 -1.38094)
(4.53918 0.595613 -0.731865)
(5.73356 1.07592 -0.329218)
(7.56305 0.957406 -0.145094)
(9.68302 0.524903 0.0377805)
(11.3975 0.188931 0.21523)
(12.4245 -0.0140791 0.319853)
(12.9758 -0.174402 0.40761)
(13.1921 -0.329739 0.520937)
(13.0977 -0.427137 0.633021)
(12.6269 -0.575057 0.761526)
(11.7288 -0.855344 0.761754)
(10.768 -0.987662 0.398404)
(10.2315 -0.5442 -0.222239)
(10.1156 0.0799329 -0.589494)
(10.4599 0.530823 -0.708705)
(11.1866 0.833208 -0.746046)
(12.1808 0.913811 -0.791184)
(13.2052 0.756144 -0.806468)
(14.1571 0.550094 -0.660565)
(14.9149 0.385901 -0.433342)
(15.5043 0.252713 -0.245485)
(15.8619 0.191312 -0.156322)
(15.9638 0.153385 -0.133929)
(15.9865 0.0999468 -0.172301)
(15.9435 0.00715813 -0.281421)
(15.8665 -0.0817883 -0.334796)
(15.7882 -0.111792 -0.281645)
(15.5803 -0.155381 -0.0559674)
(15.1932 -0.236192 0.354674)
(14.9672 -0.186036 0.518473)
(14.9411 0.0791796 0.350393)
(15.2369 0.942437 0.052337)
(16.6167 2.2344 0.0592827)
(19.9312 2.62795 0.677279)
(24.2276 1.23187 1.04322)
(25.2828 -0.790161 0.824919)
(24.7449 -1.2231 0.799263)
(23.9837 -0.456725 0.432045)
(22.4966 -1.06127 0.158335)
(21.6504 -1.61811 0.0539467)
(20.7432 -2.33249 -0.0699521)
(18.5557 -4.21554 -0.394404)
(9.59301 -9.94594 -0.559339)
(5.37374 -8.38114 -0.421444)
(3.38435 -5.75126 -0.226538)
(2.01842 -4.00948 -0.142798)
(1.5867 -2.8175 -0.0911992)
(0.793203 -2.05996 -0.0589973)
(0.820152 -1.52232 -0.0379377)
(0.188997 -1.20618 -0.0262978)
(0.441416 -0.99626 -0.0186418)
(-0.16599 -0.898063 -0.0161591)
(-2.5697 3.90982 0.767793)
(-4.52251 4.53326 2.05117)
(-2.8663 4.6397 3.63038)
(0.550236 0.177979 1.23797)
(4.43096 -2.26424 -2.02712)
(4.63782 -2.40554 -3.34322)
(4.54766 -1.77591 -2.60334)
(4.40177 -0.528989 -0.819555)
(4.7718 0.463636 -0.10093)
(5.74081 1.01349 0.125344)
(7.34854 0.972264 0.359468)
(9.18284 0.625696 0.553177)
(10.8079 0.318958 0.625247)
(11.9015 0.101808 0.54675)
(12.4818 -0.0739812 0.404692)
(12.6341 -0.246715 0.270022)
(12.5003 -0.388846 0.13795)
(12.0756 -0.605926 -0.12276)
(11.3499 -0.869277 -0.372652)
(10.5041 -0.986882 -0.338198)
(9.83036 -0.575361 -0.0834304)
(9.56635 0.057667 -0.0359899)
(9.89545 0.477682 -0.157975)
(10.6286 0.781012 -0.240293)
(11.4579 0.947687 -0.129628)
(12.1695 0.94878 0.0838445)
(12.9237 0.721312 0.222576)
(13.6884 0.428722 0.246606)
(14.4128 0.214407 0.243855)
(14.9896 0.132437 0.275103)
(15.2743 0.115767 0.290549)
(15.2953 0.133917 0.260084)
(15.0735 0.186466 0.173766)
(14.5459 0.140094 -0.0218803)
(14.1845 0.00961247 -0.170155)
(14.0222 -0.0955975 -0.127339)
(13.9825 -0.0983693 0.0961737)
(13.9835 0.0930798 0.446151)
(14.1246 0.450008 0.843517)
(14.5757 1.18793 1.28068)
(16.0195 2.06584 1.57816)
(19.3328 2.28482 1.99957)
(23.4284 1.1009 1.74823)
(24.6401 -0.784339 0.998272)
(24.1669 -1.2517 0.911126)
(23.6469 -0.546192 0.658741)
(22.5059 -1.04541 0.257301)
(21.6438 -1.63576 0.070426)
(20.6935 -2.40421 0.0214119)
(18.5353 -4.28982 0.21071)
(9.53147 -9.89636 1.31858)
(5.32271 -8.3188 0.659052)
(3.37289 -5.72833 0.282853)
(2.01545 -4.00056 0.142141)
(1.58613 -2.81274 0.0749933)
(0.794027 -2.05698 0.0404551)
(0.820639 -1.52021 0.021236)
(0.1898 -1.20483 0.0110087)
(0.441527 -0.994919 0.00535053)
(-0.165575 -0.897205 0.00312548)
(-1.00978 13.8454 -0.980154)
(-0.887961 4.59401 3.02588)
(9.55045 0.80053 4.37267)
(20.8703 -2.03988 -0.139918)
(21.6336 -2.67418 -0.971509)
(18.8902 -2.02961 -2.27055)
(12.3665 -1.52364 -3.32902)
(10.5943 -0.534959 -1.22406)
(10.2165 0.0521204 -0.178244)
(10.8309 0.300596 -0.049666)
(12.6993 0.29388 -0.0466336)
(15.0314 0.1656 0.0073042)
(16.8944 0.0642398 0.118748)
(18.0392 -0.00434922 0.152802)
(18.7341 -0.0822108 0.136396)
(18.9086 -0.130671 0.136953)
(18.7624 -0.157401 0.167075)
(18.0949 -0.214908 0.240267)
(16.3906 -0.257807 0.281155)
(13.8174 -0.158816 0.326255)
(11.8854 0.10066 0.294256)
(11.5507 0.262909 0.136818)
(12.0358 0.267639 -0.107956)
(13.177 0.278523 -0.320881)
(14.6473 0.297041 -0.19235)
(16.1642 0.268764 0.063787)
(17.6556 0.187274 0.124338)
(18.9266 0.101821 0.0969183)
(19.594 0.0566964 0.0947798)
(19.8278 0.0265382 0.130781)
(19.9329 0.0140442 0.161877)
(20.0068 0.00465641 0.131523)
(20.0102 -0.00434429 0.116458)
(19.9137 -0.0160549 0.132089)
(19.5099 -0.0302507 0.165293)
(18.5614 -0.0405817 0.34781)
(17.4943 0.0054971 0.684759)
(16.4205 0.170527 1.10819)
(15.568 0.611816 1.60688)
(15.5345 1.23237 1.9052)
(16.5012 1.84342 1.84517)
(19.3481 1.92653 1.81877)
(22.4195 0.819854 1.73784)
(23.2752 -0.735647 1.05316)
(23.21 -1.05193 0.557471)
(22.9003 -0.674877 0.292907)
(22.4705 -0.872474 0.213044)
(21.6472 -1.40319 0.178677)
(20.135 -2.5327 0.394866)
(14.4568 -7.34948 2.03343)
(7.24591 -10.9905 3.2922)
(4.94763 -8.33163 1.70354)
(3.38405 -5.71687 0.847011)
(2.0695 -3.99313 0.464308)
(1.62919 -2.80309 0.260099)
(0.826113 -2.04707 0.149969)
(0.841935 -1.50979 0.0852503)
(0.204424 -1.19509 0.0508719)
(0.449389 -0.985592 0.031175)
(-0.163235 -0.888218 0.0228615)
(-0.263278 31.9234 -5.99333)
(2.20066 8.7998 -1.0532)
(20.1952 -1.22522 -2.64947)
(27.0309 -4.10618 -1.23952)
(27.2794 -4.42611 -0.373525)
(24.1851 -3.06779 -0.0900953)
(12.1013 -1.32155 0.884731)
(6.2822 -0.680153 0.868843)
(5.16944 -0.00924884 0.298052)
(5.37879 0.272729 -0.0510917)
(6.26369 0.226548 -0.238979)
(7.51001 0.114572 -0.138011)
(8.80866 0.0544356 0.124475)
(9.70159 0.0479904 0.279137)
(10.0967 0.0278827 0.337953)
(10.0788 0.0264433 0.365755)
(9.74857 0.051053 0.511691)
(9.21019 0.102954 0.773084)
(8.61361 0.182095 0.940821)
(8.41574 0.231969 0.963976)
(8.58234 0.215912 0.732404)
(8.81236 0.160888 0.273591)
(8.97911 0.142477 -0.0782622)
(9.14088 0.206716 -0.167807)
(9.47209 0.25186 -0.0377061)
(10.4318 0.221552 0.237831)
(11.5308 0.143995 0.350169)
(12.4116 0.122277 0.374681)
(12.9719 0.176271 0.438946)
(13.3465 0.199271 0.547903)
(13.3776 0.206121 0.585933)
(13.2365 0.183308 0.582681)
(12.8977 0.15905 0.585828)
(12.7249 0.173129 0.694255)
(12.7506 0.221023 0.889949)
(12.8316 0.334955 1.14565)
(13.0088 0.51767 1.46827)
(13.249 0.786437 1.82812)
(13.646 1.15973 2.11469)
(14.5723 1.6238 2.20321)
(16.3105 2.21275 2.10659)
(18.7268 2.47433 1.94853)
(21.9191 1.54536 1.56068)
(23.8801 -0.143381 0.664597)
(23.8861 -0.541831 0.343999)
(23.19 -0.610698 0.370177)
(22.1078 -1.09635 0.477232)
(20.9021 -1.83116 0.699013)
(18.7527 -3.3687 1.26593)
(10.3217 -9.92257 3.57283)
(5.99421 -11.3852 3.81269)
(4.31961 -8.15806 2.26124)
(3.14001 -5.57609 1.27653)
(1.96343 -3.90495 0.741049)
(1.57798 -2.74699 0.426093)
(0.804736 -2.01226 0.250102)
(0.830854 -1.48654 0.143616)
(0.202478 -1.17959 0.0870183)
(0.446659 -0.973581 0.0540358)
(-0.161493 -0.878646 0.0406283)
(-2.818 25.2029 -8.3566)
(10.0511 0.613808 -2.84064)
(20.3579 -5.20106 -1.52195)
(14.7571 -6.72218 0.2724)
(8.74563 -3.57784 2.37332)
(4.04898 -0.0538112 3.98136)
(1.28268 1.02574 3.27069)
(1.31751 0.497048 1.2972)
(1.30314 0.376639 0.278765)
(1.73075 0.421315 -0.162375)
(2.41634 0.389253 -0.323117)
(3.34066 0.300916 -0.299604)
(4.46318 0.208867 -0.135509)
(5.62894 0.0948744 0.0708499)
(6.35159 0.0353181 0.248715)
(6.65634 0.0668159 0.379586)
(6.69553 0.0859592 0.517403)
(6.80028 0.113862 0.606812)
(7.03059 0.163154 0.616503)
(7.37195 0.197923 0.606337)
(7.92352 0.157402 0.635096)
(8.27847 0.194238 0.63641)
(8.27828 0.28569 0.585857)
(8.31495 0.35814 0.528402)
(8.52683 0.365106 0.482473)
(9.00926 0.324719 0.430442)
(9.68383 0.270776 0.420803)
(10.1634 0.282856 0.497423)
(10.3881 0.349073 0.635194)
(10.5897 0.395985 0.74425)
(10.7942 0.380484 0.744411)
(11.0757 0.32835 0.666112)
(11.3616 0.324752 0.577649)
(11.6611 0.337935 0.51765)
(12.0617 0.4078 0.61087)
(12.5694 0.563428 0.960921)
(13.1861 0.808944 1.46609)
(13.817 1.12477 2.08351)
(14.642 1.54607 2.65503)
(15.7187 2.06729 2.73458)
(17.1536 2.60385 2.47539)
(19.8613 2.4356 2.17384)
(22.6187 1.17539 1.77492)
(22.8818 -0.806177 1.12772)
(22.3882 -1.27355 0.654836)
(22.0139 -0.997102 0.485774)
(21.6915 -1.08044 0.571877)
(21.0345 -1.44401 0.927307)
(19.4625 -2.57168 1.77972)
(11.5933 -8.88068 4.57242)
(5.96202 -11.3169 4.26397)
(4.10646 -7.95745 2.84821)
(2.96785 -5.41406 1.70122)
(1.86176 -3.79096 1.00896)
(1.52497 -2.66965 0.585239)
(0.780892 -1.95975 0.346409)
(0.820882 -1.44971 0.199453)
(0.200163 -1.15206 0.122481)
(0.446407 -0.951677 0.0763962)
(-0.161297 -0.859144 0.058499)
(-5.58199 1.70785 -7.94599)
(-7.50647 2.03587 -4.71272)
(-6.99286 1.7023 -0.4889)
(-5.64608 0.644534 3.48889)
(-4.13286 0.264347 3.58469)
(-3.21811 0.419194 2.92273)
(-2.63924 0.692524 1.92882)
(-2.47514 1.03206 0.885056)
(-2.47026 1.19323 0.21199)
(-2.39368 1.26137 -0.175848)
(-2.17588 1.24538 -0.363967)
(-1.80952 1.09032 -0.4085)
(-1.32329 0.80212 -0.332729)
(-0.752461 0.46585 -0.132464)
(-0.158851 0.150274 0.148412)
(0.416471 -0.0946769 0.366978)
(0.899497 -0.214937 0.509812)
(1.41825 -0.238994 0.598562)
(1.84959 -0.112279 0.626493)
(2.22287 0.208119 0.569384)
(2.70952 0.613433 0.572838)
(3.10505 0.951764 0.653642)
(3.44356 1.18974 0.672824)
(3.8166 1.38632 0.633377)
(4.26241 1.52786 0.593307)
(4.85528 1.46619 0.562649)
(5.49458 1.12511 0.565188)
(6.09834 0.685167 0.603721)
(6.72149 0.315524 0.617015)
(7.37046 0.101799 0.624807)
(7.83578 -0.0907149 0.611138)
(8.0558 -0.323309 0.592917)
(8.02254 -0.607633 0.586003)
(7.8463 -0.800961 0.621132)
(7.81162 -0.683502 0.722857)
(8.12764 -0.00098806 1.03038)
(8.79885 1.02601 1.48408)
(9.5694 2.01512 1.83892)
(10.6026 2.81672 1.97997)
(11.7518 3.28993 1.76286)
(13.3384 3.05384 1.14876)
(15.2315 2.25918 0.648515)
(16.778 0.501843 0.341685)
(17.9854 -1.13351 -0.282614)
(19.2523 -1.20789 -0.261408)
(19.8193 -1.10631 0.196162)
(19.9449 -1.24151 0.697035)
(19.5306 -1.68251 1.46747)
(18.0741 -2.78319 2.6813)
(10.7669 -7.64283 5.75462)
(4.03477 -11.1942 5.55972)