/*--------------------------------*- C++ -*----------------------------------*\
| =========                 |                                                 |
| \\      /  F ield         | OpenFOAM: The Open Source CFD Toolbox           |
|  \\    /   O peration     | Version:  2.1.1                                 |
|   \\  /    A nd           | Web:      www.OpenFOAM.org                      |
|    \\/     M anipulation  |                                                 |
\*---------------------------------------------------------------------------*/
FoamFile
{
    version     2.0;
    format      ascii;
    class       volVectorField;
    location    "0.0011";
    object      UFLUK;
}
// * * * * * * * * * * * * * * * * * * * * * * * * * * * * * * * * * * * * * //

dimensions      [0 1 -1 0 0 0 0];

internalField   nonuniform List<vector> 
36520
(
(-3.82916e-05 -0.525796 0.400002)
(-4.96116e-05 0.121459 -0.237392)
(7.54625e-06 0.171934 -0.0159806)
(9.0653e-06 0.0542185 -0.0206921)
(1.131e-05 0.00752472 0.0588954)
(1.23592e-05 -0.00864072 -0.0552013)
(1.30601e-05 0.00658032 -0.179186)
(1.29084e-05 0.0239364 -0.327433)
(1.20112e-05 0.0353827 -0.410979)
(1.10434e-05 0.04168 -0.479961)
(1.07631e-05 0.040406 -0.480967)
(1.14887e-05 0.0347964 -0.475133)
(1.33182e-05 0.0212785 -0.430974)
(1.57567e-05 0.0122598 -0.399397)
(1.88894e-05 0.00325572 -0.368504)
(2.31831e-05 0.000714251 -0.363268)
(2.96645e-05 0.00197672 -0.380817)
(3.92997e-05 0.00902624 -0.425372)
(5.25542e-05 0.0190661 -0.488766)
(6.93483e-05 0.0317298 -0.567226)
(8.88031e-05 0.0451603 -0.64832)
(0.000109506 0.059138 -0.719978)
(0.000128718 0.0711872 -0.765616)
(0.000142924 0.0788253 -0.780659)
(0.000148267 0.0813669 -0.765044)
(0.000141726 0.0806753 -0.72086)
(0.000122269 0.0765734 -0.655154)
(9.27131e-05 0.0684719 -0.578345)
(6.05816e-05 0.059436 -0.505472)
(3.71612e-05 0.0499276 -0.447895)
(3.46569e-05 0.0402207 -0.412889)
(6.22504e-05 0.0308486 -0.404018)
(0.000121202 0.0253307 -0.427529)
(0.00020169 0.0249253 -0.484856)
(0.000285077 0.0326418 -0.570228)
(0.000353536 0.0511636 -0.681681)
(0.000394817 0.0808036 -0.80146)
(0.000399837 0.124198 -0.917239)
(0.000357668 0.184716 -1.0073)
(0.000255491 0.263442 -1.04136)
(0.000100606 0.353785 -0.978778)
(-4.57615e-05 0.446007 -0.774745)
(-0.000103681 0.518265 -0.410538)
(-0.000114717 0.553962 0.0828339)
(-0.000215333 0.52546 0.750828)
(-0.000486711 0.398585 1.70521)
(-0.00025921 0.131058 3.14886)
(7.86744e-05 -0.324439 4.90209)
(6.28841e-06 -0.744411 6.38295)
(-4.18198e-05 -0.881341 6.65777)
(-3.07921e-06 -0.620304 5.78911)
(-7.7821e-08 -0.414855 4.73207)
(-1.80129e-09 -0.254571 3.70027)
(-1.45737e-11 -0.153021 2.85475)
(-9.65661e-14 -0.0894023 2.1739)
(-5.39609e-16 -0.0518049 1.68872)
(-2.94819e-18 -0.0296724 1.30612)
(-1.23977e-20 -0.0151507 1.06825)
(-3.65434e-23 -0.00983471 0.902078)
(-6.7733e-26 -0.00500659 0.82325)
(-2.01413e-05 -0.047213 0.268993)
(-1.38155e-06 0.456656 -0.573572)
(3.84662e-05 0.357354 -0.187291)
(3.97624e-05 0.0542197 -0.103771)
(3.70002e-05 -0.0561264 0.0763199)
(2.97314e-05 -0.089306 -0.0629156)
(2.45839e-05 -0.0251314 -0.156384)
(2.00461e-05 0.0136582 -0.322893)
(1.83825e-05 0.0610996 -0.386323)
(1.87456e-05 0.0803076 -0.447914)
(2.13358e-05 0.0895371 -0.43197)
(2.46493e-05 0.0724656 -0.41336)
(2.80795e-05 0.0459756 -0.350028)
(3.1699e-05 0.0162419 -0.306453)
(3.80232e-05 -0.006987 -0.265511)
(4.83962e-05 -0.0177914 -0.248343)
(6.46104e-05 -0.0147072 -0.263286)
(8.64369e-05 0.000241405 -0.297742)
(0.000112449 0.0254531 -0.358178)
(0.000140118 0.0591631 -0.424961)
(0.000165313 0.097061 -0.498885)
(0.000183757 0.138049 -0.55801)
(0.000189107 0.173635 -0.594369)
(0.000176373 0.195905 -0.59749)
(0.000144484 0.204303 -0.571994)
(9.61949e-05 0.201433 -0.518274)
(3.65804e-05 0.189231 -0.445835)
(-2.69987e-05 0.167308 -0.362754)
(-8.48544e-05 0.142362 -0.285554)
(-0.000125276 0.119289 -0.225294)
(-0.000137976 0.0987813 -0.186859)
(-0.000117692 0.0824316 -0.173996)
(-7.09841e-05 0.0757007 -0.191334)
(-1.80635e-05 0.0878232 -0.236678)
(1.88062e-05 0.128193 -0.308043)
(3.22465e-05 0.207459 -0.406369)
(3.18881e-05 0.329137 -0.51493)
(3.09556e-05 0.493597 -0.624445)
(2.91922e-05 0.704166 -0.713483)
(7.91089e-06 0.94953 -0.745997)
(-5.35278e-05 1.20576 -0.680483)
(-9.14693e-05 1.4375 -0.48373)
(-8.3807e-05 1.58562 -0.183185)
(-2.58203e-05 1.60403 0.240128)
(-5.36733e-05 1.42864 0.902493)
(-0.000223007 1.00883 1.90367)
(-0.000251298 0.194047 3.44901)
(0.000136958 -1.13527 5.55203)
(0.000833501 -2.37995 7.26349)
(-0.000136381 -2.71227 7.50036)
(-2.32458e-05 -1.89414 6.31014)
(-4.82742e-07 -1.26364 5.08438)
(-2.13338e-08 -0.779445 3.92608)
(-2.72308e-10 -0.477935 3.00993)
(-2.5075e-12 -0.288665 2.27849)
(-1.80045e-14 -0.178361 1.76448)
(-1.17284e-16 -0.11067 1.35995)
(-5.35091e-19 -0.0709731 1.10999)
(-1.76697e-21 -0.0520081 0.935361)
(-5.86966e-24 -0.0405974 0.852527)
(-1.31259e-06 0.618399 -0.00256606)
(1.93459e-05 0.879042 -0.797995)
(3.43973e-05 0.605692 -0.278474)
(2.50848e-05 0.128209 -0.0118223)
(1.3464e-05 -0.0418639 0.196556)
(2.77928e-06 -0.0858208 0.0260138)
(-3.79795e-06 0.00405077 -0.091922)
(-8.51117e-06 0.0720161 -0.30932)
(-9.88263e-06 0.132211 -0.376373)
(-1.00692e-05 0.170215 -0.448607)
(-9.09902e-06 0.173596 -0.433603)
(-8.27077e-06 0.149954 -0.407336)
(-7.2642e-06 0.0971473 -0.339273)
(-5.90448e-06 0.0430829 -0.283562)
(-3.15703e-06 0.000553596 -0.240015)
(1.01332e-06 -0.0181623 -0.221949)
(6.23594e-06 -0.00879343 -0.248851)
(1.15505e-05 0.0175643 -0.291927)
(1.60038e-05 0.0612618 -0.365778)
(1.94602e-05 0.118021 -0.442135)
(2.18255e-05 0.182833 -0.526967)
(2.24814e-05 0.251533 -0.594031)
(2.05605e-05 0.311003 -0.637603)
(1.55212e-05 0.348593 -0.644233)
(7.2324e-06 0.360128 -0.621042)
(-1.20688e-06 0.351042 -0.566755)
(-1.79307e-05 0.324951 -0.494247)
(-2.99034e-05 0.274332 -0.419429)
(-3.10878e-05 0.221022 -0.346853)
(-2.55064e-05 0.17259 -0.292774)
(-1.44393e-05 0.125021 -0.258945)
(-4.37946e-06 0.0818127 -0.250601)
(-1.02838e-06 0.0505925 -0.272868)
(-1.11414e-06 0.0458986 -0.325974)
(-1.20058e-06 0.085548 -0.410043)
(-1.3016e-06 0.188322 -0.528218)
(-1.45042e-06 0.358024 -0.666193)
(-1.67199e-06 0.595066 -0.821008)
(-1.98385e-06 0.903797 -0.970422)
(-2.38291e-06 1.26551 -1.08419)
(-2.8081e-06 1.65066 -1.12754)
(-0.0010256 2.00782 -1.04957)
(-0.00383277 2.26597 -0.834745)
(-0.00638408 2.32262 -0.445737)
(-0.00789297 2.06243 0.213308)
(-0.00624293 1.41156 1.25128)
(-0.00227536 0.157073 2.98542)
(0.00554495 -1.85604 5.5931)
(0.0144856 -4.11003 8.25998)
(0.0574793 -4.59073 8.50827)
(-0.00031334 -3.10684 6.78543)
(-1.58858e-06 -2.03647 5.34515)
(-9.62395e-08 -1.23935 4.05063)
(-1.85408e-09 -0.751226 3.0773)
(-2.29985e-11 -0.447041 2.31219)
(-2.11628e-13 -0.270561 1.78294)
(-1.54979e-15 -0.16061 1.36935)
(-7.55286e-18 -0.100554 1.11633)
(-3.63951e-20 -0.067651 0.93951)
(-2.35302e-22 -0.0520318 0.855988)
(-2.554e-05 1.33894 -0.274479)
(-1.002e-05 1.24103 -1.10299)
(3.2958e-06 0.803486 -0.411349)
(-1.71917e-06 0.168053 0.0999832)
(-6.39012e-06 -0.0635364 0.339651)
(-8.29058e-06 -0.114546 0.11058)
(-8.6507e-06 0.0236072 -0.0774303)
(-9.57089e-06 0.102532 -0.323629)
(-1.01959e-05 0.199384 -0.423262)
(-1.12579e-05 0.248811 -0.497248)
(-1.15647e-05 0.260021 -0.481586)
(-8.49328e-06 0.230539 -0.44002)
(-2.83124e-06 0.162944 -0.355106)
(-3.07674e-08 0.0881129 -0.279988)
(-4.9047e-08 0.0254676 -0.229724)
(-7.43276e-08 -0.00850991 -0.217532)
(-1.09979e-07 -0.0131084 -0.262335)
(-1.57672e-07 0.00474128 -0.321929)
(-2.189e-07 0.0522004 -0.416939)
(-2.93841e-07 0.122972 -0.51778)
(-3.81327e-07 0.203265 -0.628626)
(-4.77608e-07 0.289858 -0.725461)
(-5.78437e-07 0.367119 -0.796779)
(-6.76523e-07 0.413502 -0.825033)
(-7.66563e-07 0.422744 -0.81661)
(-0.000137827 0.402352 -0.773775)
(-0.000718136 0.361794 -0.707256)
(-0.000946734 0.288625 -0.624227)
(-0.000865214 0.204703 -0.545583)
(-0.000835014 0.129986 -0.48505)
(-0.000746851 0.0692531 -0.44624)
(-0.000593049 0.00989374 -0.436389)
(-0.000382844 -0.0328478 -0.46268)
(-0.000187442 -0.048214 -0.526932)
(-0.000103584 -0.00908189 -0.63082)
(-0.000359243 0.105827 -0.782081)
(-0.00127459 0.303633 -0.965364)
(-0.00336325 0.580632 -1.18016)
(-0.0078084 0.939911 -1.41067)
(-0.0169773 1.36887 -1.63065)
(-0.0311723 1.81116 -1.7839)
(-0.044766 2.20615 -1.81075)
(-0.0498413 2.43823 -1.68153)
(-0.0454897 2.41971 -1.35027)
(-0.0355298 2.00557 -0.665839)
(-0.0215371 1.16391 0.43243)
(0.000157993 -0.183453 2.23728)
(0.0185885 -2.45425 5.37441)
(0.0255466 -5.06152 8.73438)
(0.0682658 -6.52752 10.2127)
(0.0438739 -4.346 7.55873)
(-1.25508e-05 -2.74293 5.72666)
(-3.32585e-07 -1.66016 4.23404)
(-7.51091e-09 -1.00791 3.17109)
(-1.20861e-10 -0.59913 2.35522)
(-1.42663e-12 -0.365175 1.80355)
(-1.15165e-14 -0.219128 1.37653)
(-7.21929e-17 -0.140729 1.11889)
(-8.93831e-19 -0.0961492 0.939102)
(-7.78268e-21 -0.0759807 0.854566)
(-3.5183e-05 2.0412 -0.994399)
(-2.32475e-05 1.57339 -1.66358)
(-1.34826e-05 1.08844 -0.584955)
(-1.35928e-05 0.337371 0.268915)
(-1.01774e-05 0.0572561 0.541473)
(-3.26661e-06 -0.019299 0.238704)
(-1.96351e-07 0.129135 -0.0408456)
(-6.29663e-09 0.205588 -0.34331)
(-6.59481e-09 0.302422 -0.481176)
(-1.8363e-05 0.349526 -0.580551)
(-0.000169959 0.34594 -0.575232)
(-0.000541039 0.29061 -0.528551)
(-0.000925985 0.183226 -0.446257)
(-0.0011062 0.0609372 -0.356582)
(-0.00119226 -0.0436235 -0.304236)
(-0.0013413 -0.0966595 -0.294413)
(-0.00151821 -0.101531 -0.348074)
(-0.0017483 -0.0717431 -0.435332)
(-0.00206891 -0.0109165 -0.56786)
(-0.00253104 0.0784995 -0.703348)
(-0.00308886 0.180446 -0.844122)
(-0.00389082 0.303031 -0.971203)
(-0.00481303 0.413577 -1.07186)
(-0.00536931 0.484888 -1.12883)
(-0.00556436 0.496042 -1.14611)
(-0.00574471 0.458969 -1.126)
(-0.00622497 0.393003 -1.07632)
(-0.00641352 0.28034 -1.00137)
(-0.00580923 0.142095 -0.926834)
(-0.00467718 0.0124842 -0.86591)
(-0.00360145 -0.102196 -0.825955)
(-0.00297029 -0.220337 -0.810581)
(-0.00185442 -0.32171 -0.819451)
(0.000736212 -0.38294 -0.859994)
(0.00254747 -0.362165 -0.948518)
(0.00225219 -0.229323 -1.12764)
(0.000482653 0.0211572 -1.39525)
(-0.00327023 0.356529 -1.73962)
(-0.0101992 0.744901 -2.13391)
(-0.0226598 1.18702 -2.50714)
(-0.0435184 1.63287 -2.78316)
(-0.0728981 1.97912 -2.93773)
(-0.0965692 2.16841 -2.90846)
(-0.0949689 2.15137 -2.63889)
(-0.0634133 1.76579 -1.84353)
(-0.0327747 0.961217 -0.635437)
(-0.00177445 -0.0153469 0.831308)
(0.0207798 -1.85816 3.73534)
(0.0336718 -5.51786 8.51921)
(0.09145 -7.83539 11.5759)
(0.108274 -5.65939 8.65167)
(-7.52241e-05 -3.31094 6.18934)
(-2.58119e-06 -1.98932 4.46916)
(-3.85404e-08 -1.19665 3.28624)
(-5.16509e-10 -0.705011 2.40961)
(-6.61445e-12 -0.428648 1.83013)
(-6.0492e-14 -0.255338 1.38797)
(-9.22031e-16 -0.163698 1.12409)
(-2.06935e-17 -0.110167 0.94106)
(-2.02379e-19 -0.087116 0.855022)
(-5.70285e-05 2.21906 -1.69024)
(-2.75607e-05 1.69917 -2.28051)
(-4.6017e-05 1.27843 -0.930131)
(-0.000378203 0.526438 0.387331)
(-0.000571164 0.174206 0.647355)
(-0.000638709 0.0558294 0.235737)
(-0.000851472 0.190282 -0.167465)
(-0.00092887 0.25981 -0.513402)
(-0.00107015 0.383705 -0.698007)
(-0.00130396 0.466625 -0.793231)
(-0.0015968 0.472271 -0.782211)
(-0.00193459 0.414353 -0.694018)
(-0.00226284 0.303725 -0.578529)
(-0.00258922 0.16094 -0.445704)
(-0.00310479 0.0355406 -0.371504)
(-0.00383746 -0.0171411 -0.384088)
(-0.0048326 -0.0500445 -0.507175)
(-0.00614904 -0.071188 -0.666207)
(-0.00807293 -0.065633 -0.849758)
(-0.011512 0.0115987 -1.02587)
(-0.0174708 0.116503 -1.21674)
(-0.0290747 0.218958 -1.38772)
(-0.0521117 0.300113 -1.53657)
(-0.0863143 0.31211 -1.64098)
(-0.1172 0.235303 -1.69981)
(-0.128528 0.103273 -1.71935)
(-0.105233 -0.0312368 -1.71396)
(-0.0630578 -0.222513 -1.66517)
(-0.0183979 -0.446964 -1.59613)
(0.0145896 -0.631087 -1.53802)
(0.020361 -0.748464 -1.45723)
(0.008296 -0.857855 -1.34846)
(-0.018727 -0.941799 -1.23433)
(-0.0416065 -0.994724 -1.15263)
(-0.0376162 -0.972206 -1.15749)
(-0.02779 -0.882014 -1.30991)
(-0.0258963 -0.715058 -1.59667)
(-0.0359666 -0.457139 -1.9611)
(-0.059557 -0.122454 -2.35788)
(-0.0937647 0.290093 -2.73244)
(-0.146185 0.740534 -2.9946)
(-0.223936 1.1198 -3.06659)
(-0.274186 1.36515 -2.88036)
(-0.192086 1.37525 -2.46442)
(-0.116094 0.919903 -1.5589)
(-0.0599204 0.29289 -0.461485)
(-0.0222247 -0.444245 0.617768)
(0.0130179 -1.864 2.66598)
(0.0825821 -4.98983 6.45084)
(0.353572 -8.31199 11.455)
(0.199908 -6.89883 9.91732)
(0.046327 -3.73892 6.72628)
(-4.3553e-06 -2.20211 4.72443)
(-5.94102e-07 -1.3102 3.41055)
(-3.26208e-09 -0.771005 2.46823)
(-2.84226e-11 -0.469552 1.85759)
(-3.913e-13 -0.281103 1.39933)
(-1.34588e-14 -0.181449 1.12822)
(-3.63263e-16 -0.123022 0.941682)
(-3.98243e-18 -0.097801 0.854265)
(-0.000226509 2.81436 -3.53423)
(2.1103e-05 1.84741 -3.46972)
(-1.67453e-05 1.40047 -1.6466)
(-0.00125667 0.806792 0.282173)
(-0.00746803 0.413548 0.63867)
(-0.00681823 0.225609 0.194405)
(-0.0139221 0.35722 -0.299079)
(-0.0144172 0.40261 -0.721719)
(-0.0135714 0.485316 -0.965563)
(-0.01438 0.518027 -1.12582)
(-0.0165268 0.4962 -1.18917)
(-0.0198836 0.377532 -1.15221)
(-0.0229961 0.204098 -1.06882)
(-0.0236324 -0.0239118 -0.966267)
(-0.0264077 -0.225619 -0.89813)
(-0.0297718 -0.355251 -0.908679)
(-0.033299 -0.459897 -1.03544)
(-0.0409261 -0.547434 -1.21902)
(-0.0527222 -0.570153 -1.42339)
(-0.0650982 -0.509504 -1.65303)
(-0.0733241 -0.437453 -1.92325)
(-0.0852317 -0.352959 -2.21157)
(-0.118163 -0.281714 -2.45319)
(-0.181856 -0.285739 -2.59942)
(-0.232569 -0.440115 -2.65052)
(-0.267874 -0.76736 -2.61418)
(-0.293786 -0.928832 -2.6792)
(-0.176338 -0.889018 -2.81083)
(-0.0611264 -0.92499 -2.82424)
(-0.114854 -1.30586 -2.65246)
(-0.0855823 -2.10557 -2.03252)
(0.0299173 -2.12727 -1.95394)
(0.0889014 -2.14212 -1.80848)
(0.0228906 -2.03503 -1.71993)
(-0.0915606 -1.53731 -1.84207)
(-0.159697 -1.22791 -1.82244)
(-0.200873 -1.23664 -1.77081)
(-0.349031 -1.03392 -1.88453)
(-0.753374 -0.721073 -1.99224)
(-1.14473 -0.195982 -2.03788)
(-1.28027 0.364595 -2.13572)
(-1.40682 0.784382 -2.06917)
(-1.47299 0.908379 -1.80223)
(-1.5208 0.749302 -1.4794)
(-0.983973 0.208597 -1.5146)
(-0.163118 -0.415338 -0.774552)
(-0.0440801 -1.35526 0.237432)
(0.039662 -2.35138 1.56933)
(0.304599 -3.62337 3.40379)
(0.737722 -5.91869 7.76554)
(0.337876 -7.12748 10.9075)
(0.100006 -3.95105 7.2977)
(-0.000268854 -2.25148 4.96724)
(-8.41794e-06 -1.33252 3.52889)
(-5.2785e-08 -0.783367 2.52381)
(-2.34029e-10 -0.476328 1.88272)
(-3.5315e-12 -0.285265 1.40958)
(-1.5082e-13 -0.183969 1.13125)
(-4.68235e-15 -0.124247 0.941144)
(-5.82927e-17 -0.0989262 0.852227)
(-0.303252 1.2698 -4.27553)
(-0.575602 0.673657 -4.61404)
(-0.00147451 0.689061 -2.70688)
(0.00178963 0.357424 1.06231)
(0.0140806 -0.153691 0.810062)
(0.00555239 0.539624 -0.695187)
(-0.0156304 0.559914 -1.26413)
(-0.0405154 0.436012 -1.77601)
(-0.070989 0.519818 -2.10866)
(-0.11536 0.652103 -2.32496)
(-0.0982775 0.615724 -2.37694)
(-0.0732264 0.34383 -2.25671)
(-0.0769907 0.1585 -2.0605)
(-0.0880823 -0.0739058 -1.88052)
(-0.116731 -0.240954 -1.64788)
(-0.155653 -0.258903 -1.58049)
(-0.142995 -0.272825 -1.81259)
(-0.14657 -0.427311 -2.23096)
(-0.18665 -0.677214 -2.66228)
(-0.235091 -0.807198 -3.08546)
(-0.255455 -0.801849 -3.47782)
(-0.224617 -0.776262 -3.84544)
(-0.180913 -0.767642 -4.17526)
(-0.16887 -0.756229 -4.43605)
(-0.184992 -0.758479 -4.57807)
(-0.202377 -0.785459 -4.56304)
(-0.214524 -0.854967 -4.41122)
(-0.211073 -0.93675 -4.1827)
(-0.203927 -1.01762 -3.95467)
(-0.246883 -1.06262 -3.76985)
(-0.295928 -1.04502 -3.60364)
(-0.165067 -1.04988 -3.41129)
(0.015379 -1.09164 -3.21027)
(0.111463 -1.15584 -2.97207)
(0.130394 -1.15974 -2.73705)
(0.0667089 -1.14581 -2.58521)
(0.0248762 -1.26187 -2.54584)
(0.0552602 -1.30397 -2.62795)
(0.0675953 -1.09812 -2.85549)
(-0.250312 0.155427 -2.78801)
(-0.549308 0.997112 -1.04999)
(-0.482295 1.3278 -0.801604)
(-0.654484 1.38003 -0.263898)
(-1.2736 0.786661 0.214324)
(-1.52277 0.0261861 0.0505575)
(-0.990495 -1.11783 -0.0604162)
(-0.113209 -1.63818 0.40397)
(0.213366 -2.0229 1.18528)
(0.798548 -2.52297 2.48381)
(0.848466 -4.15592 6.0841)
(0.457567 -6.00767 11.04)
(0.159721 -3.80496 7.78187)
(-0.00336364 -2.17068 5.15894)
(-9.03231e-05 -1.28475 3.61198)
(-6.60243e-07 -0.757011 2.55454)
(-2.33189e-09 -0.460383 1.88777)
(-2.53873e-11 -0.277675 1.40373)
(-1.22602e-12 -0.180273 1.1209)
(-4.34864e-14 -0.122837 0.92918)
(-6.1496e-16 -0.0985389 0.840061)
(0.000437291 2.57178 -18.3603)
(0.000557178 0.519372 -5.75537)
(-0.00189907 1.69803 -1.3585)
(-0.000374758 0.799077 0.690824)
(0.00246793 0.19026 0.823377)
(0.00406835 -0.715205 0.299429)
(0.00231196 -1.1752 -0.183062)
(0.000957807 -1.43922 -0.486231)
(0.00197791 -1.54822 -0.621647)
(0.000357712 -1.71198 -0.724494)
(-0.00270424 -1.97309 -0.836471)
(-0.000687295 -2.36219 -0.971228)
(0.00330277 -2.72168 -1.11547)
(0.00492908 -3.03142 -1.21829)
(0.00573609 -3.16572 -1.25222)
(0.00483768 -3.32353 -1.32829)
(0.00314347 -3.55788 -1.46772)
(0.00205299 -3.80855 -1.60891)
(-0.00116252 -3.9609 -1.68427)
(-0.0143597 -3.93773 -1.73739)
(-0.0267096 -3.75853 -1.76536)
(-0.0351255 -3.53325 -1.80068)
(-0.0438363 -3.4008 -1.82224)
(-0.0538847 -3.34878 -1.78398)
(-0.054086 -3.36273 -1.6736)
(-0.037821 -3.39705 -1.52714)
(-0.0183076 -3.40771 -1.47004)
(-0.00685038 -3.42551 -1.47832)
(-0.00250282 -3.42811 -1.4529)
(-0.00142672 -3.35513 -1.40191)
(-0.0022572 -3.23558 -1.35971)
(-0.00377574 -3.1042 -1.29715)
(-0.00279562 -2.97503 -1.23248)
(0.00019603 -2.81931 -1.17437)
(0.00159088 -2.70075 -1.13377)
(0.00152072 -2.67115 -1.1475)
(0.00413378 -2.67098 -1.16387)
(0.0131 -2.6795 -1.14241)
(0.0258628 -2.63147 -1.1135)
(0.0234891 -2.3974 -1.08077)
(0.00773263 -1.69237 -1.08538)
(-0.000234759 -0.935161 -1.10813)
(-0.00111251 -0.948893 -0.872113)
(-0.258237 -1.73197 -0.532813)
(-1.64322 -0.871497 0.0593502)
(-1.0633 -0.947225 -0.0579717)
(-0.282683 -1.21892 0.362427)
(0.406874 -1.54345 1.12531)
(0.881851 -1.83375 2.28194)
(0.865863 -3.09565 5.93155)
(0.536617 -4.54284 11.2823)
(0.223734 -3.13538 8.30976)
(-0.0114027 -1.79435 5.4757)
(-0.000623357 -1.06141 3.8002)
(-6.02944e-06 -0.621092 2.66763)
(-2.29975e-08 -0.373313 1.95391)
(-1.50877e-10 -0.22212 1.44382)
(-7.93137e-12 -0.141353 1.14574)
(-3.13562e-13 -0.0937435 0.946132)
(-4.89196e-15 -0.0743665 0.853283)
(0.073972 7.28773 -19.7938)
(0.000523582 3.02732 -7.35396)
(0.000819647 2.10841 -2.66687)
(8.48428e-05 0.00178983 -1.29863)
(0.00102219 -1.16417 -0.282798)
(0.00194887 -1.88636 -0.26247)
(0.00197684 -2.14679 -0.458531)
(0.000841819 -2.08277 -0.489653)
(-0.00123553 -1.84067 -0.430142)
(-0.0025503 -1.79177 -0.365241)
(-0.00076063 -1.93298 -0.39514)
(0.00163338 -2.12246 -0.456426)
(0.00218938 -2.2236 -0.511813)
(0.00210964 -2.3711 -0.550726)
(0.00308705 -2.46735 -0.570146)
(0.00485703 -2.54827 -0.579029)
(0.00539611 -2.78739 -0.602955)
(0.0046595 -3.37677 -0.752866)
(0.00341306 -4.0852 -0.981191)
(0.000460123 -4.47294 -1.15458)
(-0.0109518 -4.35667 -1.19262)
(-0.0299372 -4.03691 -1.1252)
(-0.0348658 -3.7544 -1.01109)
(-0.0411076 -3.67704 -0.919765)
(-0.0434893 -3.67975 -0.825294)
(-0.0325497 -3.61563 -0.75748)
(-0.0145115 -3.51556 -0.775182)
(-0.00178874 -3.45147 -0.810032)
(0.00230734 -3.43501 -0.818321)
(0.00218161 -3.39924 -0.800252)
(0.00174738 -3.31803 -0.780387)
(0.00172191 -3.19763 -0.760784)
(0.00178825 -3.03088 -0.731944)
(0.0017755 -2.82725 -0.695941)
(0.00167111 -2.65452 -0.663795)
(0.00176708 -2.59623 -0.645111)
(0.00269258 -2.72113 -0.665654)
(0.00399688 -2.64317 -0.650602)
(0.00375533 -2.33878 -0.595429)
(0.00177633 -1.7849 -0.475391)
(0.000867229 -0.844797 -0.295933)
(0.00407946 -0.36929 -0.113417)
(0.00865076 -0.579281 -0.103881)
(-0.0781324 -0.699598 -0.252939)
(-0.988885 -0.413359 -0.492829)
(-0.646032 -0.683662 0.13473)
(-0.212074 -0.915863 0.711672)
(0.379739 -1.13687 1.32686)
(0.832253 -1.43433 2.41305)
(0.842223 -2.91548 6.49857)
(0.534305 -3.62253 11.4751)
(0.228839 -2.32235 8.50362)
(-0.00984495 -1.29424 5.6481)
(-0.000739269 -0.771904 3.92095)
(-7.31558e-06 -0.455362 2.74993)
(-2.86863e-08 -0.275195 2.01011)
(-1.75638e-10 -0.165086 1.4838)
(-9.31677e-12 -0.105497 1.17563)
(-3.68431e-13 -0.0703813 0.970129)
(-5.66689e-15 -0.0559101 0.874399)
(0.0001208 5.94606 -13.5412)
(0.000153997 3.27108 -3.74959)
(-0.00133043 1.53445 -1.43718)
(-0.000622789 -1.47173 -0.423233)
(0.00143035 -3.01688 0.119401)
(0.00290979 -3.94588 0.241197)
(0.00176008 -4.18632 0.255173)
(0.000894548 -3.9292 -0.165195)
(0.000281209 -3.73611 -0.484522)
(-0.000527815 -3.55326 -0.627167)
(-0.000710377 -3.365 -0.663981)
(-9.80489e-05 -3.35443 -0.683926)
(0.000574929 -3.52162 -0.735344)
(0.00101743 -3.78197 -0.758999)
(0.0016288 -4.00222 -0.755355)
(0.00203488 -4.19287 -0.761693)
(0.00167404 -4.42844 -0.758687)
(0.000739277 -4.77083 -0.761742)
(-0.00195798 -5.15604 -0.802252)
(-0.0114827 -5.42302 -0.951577)
(-0.0547702 -5.58995 -1.26461)
(-0.303495 -5.64738 -1.39579)
(0.0534749 -5.72267 0.087911)
(-0.0530098 -5.7619 -0.488842)
(-0.0561913 -5.7322 -1.06891)
(-0.0195351 -5.60194 -1.23131)
(-0.00311584 -5.41347 -1.16369)
(0.000610831 -5.25651 -1.11825)
(0.0013995 -5.17097 -1.07361)
(0.00123254 -5.10036 -1.05302)
(0.00056526 -4.99513 -1.04765)
(-0.000194148 -4.83889 -1.0561)
(-0.000585351 -4.6664 -1.02469)
(0.000130438 -4.44362 -0.956325)
(0.00133773 -4.17877 -0.860268)
(0.00233491 -3.87753 -0.747314)
(0.00355795 -3.55856 -0.607711)
(0.00559482 -3.13011 -0.591407)
(0.00726338 -2.68797 -0.81612)
(0.00349606 -2.36189 -1.00173)
(-0.005092 -1.79626 -1.22987)
(0.00661409 -0.83384 -1.0753)
(0.0123423 -0.609637 -0.399027)
(-0.223776 -0.558088 -0.0358024)
(-1.19853 0.561798 -0.0491259)
(-0.810972 -0.272885 0.317579)
(-0.307815 -0.673891 0.719671)
(0.427125 -0.670647 1.05776)
(0.84245 -0.700374 2.06715)
(0.874765 -2.04968 5.89171)
(0.578201 -2.65166 11.1298)
(0.253512 -1.54988 8.51451)
(-0.0160821 -0.806145 5.78383)
(-0.00104753 -0.473263 4.0161)
(-1.01614e-05 -0.279506 2.81415)
(-3.87641e-08 -0.169906 2.05309)
(-2.13455e-10 -0.102838 1.51435)
(-1.09932e-11 -0.0670845 1.19802)
(-4.22689e-13 -0.0455292 0.988262)
(-6.29164e-15 -0.0369995 0.890119)
(0.0193155 4.45586 -4.50209)
(0.00256646 2.91244 -3.82008)
(0.000349997 1.40732 -4.01576)
(3.54072e-05 -2.02916 -1.08451)
(-6.73318e-05 -4.0756 0.518881)
(-0.000980813 -5.05354 0.293529)
(-0.0176521 -5.00985 -0.341436)
(-0.470933 -4.14915 -1.69697)
(-0.412967 -3.728 -2.88994)
(-0.19879 -4.21401 -3.07774)
(-0.0682444 -4.65516 -3.0114)
(-0.0201829 -4.9749 -2.76503)
(-0.00949549 -5.21505 -2.60881)
(-0.0168915 -5.4398 -2.5346)
(-0.0586241 -5.53437 -2.4414)
(-0.143989 -5.48438 -2.33726)
(-0.069518 -5.42003 -2.20721)
(0.399547 -5.41655 -1.69575)
(-0.0319515 -5.72252 0.425683)
(-7.28522 -3.14439 2.74337)
(-7.98753 -0.0536805 2.80857)
(1.25548 -1.47752 5.21022)
(1.36086 -6.13186 0.617179)
(-0.632893 -6.35658 -1.72661)
(-3.3464 -6.09779 -1.60483)
(-2.94877 -6.50993 -1.24647)
(1.38511 -5.21604 -4.5481)
(1.20844 -4.50964 -5.01777)
(0.662346 -5.7454 -3.35619)
(-0.998677 -6.24768 -1.6343)
(-4.07276 -5.51845 -1.15471)
(-4.78099 -5.14831 -0.477506)
(0.340564 -5.89265 -1.27801)
(2.6361 -3.7653 -3.75577)
(2.54117 -3.94249 -3.02557)
(0.525223 -3.83598 -2.5819)
(-0.236322 -3.71219 -0.627581)
(0.253849 -2.99127 -0.308742)
(0.274733 -2.43095 -0.83105)
(0.0627034 -2.04305 -1.72545)
(0.00458921 -1.54171 -2.92402)
(0.0535721 -0.775882 -3.03685)
(0.568428 1.11203 -0.0630357)
(-1.58164 1.46819 0.746045)
(-1.72216 0.657753 1.14082)
(-1.26996 -0.311369 0.354005)
(-0.622601 -0.809936 0.938944)
(0.373585 -0.734011 1.1995)
(0.985825 -0.352187 1.99112)
(1.00121 -0.407588 4.15804)
(0.655273 -0.558133 9.94268)
(0.27935 -0.421154 8.38146)
(-0.0419894 -0.221777 5.75341)
(-0.00127065 -0.142681 4.00952)
(-1.02829e-05 -0.0911985 2.8175)
(-3.44763e-08 -0.0589973 2.05996)
(-1.93178e-10 -0.0379377 1.52232)
(-8.6238e-12 -0.0262978 1.20618)
(-2.82546e-13 -0.0186418 0.99626)
(-3.63095e-15 -0.0161591 0.898063)
(-0.18547 1.06775 -3.76522)
(-0.0427314 1.4176 -4.31232)
(-0.0478972 2.36136 -4.4485)
(-0.037409 -0.734627 -0.0396624)
(-0.00811514 -4.42592 2.39827)
(0.0723946 -6.15388 2.87107)
(0.275306 -5.62839 2.87609)
(0.0899942 -3.81292 2.55467)
(-0.400321 -3.22432 2.08558)
(-0.166623 -3.77048 1.40252)
(-0.00793841 -4.21118 1.45564)
(0.031392 -4.60491 1.91022)
(0.0169634 -5.02527 2.31407)
(-0.0130156 -5.51583 2.51592)
(-0.0390618 -5.89417 2.70325)
(-0.0620495 -6.09126 2.92694)
(-0.0558882 -6.15241 3.21264)
(-0.0261718 -6.23628 3.58959)
(-1.25415 -6.43381 3.38933)
(-7.79734 -3.82084 1.83622)
(-4.73747 0.145454 5.52095)
(-0.278381 1.45236 5.23543)
(1.37789 -4.47159 2.85606)
(0.448479 -5.332 1.68499)
(-0.0195153 -5.08793 2.02095)
(-2.65644 -3.74663 2.98714)
(-4.82047 -3.14675 2.82758)
(0.892105 -4.62538 3.14793)
(4.72285 -4.7313 1.28486)
(1.85169 -5.53385 1.206)
(0.108428 -5.25087 2.10186)
(-0.479733 -3.92462 3.8076)
(-2.55206 -3.6353 3.45783)
(-2.80027 -3.2178 3.55264)
(0.203929 -4.99212 0.915263)
(3.11296 -3.97769 -0.576296)
(2.24742 -3.50378 0.299831)
(0.354767 -2.79478 0.577171)
(-0.152052 -1.75662 0.221268)
(-0.251103 -0.786916 -0.730858)
(-0.0382482 -0.123877 -1.79329)
(0.44523 0.517861 -2.40253)
(0.566759 3.05161 -1.69738)
(-1.63632 1.97722 0.561237)
(-2.04938 0.701299 1.13976)
(-1.36299 -0.309158 0.424909)
(-0.625401 -0.825809 1.34928)
(0.321255 -0.671933 2.28564)
(0.952159 -0.262993 2.85731)
(1.02377 0.201361 4.35695)
(0.665679 1.3203 9.89921)
(0.280389 0.659317 8.31857)
(-0.041897 0.287539 5.72528)
(-0.00122882 0.142256 4.00049)
(-9.81635e-06 0.0749939 2.81274)
(-3.31194e-08 0.0404551 2.05698)
(-1.88186e-10 0.021236 1.52021)
(-8.44952e-12 0.0110087 1.20483)
(-2.77734e-13 0.00535053 0.994919)
(-3.57683e-15 0.00312548 0.897205)
(-0.518517 -0.951305 -13.8189)
(-0.300948 2.45323 -4.62316)
(-0.117605 3.01153 -0.658614)
(-0.0383444 -2.02585 2.25561)
(0.0120601 -3.35318 2.9558)
(0.0516445 -5.12021 2.43824)
(0.0509463 -6.50475 2.08125)
(0.010563 -4.66078 1.16276)
(-0.000562357 -3.80411 0.613243)
(-0.000815205 -3.84257 0.397815)
(-0.00227055 -4.0331 0.446547)
(-0.00361319 -4.20918 0.621192)
(-0.00402482 -4.32855 0.767371)
(-0.00299804 -4.49724 0.875885)
(-0.00104479 -4.6808 0.987908)
(0.000279887 -4.80923 1.06456)
(0.00122286 -4.89198 1.11522)
(0.000845064 -4.92307 1.18752)
(-0.00219876 -4.91233 1.22402)
(-0.00761967 -4.73523 1.09058)
(-0.0228329 -4.49848 0.849088)
(-0.245208 -3.73443 2.20301)
(-0.530075 2.69886 3.04845)
(-0.451204 -3.67001 2.4334)
(-0.0499787 -4.64041 -0.02091)
(-0.0309606 -4.46495 0.129683)
(-0.016814 -4.42095 0.581258)
(-0.00645723 -4.46582 0.782996)
(-0.00330867 -4.47444 0.81055)
(-0.00297817 -4.39662 0.823436)
(-0.00264799 -4.27342 0.824521)
(-0.00303396 -4.16926 0.811809)
(-0.00451746 -3.99931 0.791775)
(-0.00655215 -3.74983 0.746047)
(-0.00445769 -3.44959 0.683077)
(0.00088701 -2.95169 0.623304)
(0.00623658 -2.25269 0.493896)
(0.0104745 -1.4233 0.257936)
(0.00700354 -0.50745 -0.267732)
(-0.00345245 0.167968 -0.963943)
(-0.0117548 0.401375 -1.62583)
(0.0108763 0.545788 -1.74655)
(0.00661841 0.535213 -0.615218)
(-0.691461 0.0258348 0.946764)
(-1.33295 0.173756 1.09196)
(-0.696951 -0.516804 0.556856)
(-0.159077 -0.60672 1.06786)
(0.47488 -0.230201 1.9479)
(0.738379 0.403217 3.02047)
(0.847185 2.0791 7.53934)
(0.556531 3.29971 11.0118)
(0.186593 1.7385 8.29537)
(-0.0218482 0.852235 5.71294)
(-0.000708446 0.464407 3.99306)
(-6.06834e-06 0.2601 2.80309)
(-2.41391e-08 0.149969 2.04707)
(-1.50686e-10 0.0852503 1.50979)
(-7.98914e-12 0.0508719 1.19509)
(-3.07891e-13 0.031175 0.985592)
(-4.55073e-15 0.0228615 0.888218)
(-0.0147729 -6.46317 -31.8291)
(-0.0560656 -1.55027 -8.69305)
(-0.135304 -3.60191 1.41314)
(-0.0723066 -2.65364 4.40709)
(0.0145959 -2.39191 4.84526)
(0.135435 -2.91053 3.64568)
(0.269647 -2.39034 2.00553)
(0.307955 -2.49091 1.40519)
(-0.938177 -3.04213 -0.86359)
(-2.1965 -1.62277 -3.12818)
(-0.356649 -3.96079 0.205159)
(-0.130628 -3.98386 0.625839)
(-0.0411005 -3.86356 0.774089)
(-0.00890489 -3.82167 0.820836)
(0.00592559 -3.84974 0.860238)
(0.018029 -3.88003 0.86882)
(0.0177759 -3.74837 0.83435)
(-0.00843013 -3.43669 0.745989)
(-0.0332194 -3.13985 0.590522)
(0.0511477 -2.95174 0.451824)
(2.2043 -2.05838 1.81968)
(1.4299 2.74394 2.31498)
(-1.61739 2.96977 -1.74666)
(-1.40346 -0.245936 -3.46589)
(-2.79296 0.169968 -3.02744)
(-2.08686 0.570721 -3.24543)
(0.427376 -3.18333 -0.431618)
(0.310262 -3.08775 0.51354)
(0.175549 -2.96729 0.496154)
(0.0767127 -2.79678 0.439994)
(0.0280962 -2.69955 0.213822)
(-0.0150434 -2.55044 -0.649236)
(-0.741455 -1.97196 -1.5394)
(-1.59202 -0.880578 -2.05882)
(-2.609 -0.311014 -1.44089)
(2.49911 -0.11379 0.398048)
(1.00163 -0.397479 -0.0615555)
(0.172405 0.0551317 -0.452842)
(-0.000695898 0.570258 -0.897307)
(-0.00809133 0.882327 -1.39645)
(-0.00262976 0.975352 -2.00391)
(0.0278038 0.962011 -2.2666)
(0.0167503 0.667613 -1.3434)
(-0.687644 0.0308664 0.322247)
(-1.03487 0.178387 0.576887)
(-0.541748 -0.237992 0.647839)
(-0.0518499 -0.172886 1.22157)
(0.582507 0.217318 1.98493)
(0.975231 1.17792 3.46135)
(0.800334 3.5714 9.94741)
(0.449338 3.81296 11.3855)
(-0.109795 2.29257 8.14304)
(-0.0106334 1.2788 5.57463)
(-0.000254513 0.741089 3.90492)
(-2.27257e-06 0.426093 2.74699)
(-9.47755e-09 0.250102 2.01226)
(-7.55331e-11 0.143616 1.48654)
(-3.98487e-12 0.0870183 1.17959)
(-1.50213e-13 0.0540358 0.973581)
(-2.18294e-15 0.0406283 0.878646)
(-0.0105659 -8.77345 -25.0726)
(-0.0167586 -3.38943 -0.413933)
(-0.00771884 -2.63675 5.62531)
(0.0145882 -1.21149 7.39971)
(0.0346524 0.77958 4.62477)
(0.0617344 2.19299 1.42235)
(0.0419538 1.07489 -0.040935)
(-0.00713245 -1.14494 0.460285)
(-0.0432606 -2.34239 0.671503)
(-0.257977 -2.87767 0.925188)
(-0.444716 -3.16015 1.24268)
(-0.280808 -3.40903 1.35219)
(-0.0761774 -3.51489 1.35791)
(-0.0122184 -3.5043 1.39255)
(-0.00586322 -3.42252 1.4227)
(-0.00906448 -3.31443 1.37357)
(-0.0126193 -3.15068 1.32032)
(-0.0163369 -2.9947 1.26186)
(0.0205612 -2.89265 1.20962)
(0.381332 -2.721 1.33018)
(3.20941 -1.35291 1.79268)
(-2.5907 2.05125 -2.77742)
(-4.67143 1.12548 -1.39505)
(-4.41392 0.870724 -1.69341)
(0.202069 0.26552 2.74124)
(1.00884 0.209204 2.64008)
(0.863841 -1.26822 2.16228)
(0.149587 -2.1141 1.17601)
(-0.0477281 -2.11221 0.594128)