/*--------------------------------*- C++ -*----------------------------------*\
| =========                 |                                                 |
| \\      /  F ield         | OpenFOAM: The Open Source CFD Toolbox           |
|  \\    /   O peration     | Version:  2.1.1                                 |
|   \\  /    A nd           | Web:      www.OpenFOAM.org                      |
|    \\/     M anipulation  |                                                 |
\*---------------------------------------------------------------------------*/
FoamFile
{
    version     2.0;
    format      ascii;
    class       volScalarField;
    location    "0.00135";
    object      alpha1;
}
// * * * * * * * * * * * * * * * * * * * * * * * * * * * * * * * * * * * * * //

dimensions      [0 0 0 0 0 0 0];

internalField   nonuniform List<scalar> 
36520
(
-3.02613e-12
-2.25705e-13
-3.1152e-13
-3.8606e-13
-5.1368e-13
-6.57654e-13
-8.12496e-13
-9.76125e-13
-1.15209e-12
-1.34942e-12
-1.59601e-12
-1.91892e-12
-2.38012e-12
-3.0452e-12
-3.99948e-12
-5.30387e-12
-6.99229e-12
-9.00921e-12
-1.12688e-11
-1.28844e-11
-1.3435e-11
-1.31988e-11
-1.28929e-11
-1.29391e-11
-1.33644e-11
-1.40423e-11
-1.48201e-11
-1.59173e-11
-1.76929e-11
-2.05666e-11
-2.48615e-11
-3.06545e-11
-3.75959e-11
-4.48946e-11
-5.14449e-11
-5.60936e-11
-5.78422e-11
-5.60257e-11
-5.04453e-11
-4.12954e-11
-2.94314e-11
-1.66958e-11
-5.91593e-12
1.47194e-18
1.79519e-11
5.75815e-11
8.35021e-11
1.41909e-10
2.44022e-10
1.89413e-10
6.41994e-11
-7.70724e-14
-3.35945e-10
-6.41678e-10
-8.51525e-10
-9.3892e-10
-1.03138e-09
-1.20547e-09
-2.34553e-09
-6.35188e-09
-5.52798e-12
-3.40265e-12
-3.67567e-12
-4.16416e-12
-4.80112e-12
-5.39795e-12
-6.05124e-12
-6.79797e-12
-7.65411e-12
-8.66279e-12
-9.95049e-12
-1.16451e-11
-1.4104e-11
-1.76555e-11
-2.26938e-11
-2.92804e-11
-3.71138e-11
-4.50685e-11
-5.16022e-11
-5.56028e-11
-5.811e-11
-5.88681e-11
-5.75115e-11
-5.43867e-11
-4.99059e-11
-4.46067e-11
-3.89172e-11
-3.30523e-11
-2.81346e-11
-2.50656e-11
-2.41559e-11
-2.50366e-11
-2.68507e-11
-2.87775e-11
-3.01774e-11
-3.05562e-11
-2.94742e-11
-2.65535e-11
-2.14657e-11
-1.38594e-11
-2.96633e-12
1.82293e-11
2.83105e-10
1.08344e-09
2.22223e-09
3.19132e-09
3.5417e-09
2.73732e-09
8.47531e-10
1.1054e-11
-1.3223e-14
-5.82668e-12
-1.98302e-10
-1.23019e-09
-2.93562e-09
-4.25592e-09
-5.87217e-09
-6.71956e-09
-1.2129e-08
-2.67721e-08
-1.00104e-11
-8.22715e-12
-8.30581e-12
-8.56993e-12
-8.81103e-12
-8.85498e-12
-8.88206e-12
-8.93024e-12
-9.04865e-12
-9.30789e-12
-9.96093e-12
-1.1068e-11
-1.28408e-11
-1.5242e-11
-1.82337e-11
-2.10886e-11
-2.23484e-11
-2.00441e-11
-1.18022e-11
-8.8808e-16
-1.62902e-15
-1.29037e-15
-1.17162e-15
-5.35321e-16
-1.9998e-16
-1.05712e-16
-6.54742e-17
-4.01751e-17
-1.0434e-17
3.85422e-19
-2.16213e-20
-6.70707e-21
-1.72565e-20
1.80918e-21
7.52586e-20
2.33721e-20
-1.95947e-18
-1.90577e-18
1.66497e-12
2.57505e-11
1.22241e-10
3.34791e-10
7.6503e-10
3.03822e-09
1.66984e-08
7.88423e-08
2.6662e-07
6.22617e-07
1.03879e-06
1.42906e-06
1.7336e-06
1.70072e-06
3.95534e-07
6.55822e-08
-7.53916e-10
-4.49e-10
-1.1921e-08
-1.38401e-08
-2.32232e-08
-2.48378e-08
-1.29873e-11
-9.84184e-12
-9.25714e-12
-8.72769e-12
-8.21844e-12
-7.55846e-12
-6.55167e-12
-4.52006e-12
-1.6989e-12
5.51183e-20
8.75766e-20
3.93679e-19
1.02477e-18
1.03529e-18
-1.41711e-18
7.27588e-18
-3.76606e-17
4.03237e-11
1.16018e-10
2.85621e-10
6.13292e-10
9.06506e-10
9.81585e-10
1.06145e-09
1.50079e-09
2.32495e-09
3.15183e-09
4.02971e-09
5.11662e-09
6.30596e-09
7.57971e-09
9.20246e-09
1.10174e-08
1.25113e-08
1.34508e-08
1.38987e-08
1.36161e-08
1.20972e-08
9.85411e-09
7.31444e-09
5.213e-09
3.93601e-09
3.49821e-09
7.11075e-09
3.09639e-08
1.34519e-07
5.00762e-07
1.54007e-06
3.58435e-06
6.5276e-06
2.18486e-05
0.000120102
0.000417703
0.000405435
0.000102484
4.64962e-06
-6.44025e-09
-4.78667e-09
-1.71973e-08
8.25409e-07
-1.08319e-11
-5.93441e-12
-2.5585e-12
-3.28777e-19
-6.74811e-19
1.84634e-18
8.1195e-12
2.3626e-11
3.87578e-11
5.75553e-11
8.49231e-11
1.16218e-10
1.22011e-10
3.58122e-11
3.45624e-15
9.39917e-10
7.68772e-09
2.09243e-08
3.39216e-08
4.28468e-08
6.11979e-08
9.56154e-08
1.35116e-07
1.78517e-07
2.17182e-07
2.40852e-07
2.49399e-07
2.49947e-07
2.63254e-07
3.01857e-07
3.66021e-07
4.37408e-07
5.01813e-07
5.43271e-07
5.53555e-07
5.00576e-07
4.3486e-07
3.5281e-07
2.70762e-07
1.99217e-07
1.40105e-07
1.00305e-07
8.09374e-08
7.64443e-08
1.21531e-07
2.34286e-07
4.82739e-07
1.1511e-06
2.95119e-06
9.29738e-06
4.76685e-05
0.000317433
0.001286
0.0030441
0.00332078
0.00178222
0.00033471
8.26748e-05
2.4121e-05
0.00010313
-5.24728e-12
3.46943e-19
4.53893e-11
1.84438e-10
3.68481e-10
6.00681e-10
9.41231e-10
1.22299e-09
1.35499e-09
1.79282e-09
2.88263e-09
6.12059e-09
1.84978e-08
6.37171e-08
2.15443e-07
6.71017e-07
1.62892e-06
2.82965e-06
3.58569e-06
2.53072e-06
1.35458e-06
1.11048e-06
1.48485e-06
1.93554e-06
2.31895e-06
2.57999e-06
2.80627e-06
3.07507e-06
3.31073e-06
3.53509e-06
3.92296e-06
4.57435e-06
5.32913e-06
5.94077e-06
6.3179e-06
6.37616e-06
5.86315e-06
4.99259e-06
4.1521e-06
3.46084e-06
2.92462e-06
2.60221e-06
2.49314e-06
2.14145e-06
1.90128e-06
2.37593e-06
3.60803e-06
6.15883e-06
1.23631e-05
3.30877e-05
0.000107738
0.000480918
0.00242802
0.00850604
0.0158447
0.0241133
0.0213598
0.011415
0.00269597
0.00114336
2.3025e-10
1.62113e-09
3.79466e-09
7.05022e-09
1.06004e-08
1.68385e-08
2.79928e-08
5.06641e-08
7.62689e-08
1.15765e-07
1.77519e-07
2.86825e-07
5.50749e-07
1.4072e-06
3.468e-06
7.31368e-06
1.36294e-05
2.46041e-05
3.59884e-05
3.26543e-05
1.5531e-05
5.54437e-06
5.29113e-06
6.18516e-06
6.71459e-06
6.94588e-06
7.0764e-06
7.99222e-06
9.54165e-06
1.14239e-05
1.3779e-05
1.65176e-05
1.92935e-05
2.10704e-05
2.20119e-05
2.45761e-05
2.81867e-05
3.20338e-05
3.20632e-05
2.59791e-05
2.0528e-05
2.09915e-05
2.74067e-05
3.47899e-05
2.7732e-05
1.83878e-05
1.58959e-05
2.40399e-05
7.31008e-05
0.000242042
0.000610309
0.000938712
0.00115538
0.00228202
0.0185107
0.15762
0.235193
0.156481
0.0388812
0.00525576
5.85766e-10
2.78074e-09
6.30939e-09
1.01512e-08
1.33964e-09
9.42415e-16
1.2482e-13
-4.00661e-14
3.41388e-07
4.9185e-06
6.41242e-06
6.99348e-06
1.03121e-05
2.05342e-05
4.30875e-05
7.04104e-05
9.44958e-05
0.000111273
0.000124475
0.000136668
9.56853e-05
3.29144e-05
1.61062e-05
1.76319e-05
2.1733e-05
2.40453e-05
2.44717e-05
2.49418e-05
2.58636e-05
2.80396e-05
3.20093e-05
3.78335e-05
4.49159e-05
5.13045e-05
6.02811e-05
9.15467e-05
0.000188478
0.000262433
0.00022545
0.000166842
0.000161935
0.000171634
0.000184235
0.000183429
0.000173958
0.000160058
0.000161135
0.000162966
0.000170661
0.000238524
0.000350105
0.00032045
0.000200136
0.000175334
0.000943844
0.0981066
0.662368
0.592221
0.143712
0.0143226
3.15773e-16
3.43031e-16
3.67661e-16
3.90259e-16
7.16068e-15
5.59731e-16
8.45534e-17
1.45048e-12
-2.64998e-12
4.00586e-06
2.64296e-05
5.89419e-05
0.000153193
0.000479471
0.00147189
0.00331943
0.00450626
0.00419352
0.00251096
0.00102298
0.000587954
0.000459748
0.000367211
0.000268826
0.000180393
0.000128488
0.000105746
9.32878e-05
8.90823e-05
9.4145e-05
0.000108892
0.000128292
0.000143818
0.000160337
0.000184898
0.0002219
0.000269783
0.000322894
0.000382815
0.000462927
0.000564342
0.000674572
0.000776114
0.000855027
0.000897461
0.000883921
0.000770518
0.000550962
0.000286819
0.000130088
0.000116702
0.000116732
0.000116691
0.000116732
0.000272021
0.0243375
0.601161
0.74039
0.261476
0.0318915
-6.50053e-16
4.13754e-15
-1.06212e-15
-9.14492e-13
-2.88256e-15
9.76728e-06
4.82518e-05
0.000122984
0.000139043
9.45543e-05
9.30881e-05
0.000131621
0.000231776
0.000474037
0.00112052
0.00291803
0.00578757
0.00635155
0.00490995
0.00235604
0.00116332
0.000947271
0.000906644
0.000903598
0.000892389
0.000851275
0.000737082
0.000511147
0.000237646
0.000110827
0.000111627
0.000143046
0.000204049
0.000266988
0.00033356
0.000421915
0.000531401
0.000641281
0.000732894
0.000795939
0.000832256
0.000864921
0.000885146
0.000904381
0.000916425
0.0008612
0.000699175
0.000424403
0.000221483
0.000218059
0.00026924
0.000351513
0.000333111
0.000126861
0.00042749
0.0299486
0.526114
0.616124
0.22817
0.0316138
-1.20526e-14
-7.93316e-13
2.18357e-11
1.66453e-12
4.91879e-10
-8.32001e-14
-7.38056e-14
4.67106e-13
4.05785e-14
2.75957e-06
2.11806e-05
4.04011e-05
0.000128075
0.000439791
0.00182538
0.00672464
0.0149591
0.0160594
0.0115247
0.00373187
0.000645515
0.000335846
0.000329351
0.00034375
0.000367715
0.000381658
0.000359414
0.000283848
0.000178887
0.000112173
0.000108972
0.000146594
0.000230372
0.000243239
0.000222065
0.000208506
0.00020866
0.000212402
0.000224543
0.000255195
0.000296131
0.000335492
0.000366772
0.000385278
0.000402405
0.000417931
0.000395881
0.000284568
0.000132065
0.000121883
0.000222095
0.000281413
0.000181562
7.48763e-05
0.000432745
0.0434721
0.602952
0.609623
0.185323
0.0258026
3.39671e-08
2.03344e-09
1.28172e-07
5.77605e-07
7.35725e-07
-1.64617e-14
8.53357e-16
8.56636e-15
8.46426e-07
4.63589e-06
7.24387e-06
1.09753e-05
2.43936e-05
8.04691e-05
0.000434605
0.00429679
0.0230924
0.038432
0.0314588
0.0151381
0.00244758
4.94689e-05
3.43411e-05
3.44103e-05
6.36409e-05
0.000111019
0.000167994
0.000186302
0.00016523
9.6316e-05
5.50121e-05
7.27981e-05
0.00022597
0.000420165
0.000283485
0.000130549
6.0539e-05
6.00661e-05
0.000117731
0.00067776
0.000785924
0.000740697
0.000322403
0.000196727
0.000250675
0.000261853
0.000188328
9.5352e-05
8.75524e-05
0.000103792
0.000341954
0.000236463
7.48761e-05
7.48615e-05
0.000379429
0.063341
0.740377
0.788944
0.209841
0.0154171
3.02597e-08
2.5514e-07
1.05701e-06
2.47487e-06
5.18051e-06
9.41057e-06
1.51888e-05
1.43392e-05
2.34169e-05
3.94252e-05
4.80125e-05
4.68372e-05
4.74613e-05
0.000102799
0.000395706
0.0020415
0.0116433
0.0469147
0.0987838
0.092153
0.042622
0.00582044
0.000160757
2.77917e-05
2.22932e-05
2.23017e-05
4.59953e-05
0.000122014
0.000161117
0.000136934
6.73516e-05
6.10746e-05
0.00010603
0.000410946
0.00049572
0.000284103
0.000101243
6.46914e-05
6.47011e-05
6.99188e-05
0.000333115
0.000781827
0.000556165
0.000161807
7.14419e-05
8.27824e-05
0.000201026
0.000531774
0.000489243
0.000329472
0.000343195
0.000164707
7.4867e-05
7.48738e-05
0.000376496
0.0513432
0.726763
0.735525
0.193208
0.0147421
3.48423e-14
3.51739e-14
6.39456e-07
1.02617e-05
2.23271e-05
4.24083e-05
8.82115e-05
0.000227318
0.000687921
0.00171057
0.00216382
0.00186943
0.000904667
0.000230331
0.000189488
0.000248112
0.00253968
0.031776
0.154787
0.216595
0.148154
0.0427566
0.00395009
0.000270319
0.00023515
0.00027457
0.000312185
0.000308367
0.000275121
0.000187139
8.99406e-05
7.00868e-05
9.42459e-05
0.000190593
0.000251962
0.000239283
0.000222406
0.00022189
0.000228067
0.000246781
0.000284188
0.000348662
0.000357926
0.000336294
0.000282691
0.00028587
0.000445041
0.000676119
0.000546141
0.000495667
0.000639398
0.000530588
0.00014534
9.24573e-05
0.00151175
0.100095
0.548261
0.436341
0.10412
0.0145666
1.04635e-13
-1.85138e-13
7.43326e-06
3.62829e-05
8.98351e-05
0.000183893
0.000422196
0.00127754
0.00470325
0.0149682
0.0197032
0.0161851
0.00801833
0.00150715
0.000223487
0.000318954
0.00121226
0.00578254
0.0283366
0.100679
0.141697
0.101831
0.0290311
0.00216926
0.000176627
0.000150344
0.000131105
9.45229e-05
6.91358e-05
7.38632e-05
0.000113407
0.00027614
0.000428912
0.000428923
0.000264629
7.87411e-05
9.08715e-05
0.000108099
0.000120778
0.000186073
0.000419797
0.000663583
0.000621643
0.000428674
0.000293904
0.000298341
0.000338444
0.000394933
0.000427163
0.000528143
0.000678947
0.000508822
0.000102908
0.000116329
0.00292523
0.175973
0.506751
0.318048
0.0603482
0.00905664
1.40505e-14
2.76548e-13
-1.71463e-13
3.34981e-05
0.000125757
0.000337452
0.000981462
0.00301412
0.00492206
0.00363678
0.000627697
7.71319e-06
8.02856e-06
2.10367e-05
8.96348e-05
0.000769771
0.00433699
0.0114539
0.0159185
0.0185753
0.01887
0.0136394
0.00419534
0.000395929
0.000151587
0.00014968
0.000149779
0.000189728
0.000334991
0.000577602
0.000636006
0.000500626
0.00018763
2.70483e-05
1.9702e-05
0.000151993
0.00118657
0.00135176
0.00135025
0.000506794
0.000281128
0.000391439
0.000343976
0.000201865
0.000200785
0.00055157
0.000591334
0.000591197
0.000591322
0.000587119
0.000372128
0.000146737
5.03388e-05
6.18816e-05
0.00241974
0.212272
0.630384
0.350906
0.054567
0.00929017
2.10733e-10
5.54968e-10
4.79173e-10
1.17027e-16
5.21263e-16
1.98878e-14
-1.64323e-13
1.6735e-11
7.85464e-06
1.17609e-05
8.92383e-06
7.71224e-06
8.31187e-06
1.19702e-05
1.82728e-05
2.56249e-05
3.62933e-05
5.81236e-05
0.000123869
0.000277393
0.000398372
0.000299816
8.64088e-05
2.1368e-05
1.94906e-05
3.13584e-05
9.20939e-05
0.000165735
0.000163581
0.000159579
0.000136753
6.39252e-05
2.32689e-05
2.84924e-05
0.000198376
0.000748132
0.000839045
0.000671964
0.000363807
0.000114654
5.38541e-05
5.99221e-05
5.40641e-05
5.18757e-05
9.14425e-05
0.000196535
0.000298497
0.000295241
0.000283176
0.000198284
0.000106547
5.23333e-05
5.04534e-05
0.000104837
0.00404937
0.19185
0.493123
0.30035
0.0589341
0.00653973
6.41596e-18
1.60524e-10
2.89694e-10
2.70061e-10
2.86252e-10
2.00348e-10
9.18793e-11
2.33544e-11
-1.2478e-13
-5.59113e-12
-9.9701e-12
1.93463e-15
6.59104e-15
2.27589e-14
6.04243e-14
7.9786e-14
3.55619e-14
-2.14843e-14
3.92243e-13
-3.02027e-12
-4.2605e-11
2.73376e-07
4.32681e-06
8.88332e-06
1.54766e-05
2.35524e-05
3.19196e-05
2.58625e-05
1.75225e-05
1.56252e-05
1.62914e-05
1.84599e-05
2.32688e-05
2.68663e-05
3.00755e-05
3.52229e-05
3.96097e-05
3.05993e-05
1.62529e-05
1.07843e-05
1.00275e-05
1.05695e-05
1.14778e-05
1.26069e-05
1.95992e-05
2.59346e-05
3.93294e-05
4.34163e-05
4.96944e-05
6.30363e-05
4.29546e-05
4.33129e-05
7.27205e-05
0.000568686
0.012051
0.0891666
0.164695
0.127534
0.0371206
0.00435506
-1.38873e-10
-1.13484e-10
-8.29435e-11
-3.16665e-11
-9.6152e-13
2.39362e-18
-4.00232e-18
-6.68283e-18
7.38982e-19
6.63228e-15
4.84935e-17
1.35044e-16
3.64859e-16
1.72717e-15
3.06369e-11
4.53497e-10
9.49792e-10
1.15601e-09
5.12355e-09
4.40926e-08
1.83852e-07
5.59275e-07
1.24387e-06
2.14801e-06
2.61784e-06
1.68743e-06
6.27748e-07
1.37966e-07
5.7977e-08
4.42832e-08
4.01189e-08
2.36919e-08
-5.86219e-15
3.11814e-16
2.65265e-14
4.12045e-14
9.82925e-08
1.93923e-07
2.18101e-07
2.37921e-07
2.43419e-07
2.16982e-07
1.85448e-07
2.8197e-07
6.97225e-07
1.93881e-06
4.89759e-06
9.49989e-06
1.90008e-05
5.07842e-05
0.000117849
0.000155719
0.000288098
0.00120735
0.00581516
0.0157912
0.0221591
0.020563
0.00980781
0.00217408
-1.7856e-10
-1.9812e-10
-2.324e-10
-2.63835e-10
-3.02172e-10
-3.43949e-10
-3.90949e-10
-4.37264e-10
-4.86306e-10
-5.37371e-10
-6.00397e-10
-6.67827e-10
-7.35338e-10
-7.73793e-10
-7.3822e-10
-5.45808e-10
-2.45239e-10
-2.43867e-16
9.95662e-10
7.37273e-09
2.04115e-08
3.09018e-08
3.45009e-08
2.89834e-08
1.03746e-08
2.52355e-13
2.03815e-13
-1.31331e-13
-5.69076e-14
-1.18096e-10
-6.02776e-10
-6.67852e-10
-2.32172e-10
-4.78078e-17
1.52249e-16
-9.75122e-16
6.3838e-10
2.54575e-09
5.36997e-09
9.38257e-09
1.60281e-08
3.58182e-08
1.0606e-07
3.57817e-07
1.21917e-06
4.18742e-06
1.41309e-05
4.18995e-05
9.27608e-05
0.000138305
0.000171799
0.000208826
0.000177051
7.22748e-05
7.04842e-05
0.000387603
0.000699341
0.000792039
0.000555858
0.000496688
-1.33668e-10
-1.67584e-10
-2.21368e-10
-2.80368e-10
-3.45656e-10
-4.18622e-10
-4.98905e-10
-5.8252e-10
-6.67179e-10
-7.51582e-10
-8.46445e-10
-9.58486e-10
-1.10179e-09
-1.27268e-09
-1.46634e-09
-1.66598e-09
-1.83859e-09
-1.92889e-09
-1.89032e-09
-1.58438e-09
-8.27636e-10
-3.36615e-10
-1.02518e-10
-1.1575e-09
-2.21951e-09
-2.5273e-09
-2.66713e-09
-2.74672e-09
-2.70759e-09
-2.59726e-09
-2.40508e-09
-2.1267e-09
-1.7673e-09
-1.35268e-09
-9.20426e-10
-5.16387e-10
-1.7807e-10
-7.6327e-12
1.48902e-10
2.45152e-09
1.52749e-08
7.03679e-08
2.76343e-07
9.49894e-07
2.86516e-06
7.66703e-06
1.98056e-05
5.11164e-05
0.000112791
0.00015716
0.000135797
8.40957e-05
4.25467e-05
5.31102e-06
1.06685e-06
2.52182e-06
3.34969e-06
3.14566e-06
4.73657e-06
2.88671e-05
-5.55586e-11
-6.45514e-11
-8.75386e-11
-1.16819e-10
-1.51452e-10
-1.89891e-10
-2.32688e-10
-2.77615e-10
-3.24137e-10
-3.71982e-10
-4.25865e-10
-4.89069e-10
-5.68889e-10
-6.65e-10
-7.78581e-10
-9.03004e-10
-1.03243e-09
-1.15535e-09
-1.26317e-09
-1.34392e-09
-1.39872e-09
-1.44851e-09
-1.51053e-09
-1.60672e-09
-1.68613e-09
-1.7451e-09
-1.7938e-09
-1.82469e-09
-1.82535e-09
-1.77907e-09
-1.6643e-09
-1.47046e-09
-1.20056e-09
-8.6915e-10
-5.141e-10
-2.88387e-10
-1.17225e-10
6.24845e-13
7.99807e-10
5.86195e-09
2.54937e-08
1.07901e-07
4.29819e-07
1.53931e-06
4.80993e-06
1.23257e-05
2.44802e-05
3.60673e-05
4.79501e-05
5.64001e-05
5.09125e-05
2.34682e-05
3.54197e-06
3.32432e-07
-1.65111e-09
-4.59615e-10
-8.68082e-11
-1.34149e-09
-3.53145e-09
2.51367e-08
-1.03253e-11
-1.00945e-11
-1.35567e-11
-1.86379e-11
-2.53233e-11
-3.29015e-11
-4.17233e-11
-5.11375e-11
-6.14021e-11
-7.23666e-11
-8.48976e-11
-9.95255e-11
-1.17532e-10
-1.39224e-10
-1.65088e-10
-1.94528e-10
-2.27221e-10
-2.62125e-10
-2.99448e-10
-3.36589e-10
-3.6687e-10
-3.89433e-10
-4.08669e-10
-4.29131e-10
-4.52764e-10
-4.79142e-10
-5.05319e-10
-5.28415e-10
-5.44698e-10
-5.50182e-10
-5.41768e-10
-5.20425e-10
-4.85138e-10
-4.39311e-10
-3.85248e-10
-3.21711e-10
-2.45727e-10
-1.59369e-10
-9.00648e-11
-5.6865e-11
-2.11856e-11
-5.5881e-16
1.35097e-09
3.00545e-08
1.20208e-07
3.28974e-07
5.46373e-07
6.03005e-07
2.82992e-07
1.92737e-07
1.00538e-07
3.02198e-08
1.26683e-08
2.50913e-08
4.86798e-08
1.56043e-08
7.7992e-09
1.26491e-08
1.32519e-08
-5.87026e-09
-3.23058e-12
-3.39363e-13
-4.60284e-13
-6.47726e-13
-9.91969e-13
-1.44062e-12
-2.00854e-12
-2.6512e-12
-3.38481e-12
-4.19962e-12
-5.14706e-12
-6.25853e-12
-7.62252e-12
-9.31352e-12
-1.13957e-11
-1.39068e-11
-1.6868e-11
-2.02855e-11
-2.43509e-11
-2.8741e-11
-3.24128e-11
-3.50196e-11
-3.71818e-11
-3.96101e-11
-4.27449e-11
-4.67202e-11
-5.16098e-11
-5.76353e-11
-6.4928e-11
-7.34712e-11
-8.32271e-11
-9.44301e-11
-1.06645e-10
-1.20329e-10
-1.35151e-10
-1.48943e-10
-1.56598e-10
-1.50061e-10
-1.21511e-10
-6.94292e-11
-1.58475e-11
8.66719e-12
-2.15464e-13
-7.26918e-16
1.47714e-10
1.36117e-09
2.88967e-09
3.78447e-09
9.16175e-10
1.15063e-10
1.12566e-10
4.60898e-10
6.87231e-10
6.38546e-10
1.78651e-10
2.80917e-12
-8.52908e-11
-9.99877e-14
5.49381e-10
2.43872e-11
-1.00065e-12
-2.23174e-13
-2.93067e-13
-3.52345e-13
-4.52948e-13
-5.67991e-13
-7.18618e-13
-8.92663e-13
-1.11087e-12
-1.36838e-12
-1.69299e-12
-2.09202e-12
-2.59764e-12
-3.2331e-12
-4.03159e-12
-5.01778e-12
-6.2179e-12
-7.64641e-12
-9.32137e-12
-1.1246e-11
-1.34191e-11
-1.58203e-11
-1.83896e-11
-2.10057e-11
-2.34562e-11
-2.54158e-11
-2.64663e-11
-2.62014e-11
-2.4463e-11
-2.16057e-11
-1.86097e-11
-1.6392e-11
-1.50407e-11
-1.44761e-11
-1.46792e-11
-1.55517e-11
-1.67661e-11
-1.7435e-11
-1.67269e-11
-1.42664e-11
-1.04626e-11
-6.89259e-12
-4.98547e-12
-4.86068e-12
-5.72181e-12
-7.12558e-12
-8.17788e-12
-8.51408e-12
-7.88908e-12
-6.61299e-12
-5.8109e-12
-7.78217e-12
-1.82348e-11
-3.79903e-11
-5.45151e-11
-6.16214e-11
-7.15163e-11
-1.23266e-10
-3.18151e-10
-2.78909e-09
-2.96209e-12
-4.3195e-12
-5.43993e-12
-7.01778e-12
-8.99233e-12
-1.11695e-11
-1.38005e-11
-1.67178e-11
-2.02113e-11
-2.41222e-11
-2.88718e-11
-3.43691e-11
-4.09934e-11
-4.87688e-11
-5.77359e-11
-6.77832e-11
-7.8496e-11
-8.92704e-11
-9.93279e-11
-1.07533e-10
-1.12725e-10
-1.13335e-10
-1.07848e-10
-9.49685e-11
-7.41164e-11
-4.59942e-11
-1.26083e-11
2.76039e-11
2.27875e-10
5.43776e-10
7.97276e-10
9.3031e-10
9.5383e-10
8.87734e-10
6.25909e-10
3.31852e-10
1.38071e-10
4.31329e-11
1.75463e-11
1.94637e-11
8.30577e-11
1.61233e-10
1.79438e-10
1.5925e-10
1.31819e-10
1.24517e-10
1.35632e-10
1.93789e-10
3.3116e-10
6.43676e-10
1.21172e-09
1.63271e-09
1.71219e-09
1.43695e-09
1.18034e-09
1.38456e-09
1.89535e-09
3.74176e-09
3.02377e-08
1.35493e-08
-3.37869e-12
-1.36229e-11
-1.90794e-11
-2.5671e-11
-3.31804e-11
-4.14868e-11
-5.05168e-11
-6.00978e-11
-7.01728e-11
-8.03049e-11
-9.06417e-11
-1.00326e-10
-1.0913e-10
-1.15827e-10
-1.19199e-10
-1.18488e-10
-1.12428e-10
-1.00516e-10
-8.20843e-11
-5.7564e-11
-2.84377e-11
1.0625e-12
7.81385e-11
2.95634e-10
5.22927e-10
7.10239e-10
8.31658e-10
9.61742e-10
5.15007e-09
3.37206e-08
8.25834e-08
9.71925e-08
1.08089e-07
1.15135e-07
1.19772e-07
7.2535e-08
2.28367e-08
1.58677e-08
1.57724e-08
1.86299e-08
3.37333e-08
5.70567e-08
8.52981e-08
1.07889e-07
1.11895e-07
1.00733e-07
2.14267e-07
5.52443e-07
1.27357e-06
2.19231e-06
2.87378e-06
2.87672e-06
2.48271e-06
2.20195e-06
2.01082e-06
1.7272e-06
1.57999e-06
1.42668e-06
2.42404e-06
9.31998e-06
-3.01458e-11
-4.9806e-11
-7.1046e-11
-9.40514e-11
-1.16647e-10
-1.39892e-10
-1.61512e-10
-1.82754e-10
-2.02067e-10
-2.20488e-10
-2.37596e-10
-2.53328e-10
-2.66777e-10
-2.75674e-10
-2.7647e-10
-2.65661e-10
-2.40241e-10
-1.99857e-10
-1.48498e-10
-1.05987e-10
-6.66409e-11
-2.84934e-11
3.43088e-12
7.21281e-11
2.12175e-10
3.86047e-10
7.74753e-10
2.33521e-09
8.25078e-09
2.00357e-08
3.04136e-08
3.66054e-08
4.05064e-08
4.28725e-08
4.31409e-08
4.14942e-08
4.63571e-08
7.46287e-08
1.35664e-07
3.08413e-07
5.85018e-07
9.87919e-07
1.48977e-06
1.82755e-06
1.89452e-06
2.33795e-06
6.1616e-06
2.22432e-05
9.82577e-05
0.000326258
0.000528341
0.000563304
0.000389937
0.000105915
3.68797e-05
2.32381e-05
3.72781e-05
5.13284e-05
8.75777e-05
0.000232033
-9.79395e-11
-1.43776e-10
-1.9635e-10
-2.45539e-10
-2.9107e-10
-3.33625e-10
-3.68612e-10
-3.99157e-10
-4.19297e-10
-4.27589e-10
-4.39846e-10
-4.53341e-10
-4.71434e-10
-4.91288e-10
-5.09502e-10
-5.15247e-10
-4.95825e-10
-4.39006e-10
-3.46412e-10
-2.34429e-10
-1.30423e-10
-5.86837e-11
-1.27323e-11
1.48614e-11
1.23512e-10
3.48277e-10
7.69513e-10
1.62897e-09
2.97555e-09
4.46389e-09
5.86329e-09
7.3805e-09
8.82537e-09
9.0256e-09
1.19954e-08
1.6694e-08
2.61371e-08
4.00934e-08
7.32673e-08
1.60637e-07
3.67486e-07
8.15033e-07
1.39444e-06
2.34199e-06
7.22162e-06
5.64186e-05
0.000313102
0.000566278
0.000693263
0.00072672
0.000730623
0.000730486
0.000502036
0.000348774
0.000183735
0.00024483
0.00067589
0.0012521
0.00188749
0.00193968
-1.08383e-10
-1.26313e-10
-1.27144e-10
-1.18669e-10
-1.10691e-10
-1.06553e-10
-9.35405e-11
-4.00097e-11
-2.44321e-20
-1.11082e-17
-4.70911e-17
-1.07979e-16
-1.46791e-16
-4.83078e-16
-1.1e-15
-1.21453e-15
-9.33246e-16
-5.27892e-16
-3.8812e-16
-3.43659e-16
-2.92938e-16
3.26831e-12
2.92472e-10
1.95338e-09
5.95225e-09
1.21857e-08
2.03139e-08
2.89239e-08
3.55305e-08
3.83751e-08
3.77517e-08
3.37979e-08
2.94646e-08
2.20206e-08
1.76705e-08
3.37064e-08
8.31428e-08
1.41346e-07
1.67578e-07
2.35337e-07
3.72846e-07
6.46872e-07
1.29012e-06
5.44795e-06
3.47546e-05
0.000126326
0.000186124
0.00022859
0.000290762
0.000413859
0.000404314
0.000245621
0.000252412
0.000622151
0.000830123
0.00195192
0.00631923
0.0144482
0.0167352
0.00554137
-5.65866e-11
-1.1411e-11
2.38981e-17
4.31347e-17
-9.53861e-17
4.60154e-10
2.6081e-09
6.05752e-09
1.207e-08
2.21074e-08
3.47116e-08
4.97518e-08
6.69848e-08
8.31071e-08
9.11887e-08
8.53178e-08
7.94072e-08
7.78242e-08
7.51405e-08
7.35394e-08
7.75607e-08
9.44444e-08
1.24703e-07
1.65109e-07
2.20485e-07
2.92964e-07
3.84543e-07
5.06452e-07
6.75391e-07
8.71152e-07
1.03864e-06
1.12602e-06
1.19591e-06
1.28321e-06
1.42356e-06
1.59107e-06
1.80928e-06
1.80236e-06
1.61164e-06
1.14876e-06
7.52408e-07
6.44088e-07
1.00578e-06
3.57486e-06
1.00039e-05
2.28313e-05
2.47752e-05
3.17377e-05
4.72918e-05
7.23856e-05
6.59116e-05
2.73211e-05
2.18447e-05
0.000121849
0.00249309
0.0172825
0.0677632
0.0972304
0.0570235
0.00383906
4.95141e-10
9.67901e-09
4.0131e-08
7.15904e-08
9.01274e-08
1.1448e-07
1.48071e-07
2.37614e-07
4.30577e-07
7.48792e-07
1.0999e-06
1.4042e-06
1.61318e-06
1.82198e-06
2.11418e-06
2.3677e-06
2.38788e-06
2.34188e-06
2.38711e-06
2.48467e-06
2.57359e-06
2.63947e-06
2.82223e-06
3.22352e-06
3.7999e-06
4.50619e-06
5.30507e-06
6.00471e-06
6.5154e-06
6.6128e-06
6.58859e-06
7.64061e-06
9.19998e-06
1.08831e-05
1.28012e-05
1.37346e-05
1.34823e-05
1.36743e-05
1.49783e-05
1.5009e-05
1.30589e-05
1.03816e-05
8.71095e-06
7.57092e-06
8.88856e-06
8.14933e-06
1.08323e-05
2.53778e-05
4.21256e-05
3.62655e-05
1.63311e-05
3.3152e-06
1.83562e-06
4.34508e-05
0.00342237
0.0956142
0.381165
0.321149
0.0780413
0.00216308
4.06382e-09
4.599e-08
9.44464e-08
1.10722e-07
6.54829e-08
9.79697e-08
2.63314e-07
3.97658e-07
6.12337e-07
1.50517e-06
3.271e-06
4.53792e-06
5.43064e-06
6.64752e-06
8.33949e-06
1.09101e-05
1.41693e-05
1.67906e-05
1.79677e-05
1.83701e-05
1.86093e-05
1.87281e-05
1.89487e-05
1.96418e-05
2.13242e-05
2.45646e-05
2.9797e-05
3.63073e-05
4.28757e-05
4.90304e-05
5.68641e-05
7.1756e-05
8.82695e-05
9.69196e-05
0.000104491
0.000107465
0.000106021
9.85688e-05
8.61439e-05
7.95944e-05
8.22015e-05
9.50509e-05
0.00011391
0.000121971
0.000120298
0.00011197
9.18089e-05
8.64963e-05
0.000105795
0.000148953
0.00018476
0.000161912
3.69042e-05
5.574e-05
0.00209157
0.207973
0.824723
0.548904
0.06949
0.00193456
1.04902e-14
7.66786e-15
-1.85278e-15
-6.39027e-15
-7.63849e-15
2.03855e-11
1.67315e-06
4.19388e-06
1.76807e-05
6.91004e-05
9.27217e-05
4.21977e-05
3.40672e-05
4.56676e-05
5.12894e-05
5.94503e-05
8.34295e-05
0.000127658
0.000180127
0.00023706
0.000299479
0.000362308
0.000403291
0.000389944
0.000351462
0.000348924
0.000359164
0.000344763
0.00028699
0.00021365
0.000183722
0.000186378
0.000207146
0.000263189
0.000365696
0.000511401
0.000700369
0.000928592
0.00120533
0.00154302
0.0019014
0.00218812
0.00236101
0.0024389
0.00244317
0.00232479
0.00196759
0.00142989
0.000921634
0.000735117
0.000765893
0.000728611
0.000420235
0.000146581
0.0013301
0.158729
0.856132
0.662421
0.118856
0.00811755
4.44146e-14
2.66589e-15
-8.75458e-15
6.30107e-05
0.000401572
0.000628432
0.000500318
0.000298374
0.000267756
0.000402
0.000869151
0.00156123
0.00181063
0.00174019
0.00161575
0.000661286
0.0001425
0.000132801
0.000146853
0.000150449
0.000150833
0.000151338
0.000152855
0.000156877
0.000160015
0.000160552
0.000161397
0.000163539
0.000166164
0.000166894
0.000171889
0.000194879
0.000257549
0.000353024
0.000454868
0.000545253
0.000615769
0.000681971
0.0007751
0.000912769
0.00111867
0.00142332
0.00179414
0.00204425
0.00207469
0.00199071
0.00171288
0.00125757
0.000916827
0.00084498
0.000798062
0.000611048
0.000238791
0.000133858
0.00166453
0.155984
0.672365
0.466715
0.0906141
0.0105335
6.85208e-13
4.23466e-13
3.93771e-05
0.000170958
0.000621682
0.00206742
0.00588752
0.0124996
0.0180491
0.0235674
0.0399949
0.0951759
0.151968
0.132777
0.0602287
0.00849017
0.000607963
0.000768916
0.000660334
0.000236125
7.48302e-05
7.95543e-05
0.00014047
0.000237735
0.000231837
0.000139343
4.17571e-05
2.23095e-05
8.87854e-05
0.000192304
0.000307865
0.000335472
0.000335619
0.000325363
0.000330591
0.000355189
0.000398256
0.000446022
0.00049127
0.00055091
0.00067862
0.000944152
0.00117553
0.00117275
0.00104239
0.000840616
0.000663636
0.000461714
0.000447499
0.00088747
0.00081241
0.000291047
0.000104752
0.000123402
0.00439727
0.22719
0.514744
0.317148
0.0638164
0.0125232
8.60333e-14
4.08695e-14
3.98466e-14
-1.71368e-14
-1.6801e-11
3.18625e-05
0.000264031
0.000593274
0.000919981
0.00170053
0.00491562
0.015162
0.032175
0.0356363
0.026029
0.0118629
0.00845791
0.00665553
0.00339923
0.000692994
8.03489e-05
6.1507e-05
8.1436e-05
0.000142415
0.000172501
0.000155416
9.58942e-05
3.96923e-05
2.80283e-05
4.22661e-05
0.000237765
0.000335621
0.000265495
0.000123984
0.000165658
0.000218737
0.000230004
0.000228038
0.000218759
0.000208603
0.000209786
0.000224677
0.000302721
0.000512585
0.000690928
0.00067658
0.000546875
0.000380668
0.000385909
0.000650064
0.00090663
0.000471304
0.000104736
0.000120384
0.00327794
0.159221
0.471744
0.327798
0.0778044
0.0155492
7.62801e-15
1.24557e-14
7.692e-15
-4.23926e-15
-3.33392e-15
6.05739e-15
7.67271e-11
8.2554e-09
2.71482e-05
0.000105699
0.000265245
0.000625042
0.00133897
0.00291591
0.00735313
0.0155273
0.0196628
0.0151204
0.00541039
0.00060522
6.7378e-05
6.02378e-05
6.32747e-05
6.59822e-05
6.49563e-05
6.45571e-05
6.68138e-05
7.32446e-05
8.41561e-05
9.89577e-05
0.000119289
0.000151721
0.000184436
0.000206359
0.000221873
0.000236163
0.000242288
0.000241351
0.000231005
0.000207737
0.000193332
0.000195261
0.000212357
0.000280753
0.000411324
0.000470003
0.000437776
0.000313952
0.000260504
0.000292581
0.000382994
0.000393892
0.000231821
7.60104e-05
0.00062054
0.0594085
0.625635
0.592785
0.179652
0.024517
1.39576e-07
3.35451e-07
9.25579e-07
6.18955e-07
8.18632e-07
1.03035e-06
1.11606e-06
2.27536e-08
3.6619e-06
9.97646e-06
2.10041e-05
5.38621e-05
0.000152857
0.00059472
0.00235266
0.00441513
0.004034
0.00209683
0.000345165
1.12145e-05
5.7735e-06
5.69407e-06
5.76926e-06
5.69415e-06
5.76956e-06
5.70927e-06
5.77977e-06
5.72575e-06
2.44625e-05
5.48192e-05
0.000109414
0.000181355
0.000215552
0.000212841
0.000191482
0.000165221
0.000152132
0.000140415
0.000138671
0.000156229
0.000177255
0.000174174
0.000163133
0.000144889
0.000119077
9.04667e-05
7.37164e-05
7.86975e-05
0.000123978
0.000255338
0.000497034
0.000480584
0.000116693
7.31564e-05
0.000517043
0.0598014
0.668647
0.80338
0.284821
0.0301716
6.0899e-07
2.52769e-06
2.88589e-06
2.91845e-06
2.56796e-06
2.82976e-06
2.50698e-06
2.1688e-06
1.79307e-06
2.62261e-06
4.68499e-06
1.04063e-05
2.52495e-05
6.30281e-05
0.000123372
0.000119898
7.39009e-05
4.63951e-05
5.36289e-05
7.88555e-05
0.000121202
0.000152778
0.000158685
0.000145351
0.000105039
5.25494e-05
5.30086e-05
0.000195754
0.000259062
0.000258886
0.000137134
7.49606e-05
0.000120361
0.000573524
0.000621011
0.000296492
0.000112508
0.000117168
0.000286338
0.000717288
0.000554252
0.000258473
0.000232265
0.000531698
0.000226777
0.000117418
0.000100762
0.000129338
0.000241804
0.00066015
0.000801688
0.000613698
0.000194904
4.96834e-05
0.000325404
0.0346055
0.611579
0.723566
0.263781
0.0270889
5.24522e-08
1.72223e-07
1.91215e-13
1.47206e-14
-9.68247e-14
2.64525e-07
2.00314e-07
3.81385e-08
3.8137e-08
1.7361e-07
1.21316e-06
2.67298e-07
2.66698e-07
1.74047e-06
8.31249e-06
2.78939e-06
2.74363e-06
2.84305e-06
3.8198e-06
6.14983e-06
5.52453e-06
6.31369e-06
1.17628e-05
1.77116e-05
2.21524e-05
2.94309e-05
6.04256e-05
0.000146619
0.00017177
0.000132002
7.97615e-05
8.63263e-05
0.00013491
0.000168732
0.00014934
0.000113585
0.000103008
0.000118407
0.000182949
0.000241288
0.000222118
0.000144305
9.23104e-05
0.000116724