/*--------------------------------*- C++ -*----------------------------------*\
| =========                 |                                                 |
| \\      /  F ield         | OpenFOAM: The Open Source CFD Toolbox           |
|  \\    /   O peration     | Version:  2.1.1                                 |
|   \\  /    A nd           | Web:      www.OpenFOAM.org                      |
|    \\/     M anipulation  |                                                 |
\*---------------------------------------------------------------------------*/
FoamFile
{
    version     2.0;
    format      ascii;
    class       volScalarField;
    location    "0.00135";
    object      criterion2;
}
// * * * * * * * * * * * * * * * * * * * * * * * * * * * * * * * * * * * * * //

dimensions      [1 2 -2 0 0 0 0];

internalField   nonuniform List<scalar> 
36520
(
3.4522e-09
6.73725e-09
1.06002e-08
1.19112e-08
1.2908e-08
1.35845e-08
1.41351e-08
1.45579e-08
1.48786e-08
1.51232e-08
1.5318e-08
1.55416e-08
1.58097e-08
1.6162e-08
1.65557e-08
1.69623e-08
1.72753e-08
1.73704e-08
1.7125e-08
1.65434e-08
1.5741e-08
1.48819e-08
1.41395e-08
1.3592e-08
1.31709e-08
1.28235e-08
1.2495e-08
1.21777e-08
1.18678e-08
1.15802e-08
1.13219e-08
1.11069e-08
1.09275e-08
1.07873e-08
1.06863e-08
1.06336e-08
1.06224e-08
1.06573e-08
1.07338e-08
1.08819e-08
1.11527e-08
1.15422e-08
1.2068e-08
1.28317e-08
1.38373e-08
1.50394e-08
1.6567e-08
1.86024e-08
2.17879e-08
2.74634e-08
3.75448e-08
5.47473e-08
8.33213e-08
1.30916e-07
2.10164e-07
3.36813e-07
5.23654e-07
8.46235e-07
8.67454e-07
5.98893e-07
1.41701e-08
1.94157e-09
3.20326e-09
3.02131e-09
3.06781e-09
3.03462e-09
3.08365e-09
3.08361e-09
3.07267e-09
2.99054e-09
2.90765e-09
2.85111e-09
2.86218e-09
2.97569e-09
3.21279e-09
3.66089e-09
4.36435e-09
5.1264e-09
4.89449e-09
4.6067e-09
4.62125e-09
4.02327e-09
3.14547e-09
2.64315e-09
2.49234e-09
2.55768e-09
2.66661e-09
2.79818e-09
2.91569e-09
3.04947e-09
3.25559e-09
3.60147e-09
4.08681e-09
4.73638e-09
5.52137e-09
6.37829e-09
7.1669e-09
7.74384e-09
8.01273e-09
7.97545e-09
7.74931e-09
7.43021e-09
7.12521e-09
6.94208e-09
6.82989e-09
6.7182e-09
6.56639e-09
6.20754e-09
5.75953e-09
5.49281e-09
5.59085e-09
6.13785e-09
7.20586e-09
8.71391e-09
1.08783e-08
1.35459e-08
1.76703e-08
2.99915e-08
1.01657e-07
9.85135e-07
6.34008e-09
-2.02559e-09
-1.15087e-09
-1.13908e-09
-9.90389e-10
-8.54489e-10
-6.35453e-10
-4.69345e-10
-3.72443e-10
-3.99142e-10
-4.49338e-10
-4.56261e-10
-3.41148e-10
-1.0686e-10
1.22439e-10
2.53613e-10
3.08604e-10
3.36708e-10
3.48912e-10
2.37788e-10
2.71499e-11
-8.91553e-11
3.3749e-10
1.04279e-09
1.38845e-09
1.71879e-09
2.08459e-09
2.40296e-09
2.57009e-09
2.63191e-09
2.62109e-09
2.66837e-09
2.726e-09
2.80245e-09
2.88792e-09
2.96685e-09
3.00762e-09
2.98975e-09
2.91408e-09
2.80486e-09
2.69937e-09
2.5925e-09
2.49414e-09
2.45316e-09
2.45187e-09
2.49028e-09
2.60693e-09
2.83162e-09
3.17322e-09
3.68758e-09
4.25585e-09
4.74878e-09
5.30529e-09
6.45772e-09
8.48873e-09
1.14694e-08
1.61095e-08
2.85811e-08
1.03623e-07
7.84799e-07
-1.15019e-09
-3.71778e-09
-2.70474e-09
-2.36183e-09
-2.05909e-09
-1.73536e-09
-1.41006e-09
-1.15497e-09
-9.91764e-10
-9.04589e-10
-8.33492e-10
-7.27448e-10
-5.35846e-10
-2.20741e-10
2.29734e-10
8.07166e-10
1.45382e-09
2.04966e-09
2.50947e-09
2.15517e-09
1.15951e-09
2.11057e-10
-3.3636e-10
-5.64895e-10
-6.22211e-10
-6.01665e-10
-5.71332e-10
-5.19662e-10
-4.41721e-10
-3.36383e-10
-2.70811e-10
-2.02128e-10
-1.17573e-10
-1.45714e-11
1.11829e-10
2.68728e-10
4.46278e-10
6.28268e-10
8.04436e-10
9.92454e-10
1.16874e-09
1.25164e-09
1.23009e-09
1.15184e-09
1.0269e-09
8.50175e-10
7.16285e-10
7.99371e-10
1.19986e-09
2.12169e-09
3.4143e-09
4.19804e-09
3.56585e-09
3.26207e-09
4.16758e-09
6.18761e-09
9.01674e-09
1.59635e-08
7.04032e-08
7.74731e-07
-7.36743e-09
-3.48431e-09
-2.40291e-09
-1.82878e-09
-1.5097e-09
-1.23866e-09
-9.89102e-10
-7.49977e-10
-5.27858e-10
-2.9835e-10
-8.16522e-12
4.48262e-10
1.22037e-09
2.49685e-09
4.45768e-09
7.15415e-09
1.02976e-08
1.29977e-08
1.4329e-08
1.25668e-08
8.51462e-09
4.39527e-09
1.98449e-09
1.1283e-09
9.61599e-10
9.6363e-10
8.87104e-10
7.6066e-10
6.26025e-10
5.53399e-10
6.03665e-10
8.01734e-10
1.03134e-09
1.20021e-09
1.26101e-09
1.2181e-09
1.13415e-09
1.05688e-09
9.77173e-10
7.79958e-10
4.9867e-10
2.90669e-10
3.06823e-10
6.13288e-10
7.8282e-10
8.58129e-10
8.46123e-10
8.58704e-10
1.07165e-09
1.54955e-09
2.47134e-09
2.98565e-09
2.05435e-09
1.09459e-09
1.00445e-09
1.4341e-09
2.6263e-09
3.50546e-09
2.12712e-08
6.9081e-07
-1.88343e-09
-1.92809e-09
-1.51162e-09
-1.24891e-09
-9.8464e-10
-5.91539e-10
-4.29533e-11
6.88631e-10
1.59531e-09
2.71641e-09
4.13291e-09
6.12094e-09
9.10702e-09
1.3689e-08
2.03244e-08
2.89071e-08
3.83845e-08
4.57596e-08
4.75928e-08
4.35705e-08
3.51398e-08
2.4958e-08
1.73991e-08
1.40508e-08
1.3182e-08
1.30285e-08
1.26937e-08
1.22448e-08
1.17792e-08
1.15768e-08
1.18624e-08
1.27508e-08
1.42827e-08
1.59932e-08
1.7056e-08
1.70589e-08
1.63466e-08
1.51823e-08
1.37974e-08
1.20286e-08
9.57818e-09
7.16001e-09
4.41768e-09
1.79002e-09
9.14328e-10
8.43647e-10
1.00498e-09
1.25022e-09
1.54166e-09
1.86024e-09
2.35206e-09
2.69318e-09
1.23424e-09
2.93543e-10
1.45023e-10
9.51589e-11
1.07401e-10
2.38056e-10
7.94042e-10
2.58876e-07
1.74328e-08
-1.33038e-09
-7.99169e-10
-1.70907e-10
6.78759e-10
1.97144e-09
3.82013e-09
6.2538e-09
9.02445e-09
1.20275e-08
1.52292e-08
1.91976e-08
2.48332e-08
3.30857e-08
4.42048e-08
5.7538e-08
7.16343e-08
8.14311e-08
8.4133e-08
8.27414e-08
7.86933e-08
7.11041e-08
6.21628e-08
5.57006e-08
5.17643e-08
4.9012e-08
4.65272e-08
4.42371e-08
4.20177e-08
4.02734e-08
3.94069e-08
3.96201e-08
4.10396e-08
4.35748e-08
4.67895e-08
4.9406e-08
5.08036e-08
4.96163e-08
4.65814e-08
4.2882e-08
3.76289e-08
3.17971e-08
2.56777e-08
1.81953e-08
1.31904e-08
1.04385e-08
8.34562e-09
6.06672e-09
3.98276e-09
2.89563e-09
2.51035e-09
2.51806e-09
2.69452e-09
1.72415e-09
1.87548e-10
1.88695e-11
1.45719e-11
1.67421e-11
7.01771e-11
5.13774e-08
2.29309e-08
-1.58924e-10
1.0111e-09
2.78631e-09
5.13833e-09
8.63772e-09
1.28835e-08
1.78715e-08
2.2453e-08
2.69089e-08
3.07958e-08
3.50791e-08
4.06011e-08
4.83211e-08
5.67285e-08
6.49343e-08
7.36582e-08
8.26002e-08
8.99939e-08
9.39517e-08
9.97529e-08
1.05571e-07
1.04638e-07
1.00618e-07
9.58129e-08
9.07426e-08
8.55369e-08
8.04136e-08
7.56216e-08
7.11469e-08
6.74408e-08
6.46863e-08
6.31858e-08
6.31073e-08
6.3888e-08
6.36168e-08
5.91312e-08
5.57503e-08
5.7159e-08
5.82994e-08
5.46529e-08
4.89019e-08
4.25005e-08
3.57927e-08
2.94241e-08
2.42472e-08
1.97173e-08
1.59602e-08
1.26167e-08
9.20541e-09
6.90905e-09
7.1122e-09
9.17936e-09
1.26352e-08
8.51682e-09
5.50369e-11
1.75981e-11
1.44581e-11
2.91023e-11
1.71743e-08
1.64322e-07
1.46228e-09
4.03628e-09
7.18659e-09
1.02884e-08
1.44041e-08
1.73033e-08
1.98859e-08
2.22893e-08
2.47352e-08
2.70586e-08
2.93934e-08
3.03086e-08
2.57444e-08
1.53637e-08
8.41194e-09
6.90533e-09
8.32495e-09
1.52216e-08
3.3483e-08
4.79274e-08
5.51127e-08
6.11896e-08
6.82504e-08
7.54147e-08
8.01929e-08
8.23019e-08
8.26459e-08
8.07777e-08
7.72089e-08
7.26175e-08
6.76698e-08
6.35056e-08
6.02971e-08
5.78664e-08
5.58123e-08
5.37709e-08
5.16432e-08
4.89928e-08
4.51894e-08
4.03875e-08
3.51686e-08
3.02089e-08
2.5759e-08
2.19031e-08
1.88466e-08
1.70379e-08
1.67307e-08
1.78452e-08
1.82832e-08
1.79667e-08
2.05481e-08
2.26725e-08
2.24304e-08
1.75527e-08
2.89886e-10
2.14309e-11
1.57946e-11
2.78778e-11
7.90395e-09
2.24752e-07
7.61159e-10
3.00322e-09
4.94089e-09
7.31423e-09
9.30049e-09
1.08444e-08
1.20136e-08
1.36816e-08
1.60205e-08
1.7785e-08
1.9378e-08
2.04332e-08
1.9628e-08
1.48894e-08
7.80861e-09
4.30241e-09
4.33579e-09
6.33475e-09
1.44992e-08
2.75073e-08
3.31601e-08
3.56313e-08
3.71827e-08
3.90425e-08
4.19523e-08
4.75515e-08
5.91191e-08
7.80744e-08
8.92991e-08
8.60652e-08
7.80271e-08
6.83674e-08
6.07329e-08
5.52452e-08
5.06897e-08
4.66968e-08
4.36404e-08
4.15326e-08
4.00526e-08
3.87407e-08
3.68427e-08
3.45099e-08
3.15303e-08
2.80853e-08
2.52234e-08
2.36211e-08
2.39278e-08
2.34754e-08
2.0387e-08
2.04456e-08
2.30896e-08
2.6068e-08
3.23786e-08
2.14279e-08
2.77538e-10
2.9355e-11
2.66859e-11
5.0622e-11
8.23427e-09
1.16635e-07
1.29385e-10
3.70111e-09
6.84231e-09
8.6061e-09
1.05896e-08
1.31556e-08
1.6166e-08
1.863e-08
2.03114e-08
2.17644e-08
2.43521e-08
2.65682e-08
2.41062e-08
1.21426e-08
3.71401e-09
1.6894e-09
1.73894e-09
2.76466e-09
1.05328e-08
4.49461e-08
6.18464e-08
6.55716e-08
6.78723e-08
6.91987e-08
7.09149e-08
7.49301e-08
8.30531e-08
9.45687e-08
1.02649e-07
1.0162e-07
9.30531e-08
7.96239e-08
7.37984e-08
7.23434e-08
7.26465e-08
7.35908e-08
7.5063e-08
7.58813e-08
7.45626e-08
7.15349e-08
6.76047e-08
6.32698e-08
5.87536e-08
5.31404e-08
4.62856e-08
3.97033e-08
3.49055e-08
3.0561e-08
2.34896e-08
1.94987e-08
2.22287e-08
2.78147e-08
3.12461e-08
1.89827e-08
1.70957e-10
2.73583e-11
2.41544e-11
4.56022e-11
1.08408e-08
2.6122e-08
3.18794e-10
1.90012e-09
3.96258e-09
6.18992e-09
9.74523e-09
1.32938e-08
1.69741e-08
1.97136e-08
2.13824e-08
2.33363e-08
2.68396e-08
3.18074e-08
3.68666e-08
3.13934e-08
6.5218e-09
1.10137e-09
7.32252e-10
9.65659e-10
2.28016e-09
1.82483e-08
8.86266e-08
9.55138e-08
1.00874e-07
1.01562e-07
9.92857e-08
9.5876e-08
9.63134e-08
1.00287e-07
1.08838e-07
1.12638e-07
1.06142e-07
8.44406e-08
6.50105e-08
6.99398e-08
8.03902e-08
8.78518e-08
8.9872e-08
8.62223e-08
5.27551e-08
4.85587e-08
4.88983e-08
6.56797e-08
6.9089e-08
5.91084e-08
5.03047e-08
4.34573e-08
3.50584e-08
2.33791e-08
1.49047e-08
1.04752e-08
1.60518e-08
2.5243e-08
2.60698e-08
1.8536e-08
1.16153e-10
2.74923e-11
2.22906e-11
3.06762e-11
1.51182e-08
2.97914e-08
4.74664e-10
1.42885e-09
2.93255e-09
4.70359e-09
8.06675e-09
1.18743e-08
1.65522e-08
2.03153e-08
2.2249e-08
2.31613e-08
2.48466e-08
2.84177e-08
3.2034e-08
2.87143e-08
1.21089e-08
2.0766e-09
5.38605e-10
3.47144e-10
4.05562e-10
8.17589e-10
7.80231e-09
8.53553e-08
1.05185e-07
1.10315e-07
1.13256e-07
1.12516e-07
1.0522e-07
1.0214e-07
1.05028e-07
1.11529e-07
1.07376e-07
9.49359e-08
6.49201e-08
5.741e-08
6.84822e-08
8.35053e-08
8.88345e-08
9.0535e-08
9.03053e-08
6.78032e-08
4.53094e-08
5.08237e-08
6.6892e-08
6.4351e-08
5.07855e-08
3.13951e-08
1.47938e-08
9.83016e-09
8.81747e-09
1.06276e-08
2.03338e-08
2.76203e-08
2.7393e-08
1.93976e-08
1.59672e-10
3.20641e-11
2.54688e-11
3.38302e-11
1.47458e-08
1.27877e-07
3.41667e-10
3.66275e-09
5.45823e-09
6.5083e-09
8.85774e-09
1.16051e-08
1.3509e-08
1.12903e-08
6.801e-09
5.81442e-09
6.5854e-09
1.11763e-08
2.08232e-08
2.51541e-08
2.83975e-08
8.56402e-09
6.12208e-10
2.22565e-10
2.23562e-10
3.02617e-10
8.13684e-10
1.22204e-08
7.95531e-08
8.8039e-08
8.818e-08
8.71736e-08
8.87465e-08
9.20336e-08
9.96228e-08
1.07736e-07
1.04263e-07
9.3289e-08
7.84231e-08
7.08854e-08
7.1136e-08
7.32514e-08
7.47047e-08
7.53668e-08
7.40446e-08
6.98699e-08
6.28978e-08
5.83914e-08
5.45914e-08
5.09613e-08
4.2626e-08
2.76822e-08
1.5252e-08
1.09839e-08
8.72932e-09
8.36344e-09
1.37412e-08
2.3437e-08
2.44513e-08
8.35566e-09
8.68676e-11
3.50994e-11
3.21406e-11
6.74714e-11
2.08129e-08
2.92144e-07
3.22855e-10
1.73178e-09
3.66726e-09
4.81389e-09
5.93519e-09
6.17539e-09
4.0957e-09
1.35625e-09
3.8928e-10
3.35917e-10
5.09751e-10
1.36602e-09
8.81505e-09
2.56088e-08
2.69843e-08
1.58179e-08
3.89295e-09
7.3443e-10
2.95076e-10
2.78852e-10
3.83351e-10
1.21918e-09
2.2761e-08
8.90827e-08
9.64702e-08
1.00584e-07
1.04792e-07
1.06159e-07
1.01862e-07
9.12535e-08
7.10772e-08
5.74632e-08
5.48001e-08
6.23614e-08
7.52792e-08
7.42729e-08
7.25959e-08
7.05666e-08
6.33557e-08
4.72821e-08
3.5345e-08
3.27166e-08
3.38734e-08
3.30774e-08
2.71911e-08
2.0524e-08
1.46297e-08
1.09394e-08
8.57637e-09
8.13209e-09
1.27635e-08
2.21124e-08
2.27066e-08
4.57054e-09
5.71959e-11
3.46953e-11
3.60958e-11
1.13145e-10
3.87552e-08
2.01601e-07
6.55025e-10
2.0397e-09
4.38598e-09
6.20278e-09
7.11787e-09
5.83679e-09
2.87447e-09
2.0591e-09
3.50913e-09
1.66331e-08
3.31235e-08
3.598e-08
4.0217e-08
4.40457e-08
2.85089e-08
7.50405e-09
2.7386e-09
2.04296e-09
1.84351e-09
1.92323e-09
2.95655e-09
1.20826e-08
7.04626e-08
9.11023e-08
9.22281e-08
9.19745e-08
8.63558e-08
7.15683e-08
5.42727e-08
4.82077e-08
5.05645e-08
6.47796e-08
7.52715e-08
7.45711e-08
6.30809e-08
2.7239e-08
2.38257e-08
2.25517e-08
3.70027e-08
4.10323e-08
3.3003e-08
3.0316e-08
3.01723e-08
2.58736e-08
1.61596e-08
1.32847e-08
1.12717e-08
9.88623e-09
9.67461e-09
1.31095e-08
2.02511e-08
2.42285e-08
2.34573e-08
5.38964e-09
4.88624e-11
3.11535e-11
3.33307e-11
1.23947e-10
4.39916e-08
2.32559e-08
-1.01961e-10
1.24122e-09
3.43343e-09
6.64229e-09
1.08328e-08
1.62128e-08
2.2559e-08
2.64852e-08
2.77033e-08
2.88169e-08
3.05874e-08
3.46333e-08
4.18887e-08
5.23538e-08
6.51647e-08
7.7394e-08
8.49318e-08
8.4482e-08
7.49459e-08
6.76672e-08
7.3903e-08
9.20676e-08
1.00307e-07
1.01294e-07
9.91067e-08
8.95854e-08
7.8167e-08
7.28586e-08
6.80721e-08
6.58852e-08
6.8643e-08
7.01978e-08
6.90546e-08
5.7607e-08
3.63409e-08
3.41068e-08
3.7813e-08
4.6748e-08
5.55998e-08
5.35368e-08
4.6286e-08
3.91884e-08
3.20959e-08
2.4729e-08
1.83491e-08
1.42752e-08
1.26173e-08
1.1909e-08
1.31838e-08
1.58895e-08
1.89613e-08
1.97372e-08
1.82479e-08
2.34203e-09
3.40161e-11
1.81002e-11
1.85582e-11
7.08499e-11
5.90572e-08
1.85676e-08
-1.37418e-09
-9.17134e-10
-3.48198e-10
4.59705e-10
1.66754e-09
3.33316e-09
5.41034e-09
7.51395e-09
9.07551e-09
9.93164e-09
1.14795e-08
1.43718e-08
1.91668e-08
2.63893e-08
3.55113e-08
4.44893e-08
5.16164e-08
5.67688e-08
6.09258e-08
6.41325e-08
6.58121e-08
6.52771e-08
6.25173e-08
5.82296e-08
5.36602e-08
4.83101e-08
4.30821e-08
3.79501e-08
3.34318e-08
2.92297e-08
2.53328e-08
2.24343e-08
2.14363e-08
2.18249e-08
2.29943e-08
2.51355e-08
2.68362e-08
2.7312e-08
2.58009e-08
2.28784e-08
2.01693e-08
1.72987e-08
1.46894e-08
1.23834e-08
1.09526e-08
1.03127e-08
1.02739e-08
1.09417e-08
1.22416e-08
1.42997e-08
1.56078e-08
1.53987e-08
9.26291e-09
4.7907e-10
4.27918e-11
1.96456e-11
1.71961e-11
6.22503e-11
6.84061e-08
7.32298e-09
-2.08128e-09
-1.60362e-09
-1.35257e-09
-1.08536e-09
-7.48147e-10
-3.46242e-10
5.71902e-11
3.79251e-10
6.04277e-10
8.33539e-10
1.23775e-09
1.99846e-09
3.24574e-09
5.04766e-09
7.3682e-09
9.97401e-09
1.26467e-08
1.53907e-08
1.83657e-08
2.12697e-08
2.22265e-08
2.06739e-08
1.7632e-08
1.47531e-08
1.23758e-08
9.97572e-09
7.50195e-09
5.30208e-09
3.63785e-09
2.30382e-09
1.41345e-09
1.21842e-09
1.27129e-09
1.40444e-09
1.57394e-09
1.73259e-09
1.79466e-09
1.75973e-09
1.66556e-09
1.59502e-09
1.68999e-09
1.7934e-09
2.04468e-09
2.59997e-09
3.4315e-09
4.5614e-09
5.80744e-09
7.12439e-09
8.55247e-09
9.77557e-09
1.08287e-08
9.49788e-09
4.45571e-09
9.05576e-10
2.35964e-10
1.20734e-10
9.66323e-11
1.70267e-10
1.21438e-07
2.63072e-09
-3.61399e-09
-2.54495e-09
-1.95804e-09
-1.59575e-09
-1.33324e-09
-1.11964e-09
-9.80991e-10
-9.31533e-10
-9.40923e-10
-9.38254e-10
-8.50861e-10
-6.3098e-10
-2.84199e-10
1.53083e-10
6.35886e-10
1.12634e-09
1.64432e-09
2.2227e-09
2.92267e-09
3.69031e-09
3.77784e-09
3.13581e-09
2.28496e-09
1.62203e-09
1.12458e-09
6.68391e-10
2.62005e-10
-3.67088e-11
-2.09174e-10
-2.80075e-10
-2.30913e-10
-1.68577e-10
-6.17764e-11
7.3033e-11
2.12279e-10
3.21478e-10
4.04134e-10
4.74464e-10
5.57267e-10
6.4424e-10
7.70501e-10
1.00173e-09
1.38951e-09
1.95807e-09
2.74143e-09
3.74384e-09
4.906e-09
6.17598e-09
7.66054e-09
8.53844e-09
7.96331e-09
7.18597e-09
6.61286e-09
5.66124e-09
3.72307e-09
2.42206e-09
1.91859e-09
1.29193e-09
3.56462e-07
7.67657e-09
-3.30462e-09
-2.60611e-09
-2.38653e-09
-2.00714e-09
-1.71274e-09
-1.426e-09
-1.29128e-09
-1.26095e-09
-1.29976e-09
-1.29429e-09
-1.17411e-09
-9.25923e-10
-6.2318e-10
-3.45601e-10
-1.0849e-10
6.97329e-11
1.94548e-10
2.69435e-10
3.28905e-10
3.44344e-10
2.62716e-10
8.18366e-11
-7.71816e-11
-1.87613e-10
-2.3524e-10
-2.36401e-10
-1.22493e-10
1.62628e-10
5.28291e-10
7.44389e-10
7.61864e-10
7.22302e-10
7.26067e-10
7.39167e-10
7.47634e-10
7.25097e-10
6.77595e-10
6.27304e-10
6.18722e-10
6.7946e-10
8.22869e-10
1.08989e-09
1.52286e-09
2.14461e-09
2.9955e-09
4.10898e-09
5.34291e-09
6.41871e-09
6.87874e-09
7.03029e-09
6.61441e-09
5.6082e-09
4.71737e-09
3.98697e-09
3.45356e-09
3.09325e-09
3.13618e-09
1.10987e-08
5.32188e-07
9.21632e-09
-1.65266e-09
-1.29184e-09
-1.43974e-09
-1.25933e-09
-1.12565e-09
-9.17935e-10
-8.03817e-10
-7.69558e-10
-7.93335e-10
-7.55328e-10
-5.95254e-10
-2.68631e-10
2.41312e-10
9.21356e-10
1.74374e-09
2.30903e-09
2.1646e-09
1.57814e-09
1.06004e-09
7.71623e-10
7.15597e-10
8.33672e-10
1.14124e-09
1.57187e-09
2.23477e-09
2.99354e-09
3.57981e-09
3.64394e-09
3.34573e-09
2.87998e-09
2.43704e-09
2.05245e-09
1.734e-09
1.44251e-09
1.18633e-09
9.61088e-10
7.88314e-10
6.78241e-10
6.47078e-10
7.05499e-10
8.67935e-10
1.16861e-09
1.63171e-09
2.27986e-09
3.20764e-09
4.4485e-09
5.98742e-09
7.14119e-09
7.32721e-09
6.79018e-09
5.98433e-09
5.04315e-09
4.42695e-09
4.46242e-09
5.15831e-09
6.6745e-09
1.10425e-08
4.27765e-08
5.49056e-07
1.64683e-08
2.32018e-09
2.86449e-09
2.40177e-09
2.36268e-09
2.23189e-09
2.23639e-09
2.17206e-09
2.12347e-09
2.07002e-09
2.04935e-09
2.06748e-09
2.12003e-09
2.22264e-09
2.40412e-09
2.75284e-09
3.3271e-09
4.15658e-09
4.97938e-09
5.32248e-09
5.38302e-09
5.2716e-09
5.04035e-09
4.88059e-09
4.78515e-09
4.82352e-09
4.88343e-09
4.98124e-09
5.02676e-09
5.03372e-09
4.97219e-09
4.92896e-09
5.01856e-09
5.21628e-09
5.38013e-09
5.39151e-09
5.14747e-09
4.70713e-09
4.16866e-09
3.63588e-09
3.15202e-09
2.73375e-09
2.43914e-09
2.23472e-09
2.13913e-09
2.2705e-09
2.61259e-09
2.945e-09
3.062e-09
3.02892e-09
3.0266e-09
3.26792e-09
3.9067e-09
5.14333e-09
6.9526e-09
9.42059e-09
1.28763e-08
2.35941e-08
8.27011e-08
8.41947e-07
6.18469e-09
8.64106e-09
1.18563e-08
1.2947e-08
1.37934e-08
1.4347e-08
1.47807e-08
1.51003e-08
1.53401e-08
1.55426e-08
1.57419e-08
1.59656e-08
1.62106e-08
1.64626e-08
1.66944e-08
1.68799e-08
1.69876e-08
1.69946e-08
1.68751e-08
1.66265e-08
1.62526e-08
1.579e-08
1.52764e-08
1.47614e-08
1.42615e-08
1.38103e-08
1.33914e-08
1.29999e-08
1.26186e-08
1.22474e-08
1.18954e-08
1.15969e-08
1.13825e-08
1.12701e-08
1.12452e-08
1.13054e-08
1.14256e-08
1.16124e-08
1.18978e-08
1.23261e-08
1.291e-08
1.36627e-08
1.46597e-08
1.59533e-08
1.75135e-08
1.96459e-08
2.28763e-08
2.75337e-08
3.45942e-08
4.54638e-08
6.20086e-08
8.62277e-08
1.22252e-07
1.75586e-07
2.5496e-07
3.80656e-07
5.65205e-07
8.97931e-07
1.0247e-06
6.90161e-07
5.13549e-09
8.29316e-09
1.16749e-08
1.28819e-08
1.38255e-08
1.43585e-08
1.48245e-08
1.51454e-08
1.54057e-08
1.56312e-08
1.58121e-08
1.60008e-08
1.61439e-08
1.62878e-08
1.63712e-08
1.6433e-08
1.64239e-08
1.63683e-08
1.62449e-08
1.60631e-08
1.58236e-08
1.55357e-08
1.52045e-08
1.48365e-08
1.44318e-08
1.40283e-08
1.3618e-08
1.32113e-08
1.28005e-08
1.24072e-08
1.20422e-08
1.17375e-08
1.15123e-08
1.13828e-08
1.13424e-08
1.13797e-08
1.14611e-08
1.15822e-08
1.17624e-08
1.20624e-08
1.25795e-08
1.33458e-08
1.43627e-08
1.56503e-08
1.72024e-08
1.92718e-08
2.25293e-08
2.75828e-08
3.50983e-08
4.60144e-08
6.19482e-08
8.45186e-08
1.1797e-07
1.67815e-07
2.42015e-07
3.54135e-07
5.07696e-07
7.41996e-07
7.24675e-07
4.96393e-07
1.38395e-08
1.27519e-09
2.22489e-09
1.85012e-09
1.79497e-09
1.61474e-09
1.67155e-09
1.6208e-09
1.67605e-09
1.70736e-09
1.78372e-09
1.90038e-09
2.03283e-09
2.21585e-09
2.39034e-09
2.628e-09
2.86159e-09
3.1412e-09
3.41482e-09
3.67801e-09
3.93323e-09
4.1733e-09
4.39691e-09
4.62748e-09
4.82987e-09
5.06078e-09
5.25722e-09
5.43048e-09
5.5032e-09
5.53114e-09
5.53932e-09
5.62341e-09
5.79484e-09
6.03798e-09
6.24371e-09
6.3047e-09
6.14657e-09
5.72447e-09
5.11995e-09
4.46724e-09
3.91317e-09
3.4919e-09
3.12277e-09
2.80298e-09
2.54483e-09
2.44691e-09
2.44696e-09
2.53903e-09
2.71578e-09
2.98061e-09
3.36935e-09
3.90001e-09
4.60639e-09
5.54182e-09
6.74911e-09
8.49346e-09
1.11059e-08
1.8826e-08
4.9477e-08
7.01701e-07
5.54151e-09
-2.63077e-09
-1.79768e-09
-1.76528e-09
-1.51801e-09
-1.38413e-09
-1.08114e-09
-8.81909e-10
-6.1709e-10
-4.06678e-10
-1.3329e-10
2.12248e-10
6.01957e-10
1.11504e-09
1.63734e-09
2.32692e-09
3.01996e-09
3.71217e-09
4.23096e-09
4.50067e-09
4.53216e-09
4.3851e-09
4.08361e-09
3.71921e-09
3.26119e-09
2.78679e-09
2.42048e-09
2.20221e-09
2.08948e-09
2.02376e-09
1.89435e-09
1.69332e-09
1.5151e-09
1.37492e-09
1.23625e-09
1.09748e-09
9.62613e-10
8.36993e-10
7.27415e-10
6.52035e-10
6.42119e-10
7.20567e-10
9.05773e-10
1.20931e-09
1.63389e-09
2.16947e-09
2.84885e-09
3.31974e-09
3.45555e-09
3.38057e-09
3.24484e-09
3.17513e-09
3.25578e-09
3.57539e-09
4.10926e-09
4.94e-09
6.16849e-09
9.35567e-09
2.69014e-08
5.34343e-07
1.67377e-09
-3.97499e-09
-2.82786e-09
-2.40891e-09
-1.91004e-09
-1.52325e-09
-1.0997e-09
-8.93344e-10
-7.66647e-10
-7.60567e-10
-7.11463e-10
-6.17653e-10
-5.16268e-10
-4.02744e-10
-3.10017e-10
-2.06838e-10
-1.26335e-10
-5.64088e-11
-8.60961e-12
2.54399e-11
4.55748e-11
6.60851e-11
7.50047e-11
8.85005e-11
8.34231e-11
8.16356e-11
6.41163e-11
5.36126e-11
3.56788e-11
3.19221e-11
2.8494e-11
4.69194e-11
9.97541e-11
1.78898e-10
2.57962e-10
3.27775e-10
3.87771e-10
4.44611e-10
5.04812e-10
5.88618e-10
7.34623e-10
1.00337e-09
1.4611e-09
2.19186e-09
3.32303e-09
5.01299e-09
7.41359e-09
1.02748e-08
1.22027e-08
1.05376e-08
8.17114e-09
6.25359e-09
5.32666e-09
5.32325e-09
4.59166e-09
3.91543e-09
3.05169e-09
2.50092e-09
5.77703e-09
4.59067e-07
-9.79001e-11
-4.29996e-09
-2.89985e-09
-2.30892e-09
-1.9319e-09
-1.64369e-09
-1.439e-09
-1.2882e-09
-1.17727e-09
-1.07845e-09
-9.65396e-10
-8.16335e-10
-6.41984e-10
-4.34767e-10
-1.85236e-10
1.40485e-10
5.50504e-10
1.03773e-09
1.5673e-09
2.10364e-09
2.63026e-09
3.08299e-09
3.34636e-09
3.4438e-09
3.42313e-09
3.29813e-09
3.02497e-09
2.57223e-09
1.99888e-09
1.43328e-09
9.6319e-10
6.39834e-10
4.29547e-10
3.05443e-10
2.70015e-10
3.15778e-10
4.20649e-10
5.47703e-10
6.63782e-10
7.74277e-10
9.30938e-10
1.18662e-09
1.61752e-09
2.33099e-09
3.42508e-09
4.8087e-09
5.5351e-09
7.0338e-09
1.01834e-08
1.3062e-08
1.34556e-08
1.17848e-08
1.07293e-08
8.09895e-09
6.2273e-09
4.67248e-09
2.94275e-09
1.8042e-09
8.32854e-10
1.38001e-07
3.37817e-09
-2.92536e-09
-1.83705e-09
-1.51273e-09
-1.37781e-09
-1.27438e-09
-1.17534e-09
-1.06997e-09
-9.45299e-10
-7.86581e-10
-5.34741e-10
-1.23844e-10
5.44518e-10
1.6198e-09
3.30489e-09
5.83571e-09
9.30439e-09
1.34879e-08
1.78338e-08
2.18751e-08
2.55059e-08
2.84691e-08
3.02507e-08
3.09906e-08
3.08433e-08
2.9958e-08
2.81543e-08
2.53101e-08
2.16651e-08
1.79744e-08
1.49267e-08
1.27665e-08
1.0946e-08
9.29254e-09
7.79536e-09
6.35548e-09
5.0057e-09
3.80553e-09
2.90561e-09
2.30538e-09
1.90726e-09
1.55687e-09
1.54939e-09
1.99016e-09
2.6951e-09
3.55026e-09
5.12149e-09
7.88288e-09
1.22857e-08
1.60659e-08
2.03322e-08
2.36104e-08
1.96983e-08
1.01372e-08
5.84395e-09
2.55662e-09
6.55397e-10
1.77788e-10
9.68338e-11
3.567e-08
1.87297e-08
-1.49618e-09
-1.21938e-09
-1.06407e-09
-9.68896e-10
-8.59591e-10
-7.09965e-10
-4.48552e-10
3.99614e-12
7.63654e-10
1.99671e-09
3.9579e-09
7.00178e-09
1.1568e-08
1.80481e-08
2.64995e-08
3.65831e-08
4.7734e-08
5.86128e-08
6.7964e-08
7.57386e-08
8.16462e-08
8.58064e-08
8.8446e-08
8.96637e-08
8.9563e-08
8.79001e-08
8.43827e-08
7.88637e-08
7.22306e-08
6.58432e-08
6.07651e-08
5.74397e-08
5.52267e-08
5.38374e-08
5.22566e-08
4.97736e-08
4.53172e-08
3.93087e-08
3.07707e-08
2.37368e-08
1.67601e-08
1.01644e-08
5.85872e-09
4.15298e-09
4.12179e-09
5.16773e-09
7.55311e-09
1.15555e-08
1.6346e-08
2.23812e-08
2.69316e-08
2.66052e-08
2.09919e-08
3.86984e-09
3.42505e-10
5.79856e-11
2.49567e-11
2.66999e-11
6.27037e-08
2.63061e-08
-1.02317e-09
-5.94499e-10
-1.07076e-10
4.68012e-10
1.25521e-09
2.36297e-09
3.99101e-09
6.34489e-09
9.72649e-09
1.43275e-08
2.00542e-08
2.71411e-08
3.61431e-08
4.70993e-08
5.9274e-08
7.23372e-08
8.59366e-08
9.80589e-08
1.08259e-07
1.16562e-07
1.23144e-07
1.27983e-07
1.31329e-07
1.3337e-07
1.34276e-07
1.33749e-07
1.31829e-07
1.2841e-07
1.23458e-07
1.17361e-07
1.10658e-07
1.05363e-07
1.02374e-07
1.01411e-07
1.01877e-07
1.03103e-07
1.03678e-07
1.02705e-07
9.85568e-08
8.98418e-08
7.74832e-08
6.22673e-08
4.64764e-08
3.22809e-08
2.14341e-08
1.41143e-08
1.11573e-08
1.14559e-08
1.37577e-08
1.76219e-08
2.17522e-08
2.31401e-08
2.15951e-08
2.98909e-09
6.29689e-11
2.03747e-11
1.23085e-11
3.13631e-11
2.17747e-07
3.03174e-08
7.76792e-10
2.82297e-09
5.53746e-09
8.82954e-09
1.2885e-08
1.77346e-08
2.28452e-08
2.82194e-08
3.53304e-08
4.11243e-08
4.64841e-08
5.11917e-08
5.62871e-08
6.28904e-08
7.10295e-08
8.04048e-08
9.05276e-08
1.00716e-07
1.1021e-07
1.18504e-07
1.25431e-07
1.30788e-07
1.34529e-07
1.36734e-07
1.37631e-07
1.37299e-07
1.36175e-07
1.34432e-07
1.31818e-07
1.27972e-07
1.22511e-07
1.16643e-07
1.12351e-07
1.09493e-07
1.08461e-07
1.08624e-07
1.09296e-07
1.09417e-07
1.06778e-07
1.00536e-07
9.11591e-08
8.03467e-08
7.00497e-08
5.96381e-08
4.9077e-08
3.92304e-08
3.02638e-08
2.3248e-08
1.84958e-08
1.63192e-08
1.72675e-08
2.13095e-08
2.01984e-08
4.80133e-09
3.8173e-11
1.79096e-11
1.4403e-11
5.78818e-11
3.12603e-07
1.13984e-07
2.79891e-09
6.82349e-09
1.20483e-08
1.9221e-08
2.56222e-08
3.06264e-08
3.54032e-08
4.09182e-08
4.61963e-08
5.2138e-08
6.00886e-08
6.13412e-08
5.88877e-08
5.8808e-08
6.08386e-08
6.33448e-08
6.51866e-08
6.66749e-08
6.78619e-08
6.84617e-08
6.86325e-08
6.95145e-08
7.29855e-08
7.742e-08
7.86687e-08
7.84532e-08
7.96619e-08
8.41454e-08
9.0286e-08
9.22159e-08
8.99081e-08
8.55907e-08
7.89798e-08
7.02695e-08
6.10395e-08
5.21262e-08
4.39056e-08
3.61721e-08
2.89376e-08
2.29256e-08
1.85721e-08
1.54679e-08
1.305e-08
1.09891e-08
9.42133e-09
8.74424e-09
9.01097e-09
1.01397e-08
1.06963e-08
1.08987e-08
1.23206e-08
1.64656e-08
2.09025e-08
8.37993e-09
5.1574e-11
2.56303e-11
2.83723e-11
7.76435e-11
4.68047e-08
1.5937e-07
7.97208e-10
6.6635e-09
1.09712e-08
1.22257e-08
1.38668e-08
1.88083e-08
2.56539e-08
2.94101e-08
2.9066e-08
2.24688e-08
1.63495e-08
1.56845e-08
1.74886e-08
1.96258e-08
3.5694e-08
5.79125e-08
6.09054e-08
6.29974e-08
6.56936e-08
6.84963e-08
7.1332e-08
7.39712e-08
7.57799e-08
7.67064e-08
7.68222e-08
7.60391e-08
7.44472e-08
7.23985e-08
7.03047e-08
6.75383e-08
6.31839e-08
5.68489e-08
4.99833e-08
4.43341e-08
4.05558e-08
3.84001e-08
3.69376e-08
3.49134e-08
3.16743e-08
2.71135e-08
2.16431e-08
1.64597e-08
1.29597e-08
1.08682e-08
9.25252e-09
8.36946e-09
8.2987e-09
8.36501e-09
8.1418e-09
9.4794e-09
1.30148e-08
1.96829e-08
2.2374e-08
7.98431e-09
6.35993e-11
3.78268e-11
4.61924e-11
1.25237e-10
2.93744e-08
1.90045e-07
-9.56038e-11
2.83928e-09
4.27308e-09
4.25978e-09
2.46513e-09
9.64681e-10
4.49446e-10
3.4422e-10
3.07716e-10
2.1429e-10
1.29562e-10
1.25658e-10
1.72944e-10
3.69652e-10
3.35481e-09
3.90102e-08
3.73449e-08
4.28312e-08
6.50875e-08
8.03785e-08
8.25841e-08
7.89454e-08
7.2047e-08
7.21861e-08
7.81507e-08
8.46479e-08
8.31801e-08
7.32643e-08
6.1919e-08
5.21742e-08
4.82077e-08
4.59329e-08
4.45907e-08
4.34405e-08
4.2524e-08
4.17291e-08
4.12849e-08
4.08916e-08
3.95191e-08
3.53836e-08
2.79567e-08
2.17854e-08
1.84474e-08
1.57246e-08
1.30731e-08
1.04389e-08
8.77511e-09
7.05852e-09
5.03368e-09
7.55762e-09
1.7698e-08
2.5619e-08
2.69546e-08
3.55409e-09
5.48909e-11
4.17806e-11
4.92172e-11
1.49619e-10
2.01305e-08
1.79081e-07
2.78736e-10
4.29491e-09
7.46462e-09
9.93378e-09
1.22497e-08
1.1616e-08
9.94665e-09
8.6838e-09
6.31287e-09
2.52605e-09
7.80335e-10
4.1324e-10
4.6743e-10
7.76838e-10
2.11118e-09
3.49389e-09
5.12783e-09
1.17576e-08
4.44192e-08
8.09126e-08
8.48279e-08
8.4635e-08
8.05505e-08
7.90405e-08
8.0896e-08
8.56377e-08
8.90526e-08
8.64641e-08
8.017e-08
6.08913e-08
5.20994e-08
5.28872e-08
5.87679e-08
5.51308e-08
5.23917e-08
5.2862e-08
5.44395e-08
5.63669e-08
5.752e-08
5.64929e-08
5.26411e-08
4.3434e-08
2.9803e-08
1.99343e-08
1.46862e-08
1.15176e-08
9.40321e-09
7.19046e-09
5.44106e-09
6.12804e-09
1.35143e-08
2.34318e-08
2.53857e-08
4.70827e-09
6.13531e-11
3.93612e-11
4.46533e-11
1.15535e-10
1.77172e-08
2.05617e-07
1.22389e-09
3.88968e-09
7.17147e-09
9.74699e-09
1.32566e-08
1.62424e-08
1.86505e-08
1.98522e-08
1.99244e-08
1.88265e-08
1.56258e-08
1.13786e-08
6.8125e-09
2.94582e-09
1.4268e-09
1.24317e-09
1.87699e-09
6.74363e-09
4.544e-08
8.03003e-08
8.57626e-08
9.00527e-08
9.39955e-08
9.76007e-08
1.00179e-07
1.01396e-07
1.00825e-07
9.79402e-08
9.25659e-08
8.55867e-08
7.82177e-08
7.20249e-08
6.76154e-08
6.50619e-08
6.42543e-08
6.51257e-08
6.68205e-08
6.86086e-08
7.00824e-08
6.90757e-08
6.45766e-08
5.68211e-08
4.50986e-08
3.20251e-08
2.31343e-08
1.72796e-08
1.37083e-08
1.10193e-08
9.60048e-09
9.22879e-09
1.0334e-08
1.56383e-08
2.18982e-08
1.43013e-08
1.26505e-10
3.14602e-11
3.33406e-11
5.95943e-11
1.07911e-08
5.84619e-08
2.44283e-09
4.73516e-09
6.60997e-09
8.73462e-09
1.20136e-08
1.54378e-08
1.87645e-08
2.15474e-08
2.39616e-08
2.64805e-08
2.87868e-08
3.0079e-08
2.48152e-08
1.16349e-08
7.37832e-09
9.51482e-09
2.08574e-08
6.81125e-08
1.03634e-07
1.11062e-07
1.17445e-07
1.23174e-07
1.27919e-07
1.31486e-07
1.33957e-07
1.35216e-07
1.35173e-07
1.30521e-07
1.22306e-07
1.09774e-07
9.59391e-08
8.75183e-08
8.37293e-08
8.3223e-08
8.52911e-08
8.75604e-08
8.96393e-08
8.91526e-08
8.44369e-08
7.71459e-08
6.98306e-08
6.09576e-08
5.06327e-08
3.97804e-08
3.01853e-08
2.22624e-08
1.60905e-08
1.15969e-08
7.96349e-09
5.50129e-09
6.20785e-09
1.386e-08
2.12529e-08
1.57857e-08
1.27702e-10
3.31179e-11
2.98992e-11
3.86128e-11
7.47242e-09
4.41085e-08
2.30542e-09
3.01555e-09
4.97026e-09
7.53759e-09
1.0712e-08
1.45347e-08
1.85586e-08
2.30026e-08
2.73779e-08
3.22461e-08
3.81225e-08
4.54438e-08
5.35451e-08
6.19545e-08
7.55431e-08
9.32314e-08
1.07673e-07
1.14386e-07
1.17257e-07
1.17235e-07
1.17979e-07
1.21341e-07
1.26364e-07
1.34512e-07
1.44321e-07
1.44766e-07
1.23136e-07
1.12811e-07
1.0826e-07
1.15593e-07
1.14776e-07
1.01281e-07
6.33391e-08
5.98889e-08
7.92589e-08
9.62966e-08
9.56076e-08
7.80474e-08
5.05442e-08
5.0924e-08
5.52421e-08
4.44013e-08
2.46018e-08
2.23406e-08
1.72846e-08
1.25883e-08
9.06034e-09
6.52762e-09
4.23737e-09
4.30334e-09
7.50798e-09
1.79732e-08
2.62683e-08
2.08978e-08
2.50449e-10
3.30984e-11
2.55691e-11
2.76064e-11
4.30704e-09
3.96218e-08
1.48028e-09
3.70484e-09
7.18112e-09
1.0911e-08
1.56741e-08
2.07909e-08
2.63023e-08
3.2004e-08
3.89348e-08
4.74097e-08
5.68488e-08
6.7868e-08
7.97023e-08
9.16772e-08
1.05188e-07
1.17125e-07
1.25907e-07
1.31079e-07
1.34757e-07
1.38812e-07
1.42758e-07
1.45755e-07
1.48153e-07
1.50078e-07
1.50695e-07
1.46043e-07
1.31802e-07
1.25573e-07
1.26058e-07
1.26407e-07
1.17943e-07
1.0655e-07
9.98443e-08
1.00131e-07