/*--------------------------------*- C++ -*----------------------------------*\
| =========                 |                                                 |
| \\      /  F ield         | OpenFOAM: The Open Source CFD Toolbox           |
|  \\    /   O peration     | Version:  2.1.1                                 |
|   \\  /    A nd           | Web:      www.OpenFOAM.org                      |
|    \\/     M anipulation  |                                                 |
\*---------------------------------------------------------------------------*/
FoamFile
{
    version     2.0;
    format      ascii;
    class       volScalarField;
    location    "0.00135";
    object      epsilon;
}
// * * * * * * * * * * * * * * * * * * * * * * * * * * * * * * * * * * * * * //

dimensions      [0 2 -3 0 0 0 0];

internalField   nonuniform List<scalar> 
36520
(
153.823
371.542
986.287
1375.32
1753.48
2056.49
2324.87
2544.63
2728.95
2891.68
3040.21
3192.38
3326.54
3424.12
3440.14
3358.78
3170.89
2894.52
2561.73
2247.63
1978.61
1759.92
1582.34
1425.87
1276.44
1137.59
1006.3
886.573
777.355
678.468
589.613
509.981
438.033
374.092
318.385
271.238
232.471
201.621
178.255
162.704
156.258
161.841
184.622
230.27
301.08
391.536
485.407
554.794
515.936
402.432
268.159
154.496
79.1221
36.9671
16.4184
7.44046
3.65287
2.20902
2.81335
8.69611
40.8288
204.126
299.543
324.55
353.527
367.025
380.051
382.313
388.365
397.268
415.735
433.775
439.31
415.393
357.749
275.601
191.468
132.931
118.837
107.262
86.3662
72.6917
64.313
57.2698
51.1082
46.1797
42.386
39.2682
36.7792
34.8477
32.1711
28.5986
24.6682
21.0466
18.1693
16.1568
15.062
14.848
15.552
17.4926
21.3431
28.3674
40.7571
61.5726
94.4438
143.499
214.154
317.121
420.131
518.19
583.597
572.648
488.194
357.116
224.299
138.891
85.8116
55.1501
38.794
26.2963
14.6038
58.5212
71.2886
66.7596
66.201
62.8351
61.3916
58.0645
57.5613
58.9725
63.9435
70.7274
77.5122
83.0295
91.753
113.801
162.946
250.115
384.498
350.771
158.28
40.1534
11.1156
6.07527
4.89991
4.44869
4.16731
4.02359
4.02544
4.1905
4.4314
4.61529
4.80702
5.09878
5.55191
6.20982
7.13511
8.43168
10.2847
13.0508
17.42
24.6952
37.2754
59.3603
98.3816
168.024
294.613
525.896
948.019
1527.12
2096.34
2451.59
2306.57
1572.42
842.668
446.005
243.735
142.088
89.9251
79.7628
5.43065
17.5796
17.8608
15.5416
15.6749
16.4019
19.2124
24.1059
33.3515
48.7761
74.1759
116.702
191.181
324.809
565.349
980.683
1643.62
2573.72
3799.01
3497.85
1781.18
532.532
142.915
62.1883
44.8505
38.58
31.764
25.327
20.3192
18.0714
19.5067
22.2424
24.8621
26.8246
27.7378
27.8091
27.7189
27.9372
28.5965
29.6795
32.0489
37.3537
47.3907
65.7135
97.9925
155.409
260.568
459.443
852.907
1721.82
3032.15
4550.63
5709.38
4882.13
2800.75
1276.28
637.201
348.169
178.411
137.512
2.45632
8.23027
9.83388
13.4592
21.8754
37.9152
66.9738
117.645
202.154
338.064
560.05
940.882
1630.88
2909.63
5212.86
9019.7
14546.8
21005
27315
24360.4
14061.5
5397.7
1914.54
984.496
766.859
704.169
628.882
542.107
458.384
404.644
405.108
470.895
561.267
643.775
696.111
711.402
712.712
723.937
742.23
667.419
489.364
314.555
154.136
111.515
123.299
157.482
223.138
344.532
566.12
964.006
1649.29
2607.78
3324.9
3834.74
4118.37
3162.88
1606.44
827.817
342.657
168.775
1.80195
17.9668
35.7495
71.1729
135.574
257.821
479.722
863.857
1479.83
2424.92
3860.89
6227.2
10370.4
17825.1
30707.1
50617
77342.2
104185
119963
109097
73716.6
37073.2
17821
10853.6
8589.49
7743.95
7111.24
6492.21
5886.93
5478.07
5434.06
5862.04
6869.5
8270.18
9557.5
10314.4
10644.2
10646.1
10470.8
9868.07
8267.16
6486.77
4208.15
1742.4
867.603
667.223
622.771
619.919
675.186
823.845
1158.51
1569.85
1897.37
2115.16
2274.04
2230.45
1982.41
1581.67
747.133
172.46
5.25656
105.597
234.656
480.698
909.96
1715.77
3153.52
5480.08
8697.6
12678
17805.7
24318.5
35558.6
54610.2
84436.6
125359
173620
212018
228488
221603
190954
140686
92720.9
65412.6
51745.2
43814.9
38369.8
34247.7
30768
28073
26444.2
25884
26704.4
29188.8
33256.9
37694
42037.9
44045.5
43651
42523.9
38839.4
33994.4
28634.5
19893.5
13429.1
10053.4
7771.38
5378.64
3062.06
1775.94
1445.93
1435.71
1531.03
1588.79
1474.11
1345.34
1198.64
1052.77
824.698
170.926
35.2129
501.858
1157.11
2442.23
4613.33
8621.05
14875.1
23731.6
33188.8
44343.7
54779.7
63437.7
74763.1
94657.2
117535
138234
159011
181531
201687
211480
205509
190240
175844
162306
146556
128359
109456
92487.3
79570.4
70164
64036.9
60155.6
58083.1
57835.8
59356.7
62216.5
66011.8
69573.2
70750.6
69633.4
66571.6
61117.7
55219.1
46672
35969.5
27068.4
20508.9
15789.2
12014.4
8533.43
5881.83
4413.99
3550.78
3218.2
2637.38
1946.64
1379.09
995.494
793.781
164.35
87.1102
2060.72
6312.55
12064.6
17545.8
25529.3
30663
34534.1
37151.8
39763.9
43628.5
48183.9
54086.6
61578.2
70245.8
79622.3
87961.1
95742.4
101895
106724
111422
114747
116687
118550
119877
120545
120202
116530
106792
93554.9
82469.7
74764.8
69277.2
65129.2
62089
59971.9
58355.5
57136.4
55874.4
54499.7
52754.8
50062.5
46333.5
41671.1
35709.4
29148.9
22933.2
17891.5
14375.8
11795.4
9748.35
8487.38
7400.97
5579.21
3918.64
2704.08
1729.34
1064.49
722.626
148.178
57.9889
1345.99
4845.36
8208.75
10820.5
13155.8
15018.4
17257.2
19336.4
20326.3
20827.5
21979.1
23751.7
25951.4
28797.7
33175.6
38069.4
42865
47019.3
49781.6
51257.2
52112.7
53317.6
55788.5
59650.1
64018.9
68298.5
72407.2
76724.8
79681.4
77163.9
69118.3
59619.6
51474.4
45428.9
41468.1
39110.9
37715.7
36906.7
36259.7
35154.9
33436.6
31115.6
28081.6
24657
21026.4
17056.6
12982.3
9185.47
6109.43
4090.1
2966.96
2325.66
1884.05
1531.3
1177.5
817.685
563.428
460.321
137.71
36.0726
1055.53
6077.68
12269.4
14483.7
16991.8
20160.9
24191.3
26322.2
25309.4
23146
22503
23949.8
27412.6
33051.4
39681.8
46262
53021.9
59350.9
64066
66708.2
68533.9
69456.7
70691.6
72929.7
76659.7
81627.6
87785.4
94893.7
101789
104911
99469.5
87614
76245.6
67915.2
63287
61824.1
62401
63813.8
64883.6
64321.1
61782
58055.9
53206.7
47325.2
40206.8
32174.2
23932.1
16110
9834.99
5958.46
4032.74
3087.11
2434.24
1920.75
1444.01
1015.21
721.293
601.511
147.898
45.5868
921.963
2368.43
4902.47
8742.93
16091.9
23021.7
29056.6
31183.6
29424
26147.3
25381.9
27820.1
33286.1
40659.6
47776.4
53870.2
60584.7
68786.7
79397.3
90144.3
93434
93995.1
99778.6
106877
113552
120209
127111
132782
134654
129618
117008
101337
87291.7
79232.3
77539
80115.3
84770.7
89305.6
92439.9
92785.5
89672.7
83736.5
75333.9
64834.1
52926.3
39916.7
27011.5
16052.3
8266.99
4468.15
3303.77
3334.04
3157.94
2617.24
2121.22
1595.63
1194.42
1037.33
183.087
52.9259
1009.51
2080.54
3809.4
6298.73
12425.4
20486.6
31447.1
38423.5
38014.7
32854.3
28571.4
27168.6
28783.4
31488.4
32789.3
33229.5
35965.7
41731.5
52187.2
70126.8
92670.1
106916
113153
118499
122328
126589
131765
136667
138784
134674
121763
103767
87645.8
79220.7
77938.4
80932.3
86216.7
91467.3
94700.6
94627.9
91045.9
85761.5
78259.9
68060.7
53710.1
35159.8
19583.8
10029.2
5108.86
3233.97
3173.58
3759.04
3739.37
3268.07
2635.48
1947.64
1418.84
1187.09
197.64
42.3571
1238.1
8533.59
13091.7
13551.9
16906.5
22286.5
29940
38083.7
43191
44291.8
39363.8
31188.2
25273.4
23017
23290.5
23962.5
24551.9
26527.9
31168.7
40411
56738.4
76049
88037
93308.3
97135.6
99874.6
102295
105456
109881
114105
110548
95597.9
80042
69572.1
63835.2
61847.6
61969.8
62625.8
63030
61953.2
59152.4
55248.7
50663.9
45640.2
40002.3
31141.8
19695.3
10591.4
5500.36
3261.49
2550.99
2270.7
1986.43
1724.55
1398.31
1103.86
883.278
775.851
165.116
45.6598
583.207
3149.18
6860.5
8306.95
9604.48
10442.4
10716.2
10942.8
12997.7
16779.2
20962.7
25213.4
29352.8
34148.4
39592.7
43223.2
42507.6
40132.9
38451.2
41358.2
53232
73509.1
91859.5
101196
104560
107773
112041
116061
115535
105457
89292.6
75246.8
66248.1
61696.2
60112.7
59734.4
59567.2
59052.2
56887.8
51781.5
45472.3
39215.9
33404.7
28528.4
23651.8
18229.3
12532.6
7777.93
4629.21
2935.53
2160.91
1713.83
1372.19
1106.3
905.523
749.571
660.16
593.653
150.13
55.4679
971.572
3106.04
6876.51
10489.3
15042.8
21329.8
30711.1
45255.7
66093.4
85166.2
89019.7
84775
84640.3
90405.5
100326
108911
113937
116874
119040
127040
145989
162473
154371
135107
124765
121691
119639
112422
99154
84893.7
73917.1
67292.8
64059.2
61999.5
58972.1
54962.1
50765.8
46405.2
41338.5
35907.1
30708.1
26188.3
21916.8
17986.9
14650.6
11680.6
8682.39
6037.41
4096.44
2931.78
2356.59
2068.94
1729.1
1325.59
1023.8
802.461
685.728
611.408
152.527
35.5656
587.146
1503.62
3564.09
7721.19
14743
25840.9
40313
50214.5
53217.3
54443.9
59049.6
71149
91916.8
121761
160225
200178
227310
236414
233745
219536
194746
165007
142335
131937
126143
117920
105679
91479.8
78532.8
69491.5
64109.5
61026.5
59152.6
58048.9
58116.5
58245.3
57387.7
54826.9
50435.2
44685.9
38087.3
31130.2
24154.9
17849.7
13248.2
10072.5
7778.88
6201.12
5490.51
6015.42
7159.7
7059.63
5518.82
3755.86
2408.27
1531.03
1043.66
833.443
170.687
4.71012
78.7445
181.435
377.079
726.359
1349.4
2431.5
4194.32
6659.67
9165.52
10221.7
12761.6
17604.4
25919.2
39423.9
57871.9
76159.4
88025.7
93802.7
97491.4
97990.7
90895.5
79749.5
69996.6
62105.9
55666.9
48664.2
40962.3
33603.8
28023.9
23683
20004
17439.5
16622.9
17179.5
18537.8
20846.2
22588.1
23135.2
22199
19855.1
17679.5
15388.6
13182.6
11356.8
10616.9
11110
12746
15187.3
17476.8
18265.7
17128.1
13308.5
9093.58
5780.77
3629.28
2302.16
1511.29
1005.81
182.073
2.79097
11.7881
22.966
44.1381
81.061
142.133
237.272
372.794
539.417
723.205
935.959
1231.21
1693.2
2456.38
3681.23
5480.24
7745.56
10308.8
13264.7
16992.1
20982.6
21325.9
18399.4
14564.4
11545.8
9425.63
7476.75
5527.95
3841.77
2633.51
1706.66
1095.59
973.472
991.156
1046.42
1119.44
1200.93
1244.87
1245.13
1217.19
1208.69
1358.83
1527.46
1858.56
2559.65
3702.37
5526.43
7697.27
10038.3
12884.8
15871.7
17278.2
15437.6
12293.4
9663.21
7117.01
4691.97
2820.08
1324.39
188.552
4.46645
5.96921
5.26627
6.36717
9.80865
15.5703
24.2709
35.5246
48.2124
61.4989
76.3367
95.3667
125.66
175.765
257.949
386.611
578.585
856.663
1259.67
1850.61
2647.3
2788.63
2278.44
1644.09
1210.16
916.943
658.667
422.614
247.888
144.514
83.9283
58.9312
59.3272
62.6716
68.6715
77.9441
91.6075
110.307
136.041
172.805
230.303
328.714
498.8
796.283
1316.52
2189.88
3622.12
5887.59
9347.29
14154.7
18361.8
18952.8
15990.9
11227.4
7572.82
5429.99
3627.36
2240.41
860.735
185.775
8.98752
16.9888
12.1622
8.28383
7.16131
6.20496
6.16229
6.45886
7.34709
8.49805
9.94703
11.3992
13.1388
15.8407
20.8113
29.5474
43.8899
66.2471
100.833
155.9
219.073
220.609
170.731
119.538
86.3196
62.7933
42.8811
27.1542
17.642
13.4038
12.057
12.5994
14.4293
17.1518
21.1292
26.9844
35.7144
48.9495
69.6018
103.267
161.096
264.171
450.253
784.741
1379.76
2410.67
4184.4
6998.3
11049.9
14716.3
16481.3
15189.3
11134.9
6688.88
3966.02
2682.77
1896.58
1288.36
538.703
178.277
17.5386
58.1846
54.4419
42.2509
37.5304
31.3854
28.1719
25.1503
25.1051
26.5116
28.8492
29.5445
27.2814
22.2305
16.0341
10.8244
7.77158
7.07171
8.3946
11.74
14.3817
13.7333
10.9491
8.5185
6.94004
5.86764
5.16957
4.89959
5.05183
5.54044
6.31271
7.41702
8.87218
10.8815
13.8506
18.4345
25.7268
37.599
57.3402
91.0883
150.58
258.153
455.109
818.062
1497.02
2738.35
4896.16
8360.22
12165.5
14330.7
13974.5
11368.7
7615.2
4307.44
2307.69
1299.71
738.591
403.466
187.154
116.619
50.8128
202.345
255.145
247.415
251.406
242.805
240.386
234.505
238.741
248.66
261.024
265.934
256.023
229.358
189.816
146.383
106.906
77.9783
60.6839
53.3821
47.8318
43.1664
39.1762
35.7724
32.8255
30.3914
28.3905
26.8031
25.5383
24.6646
24.2508
24.2262
23.8294
23.2582
22.9655
23.5534
25.725
30.3198
38.437
51.9938
74.6902
113.844
183.663
311.887
555.97
1046.32
1813.3
2650.11
3041.32
2804.47
2137.08
1396.33
833.512
470.719
278.661
180.76
124.273
79.6109
52.1651
35.4037
254.563
481.615
1022.37
1316.42
1585.76
1783.8
1949.99
2084.22
2200.02
2307.49
2408.21
2497.66
2561.16
2584.43
2556.08
2475.1
2347.04
2184.39
1998.44
1803.64
1616.7
1442.81
1279.96
1128.3
990.74
870.794
765.174
672.573
589.852
516.733
452.651
397.293
349.868
309.109
274.054
244.805
221.663
205.477
196.81
196.137
203.996
220.214
242.928
265.169
276.573
267.279
238.32
198.662
154.494
112.869
78.0461
51.4772
32.7029
19.962
12.0456
7.23307
4.45356
3.03246
3.71375
11.8827
194.032
433.741
948.322
1251.43
1536.49
1726.77
1902.12
2032.65
2141.71
2234.43
2303.03
2359.81
2384.9
2390.41
2358.01
2300.25
2207.98
2093.07
1956.6
1805.34
1644.05
1478.06
1311.5
1148.48
997.007
862.249
742.371
638.01
547.695
470.924
405.331
349.425
301.619
261.209
227.329
199.342
177.211
161.451
152.752
152.039
160.716
180.155
209.651
241.513
260.729
248.447
211.564
166.904
125.115
90.7445
64.1026
44.2009
29.9374
19.8213
12.9798
8.36787
5.50051
4.03888
5.16335
14.8642
37.3357
150.205
200.857
193.928
189.675
176.916
173.434
163.636
160.744
156.895
155.815
152.533
150.114
142.667
134.724
122.589
109.551
96.483
84.2208
73.7635
64.3278
56.3357
49.4696
43.4994
38.5323
34.3605
30.8947
28.2728
26.4424
25.2467
24.302
23.406
22.5565
21.8449
21.3837
21.4588
22.6569
25.5694
31.0809
40.7084
57.2037
85.4185
133.909
215.81
343.337
460.07
546.532
581.585
566.127
524.76
475.873
422.774
372.039
324.384
277.509
228.896
178.214
127.449
93.1949
41.7517
11.4416
35.3487
34.0933
24.8643
19.7262
14.9466
12.8461
10.4147
9.51306
8.69796
8.43944
8.17706
8.01877
7.53453
7.06782
6.32319
5.60944
5.03177
4.63414
4.46436
4.43062
4.52262
4.72284
5.02592
5.45765
6.09596
6.71805
7.29147
7.69537
8.09608
8.69844
9.78979
11.2699
13.2788
16.0898
20.1453
26.1172
35.0402
48.7256
70.4366
106.792
171.049
289.066
507.034
897.989
1562.47
2677.34
3659.55
4031.83
3919.39
3544.58
2974.03
2374.44
1858.12
1439.67
1089.75
774.821
499.529
280.472
115.349
5.15242
8.96312
6.04393
3.33766
2.28491
1.54611
1.32842
1.17448
1.26986
1.4629
1.85018
2.43057
3.32226
4.62754
6.54108
9.21512
12.7665
17.1437
22.1738
27.6077
33.1952
38.3446
42.4941
45.7892
49.0596
52.8677
56.0038
55.2669
51.8805
46.2473
43.0378
42.3614
43.516
47.5679
55.9254
70.4675
93.9994
131.045
189.442
278.455
423.087
672.091
1123.57
1961.64
3527.95
6407.61
11522.3
19567.4
29908.4
36806.7
37299.5
30583.6
21451.8
13452.3
8111.36
4959.21
3009.22
1783.39
769.939
175.923
2.61344
2.70065
1.51695
1.05612
1.2073
1.6628
2.54182
3.98261
6.33155
10.1203
16.4452
27.0305
45.2747
76.4275
128.766
213.122
339.941
511.045
716.387
937.638
1173.7
1385.79
1517.66
1570.32
1583.64
1562.02
1486.16
1314.48
1070.96
823.921
627.116
499.228
411.472
339.551
288.48
260.888
261.561
298.032
374.361
462.563
597.682
827.934
1263.21
2074.44
3531.96
6098.71
10849.4
20327.6
40567.2
63385.4
71892.9
65341.7
47809.9
27114.1
13526.8
8206.7
5778.72
3759.54
1674.83
203.861
1.50145
2.30049
2.95709
4.66301
7.40738
11.6457
18.2996
29.2492
48.0356
81.1784
141.498
253.054
464.68
861.889
1582.68
2811.54
4714.79
7298.89
10282.5
13283.7
16203.7
18780.3
20377.4
21086.9
21128
20711.2
19636.8
17679
14950.4
12152.4
10002.3
8804.59
7874.59
6961.65
6063.96
5106.45
4147.18
3247.13
2619.31
2307.05
2092.34
1624.27
1315.85
1732.54
2687.38
4477.31
7897.48
14762
29828.6
52972.3
79921.9
91388.3
78338
47696.2
23648.3
13039.4
8151.16
4624.41
2167.9
221.678
1.40643
15.0775
31.183
56.2198
85.4836
124.461
178.296
261.902
410.542
690.826
1210.53
2150.03
3838.13
6783.67
11642.9
18991.7
28984.9
41597
55620
68512.8
79840.8
88874.7
95073.3
98853.6
100541
100650
98631.3
93959.4
86192.1
77021.8
69176.3
64595
63147.4
63226.2
64607.6
65584
65178
61158.6
55409.7
45189.2
37849.8
28570.9
17409.6
9405.26
6032.97
5761.82
6823.24
10209.7
17500.6
28655.4
44514.7
54673.4
52761.2
40759.2
25881.1
14883.5
8130.2
4140.15
2047.26
224.95
5.58019
153.499
384.584
761.749
1237.19
1905.71
2836.09
4126.6
5716.77
7743.77
11477
16931.8
24685.6
36249.4
52571.1
73482.9
98298
125899
152052
174062
191455
204866
213547
218406
220031
219482
216355
210878
202400
190663
177744
166199
159873
159555
165482
176358
190844
204390
215229
218324
205036
181339
148305
110268
76312.4
51574
33971.6
24541
21157.2
21330.2
24233.7
26894
23700.4
18212.2
12604.8
7632.41
4309.93
2378.28
1545.02
213.975
76.8638
1591.22
4379.59
8536.82
14092.5
22736.1
35875.6
51154.9
62770
68908.4
71834.6
77878.6
83454.8
88524.5
97750.1
112981
133904
157606
181485
202782
219209
230674
237191
239269
237901
234804
230843
226542
221374
213310
201953
189329
177520
168071
162608
161093
161499
161126
156627
147878
135142
121117
107631
94797.6
81261.2
66973.9
52989.7
40189.1
30461
23484.4
17807.5
13935.3
11183
8242.09
5627.74
3616.64
2248.36
1440.04
1193.8
193.813
163.439
5608.42
16701.9
33877
60094.8
83479.9
98786.8
111539
130130
161569
197431
214122
194254
153150
122137
105381
98862.6
98770.9
102137
107874
114743
121304
126174
128525
128397
126668
124738
123514
123704
124682
123692
118347
110819
103654
96816.2
90414.1
84606.8
78960
73025.9
67057.6
60299
52822.2
45029
37348.8
30035
23250.3
17156.7
11980
8135.12
5817.94
4566.12
3716.29
2983.86
2272.09
1661.5
1185.42
826.185
605.412
547.126
150.227
86.7635
1985.92
15788.5
31150.6
55723.9
88671
112406
119914
117690
115633
116311
117261
118821
124008
126598
113636
96894.5
87734.2
83894.6
81431
79463
78724.6
79072.7
79421.6
78858.7
77051.9
74134.3
70398.4
66353.2
62656.2
59253.7
55532.7
51344.3
46882.6
42386.9
38404.6
35267.2
33241
32218.2
31503.2
30611.1
29333.6
27136
23752.9
19738.1
15702.9
11748.9
8054.89
5102.22
3225.01
2208.56
1616.05
1210.33
926.008
719.146
570.406
458.381
398.518
399.029
134.848
53.1253
765.86
6182.61
10314.1
13226.2
15646.8
15349.7
14009.1
13781.3
15083.9
17059.1
19982.1
26130.8
40706.4
68926
99120.2
111707
111807
110820
111074
112466
115150
116590
114583
109636
102759
94683.5
85948.4
76729.7
67883.5
60192.9
53776.1
48375.5
43844.8
40595.4
38845
38328.3
38611.5
39213.7
39652.2
39412.8
38175.2
35031.1
29631.6
22968.8
15872.8
9849.82
5682.63
3156.87
1841.26
1235.13
927.091
726.255
601.847
538.238
489.176
441.347
421.323
377.745
124.51
56.1665
1154.63
9900.23
19399.5
24781.5
30748.7
35570
37563.5
35462.3
31756.7
28518.9
28177.5
33514.4
46877.5
63451.1
73978
82039.9
93936
109014
121636
124424
119507
114614
111365
109046
106740
103100
96816.4
87807.3
77675.4
68138.7
60279.9
54150.9
49204.2
45793.7
44219
44088.7
44843.4
46033.4
47153.9
47301
46117.6
42241.3
34765.5
25690.5
17380.8
10918.4
6405.78
3586.93
2013.4
1294.65
957.293
760.377
619.901
552.44
504.755
452.94
428.271
394.791
126.484
57.0709
1712.14
6205.26
13161.3
17620.9
25348.6
31948.5
36301.9
37477.3
37690.3
37721.4
37808.8
39590.9
43751.5
48990.9
52929.6
58336.3
65712.8
72480.8
75433.6
75701.3
76094.3
77167.1
78763.2
80519.6
82158.5
83827.5
85185.8
84603.6
80056.1
72214.1
64257.9
57683.5
52349.1
48678.2
47107
47291.7
48761.6
50600.3
51852.7
51589.6
49347.3
44857.7
38025.5
29868.7
21888.6
14906.7
9279.65
5508.67
3469.45
2451
1822.08
1376.09
1074.98
878.388
724.938
588.845
492.965
479.486
138.593
117.607
2505.88
5437.33
7981.31
9814.33
14023.1
18506.7
23249.5
26938.8
30174.9
33808.8
37195.8
41103.7
48728.8
61201.7
77093.1
94747.7
112734
122748
120694
115374
112497
112393
113826
115421
117067
119272
122558
125393
124121
117136
107327
98491.7
91348.6
86597.1
85818.8
88647.5
93504.6
96944.2
96285.5
90564.5
81410.1
69387.4
54957.7
39627
26628.3
17155.6
10738.5
6720.93
4184.92
2531.27
1626.06
1353.99
1297.55
1148.93
935.345
755.753
622.378
607.168
158.222
166.268
1181.44
1641.81
2760.01
4461.78
6850.67
9933.31
13421
17537.9
22150.8
28300.4
36508.4
48004.3
65166.6
89472.2
119186
147059
161875
159675
155357
156634
161115
165805
168580
169105
168201
165520
159503
149400
136475
122528
108622
97278.1
91720.1
92663
97822.5
104036
108101
106401
99050.2
86999.8
70589.6
53172.2
36846.6
23506
14899
9544.45
6122.56
3890.08
2538.5
1851.87
1882.48
2477.83
2781.54
2537.25
2011.47
1482.94
1090
865.226
191.578
58.4722
824.394
1958.24
4039.75
6783.93
10696.2
15310.6
20598.7
26463.5
34501.7
46724
63695.4
88126.3
118584
152091
185129
210292
216520
207629
200009
198102
198775
200726
201733
200562
196552
188705
177080
163691
149492
134762
121540
114161
111888
112089
113822
115425
114253
108643
98914.4
85660.5
70278.4
53738
37007.2
22259.8
12701.9
7300.71
4668.56
3432.18
2989.87
3167
4202.64
5156
5162.38
4390.57
3289.92
2302.08
1606.8
1119.86
210.912
16.1275
242.334
604.841
1287.05
2382.75
3937.91
5982.37
8832.07
12716.6
18657.2
27621.9
40331.5
57914.5
80753.8
103220
117378
119914
113600
107343
105985
109212
113604
115990
116410
114639
111164
106718
101898
96644
90681.2
85207.6
82009
81290
82052.7
84525.3
87786
88921.6
84893.8
76315.6
63842.9
50239.7
37583.4
27173.8
18148.7
11632
7960.26
6037.67
5301.31
5614.76
6932.98
8966.27
10261.8
9612.67
8135.37
6113.46
4088.19
2704.23
1845.4
1156.56
192.997
3.74151
17.1843
38.6899
81.5717
159.252
291.63
514.872
889.301
1497.04
2464.07
3923.32
6008.26
9004.79
13209.6
18897.3
22668.2
22264.7
19439
16961.2
16489.9
18017.6
19689.7
21187.2
22548.2
23890.1
25446.6
26177.7
26019
24970.9
23314.2
21675.5
20493.1
20104.4
20459
21246.8
22327.8
23302.2
22318.6
20066
16360.2
13298.2
10210.4
7707.81
5879.64
5580.28
6278.35
8012.7
11348.7
16402.8
22032.2
24896.8
24086.4
22490.3
19471.5
14823.5
10309
6445.49
3542.61
1266.04
189.308
5.89748
5.59404
4.65019
5.96489
9.33409
14.8053
23.7271
37.9408
60.3607
94.7023
145.242
218.555
332.368
512.6
786.471
1151.76
1130.79
857.68
634.352
622.913
745.239
867.439
987.386
1110.21
1245.29
1400.25
1554.04
1577.97
1454.61
1266.35
1100.56
1039.55
1072.94
1141.03
1254.86
1429.08
1660.98
1956.47
1975.1
1658.01
1423.41
1210.09
1156.11
1468.3
2299.68
3858.04
6871.62
12291.3
21609.9
32405.1
34100.6
30494.5
24518.1
18264.9
12893.1
8515.36
4778.01
2344.03
701.163
196.204
8.45507
14.5758
9.23679
5.61129
4.35197
3.55441
3.52918
3.62051
4.09099
4.61473
5.29916
6.12732
7.39102
9.52925
13.0906
18.8883
21.5813
16.9367
13.9832
15.7379
18.5269
20.9667
23.0704
25.0912
27.1287
29.1545
30.7881
32.8145
32.4978
31.6686
32.6505
34.7128
37.6747
41.9092
48.0261
56.6287
68.3335
84.3024
107.97
136.124
195.193
310.437
540.287
1015.32
2004.01
4063.86
8244.14
16156.7
28111.5
33786.9
31965.7
24804.7
16205.3
9759.4
5910.2
3519.82
1900.29
968.967
377.619
191.337
16.6199
52.8814
46.2791
33.9894
28.4386
23.3242
21.4198
19.0201
17.8681
15.7846
13.846
11.6665
9.48032
7.75098
6.59156
6.06492
6.09057
6.45882
6.9022
7.32012
7.33756
7.02579
6.50713
5.98666
5.5591
5.30937
5.21211
5.26262
5.44119
5.75661
6.22345
6.85883
7.71072
8.86652
10.5233
12.9994
16.8329
22.9671
33.2728
51.5879
86.6932
158.061
312.63
662.45
1473.72
3362.36
7565.98
16012.3
22900.6
24745.6
21669
14993.1
8447.66
4361.92
2262.8
1268.54
683.483
354.62
180.379
146.711
50.4376
194.855
244.479
230.71
229.443
220.489
220.509
215.237
213.513
204.842
195.078
180.694
163.764
146.581
131.34
119.556
111.591
107.042
102.781
97.4209
89.8695
80.9423
71.561
62.6395
54.2963
47.0488
40.7795
35.4999
31.2413
27.9023
25.3935
23.3553
21.4641
19.7626
18.3874
17.5746
17.7108
19.2925
23.0942
30.5877
44.9975
73.9575
135.652
274.042
596.48
1369.38
3249.99
5550.4
6916.82
6683.25
5002.89
2804.33
1346.99
638.936
362.258
224.87
145.955
90.2261
65.7778
61.8415
232.543
499.329
1065.9
1384.02
1675.57
1891.26
2084.03
2237.01
2364.74
2469.95
2546.15
2603.05
2626.21
2618.2
2570.06
2489.54
2375.68
2239.58
2086.6
1922.91
1752.56
1582.96
1415.85
1256.73
1107.21
970.627
844.838
731.474
629.931
541.286
464.17
398.196
341.551
293.099
251.992
217.829
190.059
168.548
153.711
146.445
148.372
162.225
192.458
240.857
304.551
375.888
421.03
390.152
309.143
211.566
129.039
73.2675
40.8575
22.7087
12.7055
6.94804
3.99649
2.85481
5.02859
21.9389
201.888
399.87
881.337
1155.45
1403.02
1586.79
1733.69
1852.95
1954.11
2049.2
2139.12
2219.25
2275.18
2294
2265.96
2191.84
2077.38
1934.18
1772.34
1601.76
1435.11
1280.84
1136.94
1007.12
892.173
793.827
708.919
635.692
570.647
514.19
466.08
425.885
391.893
362.9
338.397
319.178
306.221
300.825
303.625
313.743
328.795
346.096
365.166
383.419
388.358
380.5
360.651
314.257
244.164
173.953
118.345
79.0966
52.1792
33.6664
21.6105
13.8389
9.08621
6.5683
8.42977
26.2563
130.129
290.756
669.049
889.158
1078.68
1222.86
1331.64
1420.84
1494.42
1563.84
1628.97
1685.99
1723.75
1733.09
1707.55
1649.23
1562.9
1457.49
1340.56
1219.77
1099.33
988.947
888.669
804.071
730.208
667.41
613.681
568.036
526.976
489.217
454.535
423.222
394.043
366.233
340.719
319.751
304.397
294.076
289.658
296.236
319.591
367.197
445.397
561.46
691.3
789.89
825.493
737.019
543.745
344.489
202.842
120.837
75.5513
48.9588
33.0934
22.8983
16.3811
12.7818
17.1439
52.2116
114.374
225.184
458.331
591.863
714.382
811.93
882.636
941.881
990.078
1035.22
1076.99
1112.77
1135.27
1138.44
1118.54
1077.16
1017.47
945.26
865.335
783.479
703.409
633.484
572.197
518.407
469.782
427.071
389.291
355.208
323.697
296.032
275.763
262.167
253.014
250.945
255.711
260.555
268.524
293.32
349.198
456.726
630.753
870.068
1157.45
1540.36
1972.77
2343.64
2536.38
2323.78
1752.2
1084.44
578.277
286.517
146.677
79.8598
49.9208
35.3115
26.9524
22.1745
30.0081
87.9719
103.745
165.123
281.459
336.96
403.033
460.607
503.934
544.7
580.687
614.999
639.07
656.701
664.636
659.375
638.737
603.607
556.092
504.921
454.619
409.129
370.043
335.57
305.734
284.655
274.93
275.125
284.093
307.935
355.132
442.645
557.074
654.707
717.317
821.949
977.971
1086.58
1168.76
1309.67
1497.91
1772.18
2133.44
2533.35
2849.73
3292.53
3861
4536.36
5235.58
5304.22
4543.66
3271.84
2011.04
1019.8
472.67
204.253
94.9631
59.7774
45.2412
36.1501
45.8998
122.386
94.5337
94.6131
124.756
151.353
179.626
208.892
228.265
249.096
266.207
283.089
296.452
305.208
306.279
298.914
283.138
262.252
239.564
218.651
201.991
191.509
186.801
183.912
188.621
205.913
238.699
291.402
367.478
465.366
595.053
760.286
932.177
1091.27
1243.53
1449.32
1728.28
2054.39
2342.64
2564.7
2759.02
2966.51
3312.77
3688.63
3840.96
3870.45
3957.3
4179.49
4413.58
4421.64
3987.38
3228.85
2253.23
1290.34
598.811
304.136
181.299
127.296
90.7907
60.2614
58.9183
140.117
81.8266
55.2563
75.6599
95.1685
119.501
136.787
154.283
167.871
181.709
193.929
204.639
211.24
212.551
207.373
196.923
183.404
170.08
159.41
153.503
154.393
160.655
169.907
185.143
208.963
240.049
279.221
329.375
386.122
455.102
547.227
660.675
805.116
974.194
1185.73
1436.41
1766.07
2128.6
2419.38
2640.91
2832.15
3062.65
3259.17
3339.87
3345.66
3304.39
3300.77
3343.33
3491.28
3613.01
3371.37
2864.91
2180.9
1427.37
852.772
496.709
287.901
167.804
87.7634
66.9153
145.076
88.5185
96.7954
144.607
174.725
211.181
238.165
267.444
291.214
316.174
338.374
356.973
367.108
367.545
356.776
336.372
310.282
283.238
258.478
237.546
221.722
212.898
209.772
213.583
224.493
240.339
260.376
282.911
307.614
340.5
390.314
451.73
546.125
698.655
913.75
1188.18
1520.89
1878.04
2242.33
2525.84
2644.64
2764.54
2869.49
2781.56
2475.78
1985.19
1418.33
1017.98
747.393
624.539
574.705
554.243
528.467
503.83
455.345
387.179
293.608
200.718
126.64
112.238
252.187
66.6879
134.098
289.687
385.707
485.657
557.667
630.249
688.304
742.961
790.791
826.336
838.154
821.097
775.837
705.231
621.896
538.031
463.563
405.474
360.263
328.485
311.101
312.049
338.02
399.168
496.613
641.629
836.095
1093.29
1420.09
1863.73
2430.85
3201.61
4155.6
5258.36
6238.69
6862.53
7384.35
8064.34
8646.42
9085.29
9670.99
10753.6
12055.4
12479.5
12260.3
11337.1
9517.57
7295.09
5151.03
3264.39
2013.66
1196.9
674.316
456.605
299.84
163.421
85.7333
79.8376
202.222
61.9682
161.06
415.612
607.488
812.881
967.601
1123.61
1255.13
1376.53
1491.1
1606.28
1710.59
1793.47
1842.73
1841.96
1784.65
1673.63
1517.15
1348.97
1197.43
1069.79
961.821
876.539
815.314
780.287
775.96
814.538
917.931
1089.81
1331.49
1666.43
2108.14
2675.58
3288.33
4023.26
4849.94
5738.83
6646.5
7274.4
7824.64
8718.04
10018
11661.6
13209.8
14132.9
14169.3
12696.7
9992.62
7252.21
4524.52
2242.49
953.697
461.717
281.914
201.814
142.293
82.8213
46.4677
46.5361
132.177
68.1064
204.99
554.904
781.114
1025.24
1219.89
1403.04
1555.85
1698.14
1833.19
1972.94
2110.07
2235.96
2340.1
2407.32
2427.79
2398.05
2324.39
2216.45
2082.35
1932.29
1778.06
1632.52
1500.95
1385.7
1287.59
1201.96
1130.23
1073.37
1029.84
995.579
971.559
956.262
943.836
944.03
967.271
1030.76
1168.94
1426.26
1861.75
2599.2
3717.8
5023.02
6035.01
6682.16
6691.21
5734.29
4398.29
3113.07
1869.99
1060.87
577.253
342.726
219.072
166.846
119.768
74.5323
41.0279
37.156
105.776
84.895
253.932
654.407
910.749
1168.97
1369.45
1549.8
1696.25
1827.51
1949.18
2065.87
2179.94
2279.66
2359.57
2407.69
2419.02
2391.16
2330.03
2245.13
2143.47
2026.2
1899.36
1761.7
1625.85
1501.28
1391.98
1291.79
1201.45
1118.49
1043.85
974.513
909.498
847.31
785.203
724.092
666.951
615.251
579.193
573.995
621.964
757.607
1011.66
1375.59
1734.59
1930.39
1863.38
1587.81
1246.95
910.54
607.949
395.056
256.82
176.579
125.829
94.0805
73.0288
52.1594
31.9781
31.5275
89.3249
96.1974
259.823
680.352
950.648
1210.87
1409.71
1581.4
1718.64
1836.17
1942.47
2036.89
2125.05
2193.23
2241.69
2256.21
2238.99
2186.71
2106.72
2007.87
1897.38
1777.7
1654.7
1525.58
1402.37
1286.88
1182.82
1087.65
1002.05
924.983
858.54
802.943
758.278
722.979
694.195
669.543
645.778
630.175
607.898
584.703
561.455
554.156
587.807
663.205
744.237
777.115
727.873
628.495
511.518
394.585
289.154
207.25
147.518
106.152
76.6007
55.6342
40.3545
28.359
20.1541
23.5161
69.3047
97.2856
258.935
731.731
1024.26
1292.45
1491.99
1662.09
1794.65
1904.71
2002.1
2080.83
2149.84
2191.99
2212.51
2195.82
2149.57
2069.17
1965.24
1843.94
1712.13
1573.48
1434.36
1294.98
1166.17
1050.67
949.924
859.33
779.517
709.209
649.335
598.511
555.466
518.687
487.718
462.224
441.145
423.171
411.712
411.328
427.074
456.776
493.632
524.807
539.544
522.593
471.151
400.234
323.693
250.008
186.905
136.995
99.2537
71.4076
50.6846
35.774
24.7368
17.0974
12.6212
15.7882
47.1676
152.958
360.532
851.235
1149.78
1428.86
1626.14
1799.49
1931.03
2038.89
2133.34
2204.76
2266.27
2297.06
2307.58
2279.04
2223.4
2132.81
2018.82
1884.88
1737.56
1582.01
1424.01
1266.47
1117.35
983.05
865.204
760.774
670.315
592.518
527.325
472.305
425.861
386.27
352.891
325.155
303.068
287.26
279.179
280.232
293.382
320.446
361.073
408.831
436.755
421.14
373.119
310.289
245.004
185.611
136.987
99.0779
70.3967
49.2557
33.7005
22.7592
15.0684
10.1044
7.44154
9.47001
28.0357
183.017
418.066
1030.41
1391.18
1727.65
1976.88
2194.22
2365.31
2507.25
2623.93
2710.38
2777.05
2811.35