/*--------------------------------*- C++ -*----------------------------------*\
| =========                 |                                                 |
| \\      /  F ield         | OpenFOAM: The Open Source CFD Toolbox           |
|  \\    /   O peration     | Version:  2.1.1                                 |
|   \\  /    A nd           | Web:      www.OpenFOAM.org                      |
|    \\/     M anipulation  |                                                 |
\*---------------------------------------------------------------------------*/
FoamFile
{
    version     2.0;
    format      ascii;
    class       volVectorField;
    location    "0.00135";
    object      fluctuation2;
}
// * * * * * * * * * * * * * * * * * * * * * * * * * * * * * * * * * * * * * //

dimensions      [0 1 -1 0 0 0 0];

internalField   nonuniform List<vector> 
36520
(
(0.371861 0.213729 0.268695)
(0.508813 0.324687 0.310459)
(0.701203 0.454118 0.43069)
(0.774934 0.513447 0.488433)
(0.84043 0.554659 0.531695)
(0.885041 0.584478 0.563311)
(0.922355 0.60741 0.587974)
(0.950645 0.624656 0.607393)
(0.974071 0.637758 0.621956)
(0.994543 0.648342 0.633613)
(1.01389 0.656596 0.642773)
(1.03376 0.664119 0.651501)
(1.05141 0.669673 0.659134)
(1.06419 0.672772 0.665608)
(1.06701 0.671393 0.668479)
(1.05815 0.664717 0.666689)
(1.03645 0.65179 0.658516)
(1.00354 0.632498 0.643091)
(0.962123 0.607432 0.620391)
(0.920736 0.581142 0.594561)
(0.88379 0.555978 0.568073)
(0.852697 0.533258 0.54266)
(0.825931 0.513178 0.519966)
(0.800214 0.494565 0.499345)
(0.772997 0.475992 0.479177)
(0.745281 0.45775 0.459363)
(0.716725 0.439277 0.439222)
(0.688357 0.420992 0.419273)
(0.660095 0.402825 0.399539)
(0.632004 0.384776 0.380256)
(0.604106 0.366931 0.361632)
(0.576362 0.349335 0.343709)
(0.548433 0.331836 0.326204)
(0.520718 0.31471 0.309157)
(0.493752 0.29827 0.292663)
(0.468301 0.28292 0.27705)
(0.445038 0.26907 0.262641)
(0.42461 0.257082 0.249768)
(0.407765 0.247376 0.238804)
(0.395872 0.240766 0.230428)
(0.391029 0.238615 0.225683)
(0.396169 0.242975 0.22605)
(0.414434 0.256179 0.233125)
(0.446311 0.278931 0.247242)
(0.487858 0.30874 0.266567)
(0.532202 0.340484 0.28775)
(0.571296 0.368802 0.307073)
(0.596543 0.388233 0.320741)
(0.581672 0.38006 0.31531)
(0.534153 0.349448 0.295045)
(0.464593 0.304525 0.263891)
(0.384281 0.252643 0.225979)
(0.305176 0.201811 0.186276)
(0.235119 0.156729 0.14833)
(0.178054 0.120143 0.115775)
(0.135331 0.0934375 0.0911128)
(0.105068 0.0756381 0.073935)
(0.0857853 0.0676189 0.0665206)
(0.0861356 0.0793491 0.0815588)
(0.111655 0.125197 0.131184)
(0.326492 0.182876 0.183396)
(0.381749 0.239641 0.223178)
(0.424233 0.273552 0.259743)
(0.422714 0.276833 0.26516)
(0.428163 0.280283 0.269978)
(0.426854 0.280096 0.27135)
(0.427277 0.280192 0.272387)
(0.423642 0.277564 0.271024)
(0.42256 0.276255 0.270173)
(0.422787 0.275275 0.269666)
(0.427008 0.276098 0.270873)
(0.430457 0.276274 0.271598)
(0.428615 0.273202 0.269545)
(0.41472 0.263395 0.261221)
(0.386382 0.245711 0.245188)
(0.344769 0.220698 0.221734)
(0.29675 0.192279 0.194363)
(0.256523 0.168662 0.171077)
(0.241339 0.159846 0.162177)
(0.234761 0.154756 0.156679)
(0.226788 0.147671 0.148902)
(0.220476 0.141523 0.14206)
(0.214575 0.136043 0.136172)
(0.207944 0.130659 0.13058)
(0.20099 0.125586 0.125279)
(0.194723 0.121259 0.120592)
(0.189412 0.117716 0.116549)
(0.184659 0.114559 0.112887)
(0.180514 0.111784 0.109676)
(0.176864 0.109299 0.106892)
(0.171573 0.105853 0.103282)
(0.164209 0.101229 0.0986014)
(0.155574 0.0959434 0.0932859)
(0.147072 0.0908595 0.0880774)
(0.139967 0.086734 0.0836577)
(0.134915 0.0839408 0.0803871)
(0.13239 0.0827524 0.0785199)
(0.132497 0.0832394 0.0780611)
(0.135363 0.0855128 0.0790471)
(0.141736 0.0900976 0.0818232)
(0.152818 0.0978767 0.086976)
(0.170077 0.109985 0.0952471)
(0.194788 0.12744 0.107358)
(0.226614 0.150155 0.123308)
(0.263254 0.176508 0.142156)
(0.301516 0.203975 0.162565)
(0.338327 0.230386 0.183447)
(0.371968 0.254208 0.204796)
(0.388056 0.263649 0.218155)
(0.39358 0.2631 0.226462)
(0.390619 0.253625 0.229429)
(0.376222 0.234894 0.225414)
(0.349508 0.210024 0.213791)
(0.30876 0.179252 0.19164)
(0.258124 0.14607 0.161543)
(0.213889 0.119877 0.134962)
(0.177027 0.100465 0.114372)
(0.153331 0.0931818 0.108165)
(0.163854 0.119612 0.14094)
(0.224166 0.205847 0.236989)
(0.236828 0.125822 0.124987)
(0.217351 0.136295 0.127287)
(0.222639 0.143537 0.136986)
(0.207416 0.135699 0.13061)
(0.200873 0.131483 0.127285)
(0.19157 0.125685 0.122377)
(0.185807 0.122063 0.119191)
(0.177721 0.117042 0.114557)
(0.173406 0.11443 0.111918)
(0.17111 0.112922 0.110483)
(0.172619 0.113622 0.111271)
(0.17478 0.114723 0.112734)
(0.174494 0.114577 0.113161)
(0.168793 0.11199 0.111128)
(0.160038 0.108937 0.108307)
(0.15569 0.110094 0.109185)
(0.164962 0.120396 0.118836)
(0.190173 0.139983 0.137707)
(0.229106 0.166616 0.163719)
(0.221287 0.159423 0.156205)
(0.160283 0.115155 0.112675)
(0.0996681 0.070412 0.0695503)
(0.0734566 0.0500631 0.0500601)
(0.065962 0.0439771 0.0442697)
(0.0632221 0.0417893 0.04222)
(0.0620129 0.04085 0.0412673)
(0.0615197 0.0404561 0.0407095)
(0.0614353 0.0403786 0.040425)
(0.0617393 0.0405994 0.0404622)
(0.062491 0.0411598 0.0409135)
(0.063166 0.0417578 0.0415118)
(0.0632415 0.042062 0.0419165)
(0.0632424 0.0423783 0.0423886)
(0.0638708 0.0430974 0.0432438)
(0.0655328 0.0444378 0.0446289)
(0.0683061 0.0464416 0.046547)
(0.0722247 0.0491604 0.0490038)
(0.0774447 0.0527158 0.0520796)
(0.0842463 0.0573335 0.0559582)
(0.0932568 0.0634914 0.060991)
(0.105462 0.071944 0.0677489)
(0.122174 0.0836999 0.077023)
(0.144843 0.0998486 0.0896747)
(0.174454 0.121121 0.10639)
(0.211533 0.147772 0.127746)
(0.257087 0.180049 0.154498)
(0.313485 0.219396 0.188218)
(0.384274 0.267774 0.230689)
(0.474805 0.327405 0.284521)
(0.569439 0.383936 0.338634)
(0.649708 0.422563 0.381749)
(0.701659 0.435485 0.406839)
(0.693604 0.411931 0.398028)
(0.602523 0.345732 0.343108)
(0.478186 0.267504 0.272329)
(0.378398 0.209566 0.216986)
(0.302501 0.170132 0.177522)
(0.25539 0.151949 0.162012)
(0.253783 0.176183 0.195786)
(0.339333 0.284822 0.318945)
(0.173099 0.0868889 0.0881321)
(0.124666 0.0778912 0.0732437)
(0.116035 0.0749061 0.0718569)
(0.101649 0.06723 0.0649575)
(0.095549 0.0639604 0.0621446)
(0.0899906 0.0613807 0.0598909)
(0.0886811 0.0619063 0.0605347)
(0.0893264 0.0642271 0.0628003)
(0.0957938 0.070511 0.0688502)
(0.107478 0.0800709 0.0782646)
(0.125676 0.0935603 0.0917682)
(0.150687 0.111273 0.109942)
(0.185254 0.13547 0.134796)
(0.233016 0.169181 0.168908)
(0.298547 0.215961 0.215187)
(0.383672 0.277338 0.274616)
(0.485481 0.350851 0.344799)
(0.593533 0.427462 0.417294)
(0.70381 0.500414 0.486474)
(0.674285 0.477192 0.461221)
(0.498599 0.355674 0.342419)
(0.294158 0.211774 0.20631)
(0.170601 0.122981 0.123598)
(0.125053 0.089955 0.0930133)
(0.112161 0.0802962 0.0843847)
(0.107146 0.0762839 0.080898)
(0.10069 0.071325 0.07602)
(0.0938663 0.0662188 0.0706377)
(0.0880801 0.0619756 0.0659298)
(0.0857526 0.0602029 0.0638325)
(0.0888793 0.0622058 0.0658576)
(0.093714 0.0653406 0.0692319)
(0.0981037 0.0681193 0.0724157)
(0.101412 0.0701228 0.0749386)
(0.103324 0.071168 0.0765377)
(0.104368 0.0716226 0.0775181)
(0.105561 0.0722131 0.0785045)
(0.107548 0.0733939 0.079866)
(0.110546 0.075318 0.0817453)
(0.114613 0.0780561 0.084183)
(0.120698 0.082338 0.0878685)
(0.130284 0.0893283 0.093858)
(0.144719 0.100081 0.102952)
(0.165558 0.115802 0.116248)
(0.193769 0.137498 0.134738)
(0.231168 0.166269 0.159416)
(0.281335 0.203691 0.192269)
(0.35023 0.252832 0.236304)
(0.447977 0.319468 0.296901)
(0.596924 0.417389 0.387895)
(0.771199 0.517623 0.486518)
(0.935112 0.590597 0.575379)
(1.04499 0.621998 0.624962)
(0.994244 0.562716 0.571247)
(0.809335 0.44406 0.449054)
(0.606175 0.33104 0.328233)
(0.471231 0.261188 0.254832)
(0.384878 0.221866 0.218554)
(0.340756 0.219273 0.23004)
(0.433064 0.319965 0.348258)
(0.13284 0.0655143 0.0689864)
(0.0744497 0.0479031 0.0462535)
(0.0674415 0.0468294 0.0456077)
(0.0658839 0.0488973 0.0480253)
(0.0755765 0.0577601 0.057099)
(0.0927889 0.0719456 0.0714205)
(0.118156 0.0921063 0.0914384)
(0.151822 0.118547 0.11729)
(0.194518 0.151401 0.148997)
(0.247503 0.190589 0.187245)
(0.313574 0.237115 0.233804)
(0.399609 0.295087 0.293919)
(0.516373 0.372335 0.375258)
(0.675421 0.478009 0.485287)
(0.884331 0.618335 0.627381)
(1.13753 0.790657 0.79546)
(1.41176 0.979053 0.972401)
(1.6568 1.14703 1.12399)
(1.83989 1.26447 1.22632)
(1.7378 1.19546 1.14586)
(1.36264 0.951701 0.903021)
(0.901662 0.639994 0.611392)
(0.585154 0.416201 0.409298)
(0.45141 0.320427 0.324361)
(0.414061 0.293035 0.302394)
(0.403813 0.284473 0.29747)
(0.387598 0.271811 0.28721)
(0.366773 0.2561 0.272481)
(0.345214 0.240246 0.255914)
(0.331516 0.230004 0.243879)
(0.334874 0.231573 0.243536)
(0.358462 0.246824 0.257491)
(0.386606 0.264877 0.274711)
(0.40868 0.278579 0.288205)
(0.419114 0.284446 0.294738)
(0.417519 0.282404 0.294428)
(0.410938 0.277256 0.291601)
(0.406195 0.273421 0.289716)
(0.403015 0.270393 0.288115)
(0.378091 0.252714 0.271668)
(0.327104 0.217517 0.237373)
(0.272014 0.179828 0.200002)
(0.213622 0.140272 0.159841)
(0.198605 0.130391 0.148664)
(0.209624 0.139021 0.156346)
(0.23131 0.156247 0.172417)
(0.264649 0.182444 0.196269)
(0.313327 0.219441 0.229324)
(0.38211 0.269726 0.273591)
(0.476707 0.335752 0.331802)
(0.610829 0.418419 0.413171)
(0.762488 0.499614 0.503447)
(0.872594 0.539743 0.557655)
(0.949079 0.556897 0.585577)
(0.992344 0.556711 0.589513)
(0.901935 0.492448 0.514721)
(0.699961 0.383994 0.383056)
(0.550828 0.310774 0.295018)
(0.422982 0.25525 0.244496)
(0.492778 0.322775 0.335376)
(0.117198 0.0601918 0.0662086)
(0.0715371 0.0530059 0.0531065)
(0.0920061 0.0719818 0.0715061)
(0.124324 0.0983929 0.0978715)
(0.167677 0.131639 0.131538)
(0.226472 0.175982 0.176453)
(0.302323 0.233533 0.233884)
(0.397003 0.30595 0.304393)
(0.509131 0.391576 0.385255)
(0.639697 0.487843 0.476925)
(0.792529 0.593795 0.58247)
(0.986194 0.720059 0.716624)
(1.24291 0.88168 0.89636)
(1.58635 1.09777 1.1371)
(2.02555 1.37596 1.4385)
(2.53656 1.7007 1.77445)
(3.06801 2.03896 2.10357)
(3.49722 2.31252 2.34651)
(3.69799 2.43993 2.42854)
(3.54049 2.35009 2.28357)
(3.00387 2.03666 1.93073)
(2.26516 1.5758 1.48238)
(1.68839 1.18154 1.13578)
(1.39599 0.97331 0.960573)
(1.28399 0.893789 0.898014)
(1.23981 0.861477 0.878155)
(1.20038 0.832449 0.860992)
(1.15864 0.80177 0.840675)
(1.11677 0.771603 0.8162)
(1.09075 0.752684 0.797909)
(1.0958 0.755184 0.796567)
(1.14037 0.784182 0.817858)
(1.22713 0.840559 0.863625)
(1.33153 0.907081 0.919065)
(1.414 0.95737 0.959557)
(1.45121 0.978077 0.973836)
(1.45444 0.978031 0.972441)
(1.43337 0.963092 0.959802)
(1.39963 0.93862 0.940336)
(1.33868 0.895181 0.90431)
(1.21528 0.810651 0.828271)
(1.07017 0.711903 0.738035)
(0.862209 0.574642 0.605048)
(0.577656 0.385597 0.41749)
(0.435271 0.288134 0.324981)
(0.397119 0.259742 0.303191)
(0.392102 0.255817 0.30404)
(0.398476 0.26226 0.309842)
(0.419427 0.280504 0.32307)
(0.46069 0.314425 0.350337)
(0.543755 0.371998 0.404537)
(0.63973 0.429228 0.456985)
(0.720246 0.465685 0.492654)
(0.771215 0.477872 0.517157)
(0.802506 0.484658 0.538534)
(0.806952 0.478501 0.534264)
(0.781127 0.452094 0.491921)
(0.724167 0.407389 0.417673)
(0.544439 0.318598 0.297704)
(0.521021 0.309327 0.30357)
(0.155964 0.0953012 0.104666)
(0.154265 0.118637 0.122872)
(0.221724 0.173693 0.176582)
(0.308564 0.240618 0.245221)
(0.415014 0.318971 0.325297)
(0.556198 0.421225 0.428728)
(0.733775 0.552238 0.554449)
(0.941243 0.709361 0.697814)
(1.1565 0.876175 0.843551)
(1.36919 1.04024 0.984114)
(1.59112 1.20092 1.13245)
(1.83717 1.35961 1.30072)
(2.17913 1.56426 1.54297)
(2.63707 1.83708 1.87168)
(3.19679 2.17782 2.27126)
(3.81446 2.55688 2.69094)
(4.43112 2.92862 3.074)
(4.87502 3.18299 3.31599)
(5.0646 3.27991 3.37669)
(5.01826 3.25467 3.28373)
(4.72749 3.11861 3.05636)
(4.1884 2.84132 2.71431)
(3.57904 2.46195 2.34697)
(3.15252 2.16123 2.08801)
(2.89482 1.98021 1.9315)
(2.71939 1.86179 1.8308)
(2.57837 1.76856 1.75881)
(2.45772 1.6887 1.70434)
(2.34665 1.61574 1.65463)
(2.25656 1.5579 1.61232)
(2.20385 1.52455 1.58471)
(2.19314 1.51894 1.57591)
(2.23458 1.54778 1.59269)
(2.33138 1.61231 1.63809)
(2.47028 1.70299 1.70591)
(2.60627 1.79041 1.76812)
(2.7223 1.86206 1.81733)
(2.76006 1.88106 1.8205)
(2.72399 1.85351 1.78452)
(2.66037 1.80413 1.73519)
(2.52441 1.70604 1.64333)
(2.35017 1.57905 1.53376)
(2.14351 1.43359 1.41276)
(1.7908 1.20754 1.20794)
(1.48215 1.0149 1.0282)
(1.28762 0.889286 0.916573)
(1.13479 0.78351 0.827744)
(0.955204 0.655664 0.715493)
(0.755821 0.510292 0.581156)
(0.630632 0.414865 0.489756)
(0.609517 0.399734 0.469048)
(0.62754 0.419966 0.482254)
(0.647888 0.450457 0.51265)
(0.657794 0.46473 0.534191)
(0.656631 0.454562 0.513831)
(0.656209 0.437255 0.481167)
(0.644979 0.412655 0.442334)
(0.628971 0.381324 0.397117)
(0.577558 0.350284 0.341263)
(0.523875 0.306092 0.295088)
(0.27186 0.197546 0.21057)
(0.318992 0.249369 0.258656)
(0.460843 0.365415 0.363188)
(0.645257 0.505874 0.503063)
(0.862358 0.66491 0.655694)
(1.1451 0.861841 0.854858)
(1.45926 1.07867 1.07512)
(1.79068 1.31321 1.309)
(2.06526 1.52121 1.50941)
(2.33604 1.73079 1.69055)
(2.55808 1.90349 1.83165)
(2.74289 2.04742 1.9515)
(2.97811 2.19978 2.10704)
(3.34245 2.40529 2.34513)
(3.72932 2.61124 2.59883)
(4.06746 2.79405 2.81982)
(4.39303 2.97077 3.02731)
(4.71731 3.14 3.22861)
(4.9891 3.279 3.39206)
(5.12784 3.35992 3.47147)
(5.08828 3.3727 3.44605)
(4.93672 3.33549 3.34485)
(4.79323 3.26548 3.22317)
(4.66613 3.16082 3.09408)
(4.50702 3.03166 2.95073)
(4.29752 2.88476 2.79178)
(4.04833 2.72422 2.62925)
(3.79056 2.5638 2.48493)
(3.5592 2.42453 2.37794)
(3.36384 2.31096 2.2973)
(3.22246 2.23122 2.23689)
(3.12936 2.17995 2.19067)
(3.08272 2.15567 2.16121)
(3.08283 2.15932 2.15457)
(3.12495 2.18767 2.1705)
(3.19586 2.23285 2.20091)
(3.28272 2.2851 2.23676)
(3.35745 2.32612 2.2603)
(3.37751 2.33188 2.24826)
(3.34439 2.30285 2.20179)
(3.2627 2.24408 2.12462)
(3.12383 2.14936 2.01191)
(2.96018 2.03708 1.88956)
(2.71838 1.8795 1.73369)
(2.40393 1.67939 1.5415)
(2.1043 1.48921 1.36314)
(1.84308 1.32097 1.21267)
(1.61573 1.17205 1.0917)
(1.40174 1.02794 0.982344)
(1.18926 0.871984 0.857327)
(1.02113 0.733582 0.736218)
(0.926702 0.656845 0.664879)
(0.866975 0.627496 0.632871)
(0.84367 0.629208 0.63269)
(0.795713 0.587332 0.596579)
(0.727728 0.521034 0.525916)
(0.656254 0.454326 0.453747)
(0.600223 0.394422 0.391314)
(0.560973 0.368734 0.351099)
(0.513706 0.304164 0.293551)
(0.378292 0.286458 0.250591)
(0.60683 0.393746 0.398486)
(0.957024 0.663023 0.655575)
(1.2701 0.897834 0.872491)
(1.51072 1.07263 1.04288)
(1.79915 1.2788 1.23393)
(1.96301 1.39534 1.35525)
(2.07732 1.47965 1.46051)
(2.14605 1.54409 1.5599)
(2.20863 1.61466 1.65578)
(2.30413 1.7074 1.74806)
(2.42607 1.80929 1.82344)
(2.58609 1.92562 1.89811)
(2.78603 2.05506 1.9788)
(3.01318 2.18885 2.0713)
(3.24875 2.31409 2.18845)
(3.45903 2.41096 2.31381)
(3.64284 2.48951 2.44767)
(3.76795 2.55279 2.5796)
(3.8416 2.61419 2.70262)
(3.90275 2.67845 2.7992)
(3.95597 2.72878 2.84115)
(4.00841 2.762 2.8334)
(4.067 2.78895 2.8099)
(4.11702 2.80691 2.78285)
(4.15688 2.81615 2.75161)
(4.18107 2.8162 2.71288)
(4.15439 2.79016 2.65512)
(4.0296 2.71255 2.56623)
(3.82714 2.59751 2.46655)
(3.62411 2.49012 2.38611)
(3.4571 2.40572 2.32109)
(3.3276 2.33798 2.26457)
(3.23295 2.28288 2.21545)
(3.17148 2.24233 2.17938)
(3.1364 2.21549 2.15809)
(3.11612 2.19609 2.14239)
(3.10515 2.18049 2.12643)
(3.0913 2.16196 2.10065)
(3.06975 2.13866 2.06388)
(3.03118 2.1064 2.01457)
(2.96 2.05703 1.94304)
(2.85283 1.98735 1.84833)
(2.70803 1.89823 1.73256)
(2.51333 1.78273 1.58715)
(2.2808 1.64546 1.42381)
(2.0283 1.49832 1.26343)
(1.78376 1.35961 1.12562)
(1.57235 1.24649 1.02546)
(1.39176 1.15224 0.955501)
(1.25549 1.06892 0.898011)
(1.19596 1.0067 0.855921)
(1.17004 0.939614 0.807146)
(1.08356 0.826646 0.714393)
(0.961448 0.707928 0.628755)
(0.839797 0.603749 0.550719)
(0.713813 0.501396 0.465674)
(0.608592 0.410556 0.38918)
(0.542072 0.37397 0.344568)
(0.493283 0.294754 0.286222)
(0.324382 0.252001 0.225369)
(0.504617 0.314144 0.333327)
(0.846088 0.583851 0.591111)
(1.05896 0.756316 0.737089)
(1.21866 0.883674 0.857212)
(1.34844 0.983651 0.937487)
(1.45225 1.06004 1.00068)
(1.56654 1.13701 1.07189)
(1.65978 1.20797 1.14833)
(1.69615 1.25883 1.21801)
(1.71114 1.30257 1.27867)
(1.7621 1.36054 1.33332)
(1.86118 1.42936 1.37903)
(1.99874 1.50448 1.42902)
(2.16592 1.5882 1.50503)
(2.3634 1.68915 1.62188)
(2.55207 1.78266 1.75044)
(2.71673 1.86302 1.87658)
(2.84342 1.93144 1.99755)
(2.91653 1.98563 2.10492)
(2.95272 2.02779 2.18474)
(2.98476 2.06357 2.22469)
(3.04023 2.10293 2.23353)
(3.12901 2.15724 2.24128)
(3.24145 2.22689 2.27051)
(3.35847 2.30055 2.31437)
(3.47137 2.37092 2.3585)
(3.58078 2.43674 2.39479)
(3.68754 2.49894 2.42188)
(3.74872 2.53756 2.42829)
(3.68301 2.51225 2.3901)
(3.49131 2.42276 2.3065)
(3.25808 2.30729 2.20411)
(3.05157 2.19762 2.10701)
(2.89827 2.10886 2.02819)
(2.80363 2.04675 1.97538)
(2.7564 2.00652 1.94557)
(2.73993 1.97894 1.9296)
(2.74101 1.95836 1.91961)
(2.74191 1.93801 1.90718)
(2.72044 1.90832 1.88036)
(2.66995 1.86558 1.83419)
(2.58755 1.80868 1.76574)
(2.46887 1.73222 1.67254)
(2.31872 1.64129 1.55555)
(2.13724 1.53835 1.41717)
(1.91669 1.41548 1.25887)
(1.66102 1.27257 1.09007)
(1.38496 1.11763 0.924632)
(1.11748 0.968561 0.780814)
(0.910873 0.847081 0.675089)
(0.789248 0.756501 0.606658)
(0.729498 0.679659 0.559318)
(0.701475 0.603321 0.51225)
(0.677731 0.532351 0.463207)
(0.627999 0.463132 0.419966)
(0.55964 0.393625 0.369624)
(0.507147 0.334866 0.32766)
(0.484893 0.339034 0.314544)
(0.478802 0.289834 0.279881)
(0.277356 0.204817 0.202414)
(0.460114 0.276622 0.318126)
(0.927848 0.653751 0.650459)
(1.26159 0.906965 0.860268)
(1.37054 1.00602 0.932495)
(1.49231 1.09372 1.00399)
(1.6382 1.18375 1.08876)
(1.8051 1.28327 1.18964)
(1.89991 1.35136 1.26554)
(1.88608 1.37775 1.30426)
(1.82481 1.39181 1.32823)
(1.81569 1.42755 1.37338)
(1.89823 1.49293 1.44376)
(2.06824 1.58968 1.53371)
(2.30566 1.72075 1.65259)
(2.54761 1.85054 1.79311)
(2.76216 1.95655 1.93594)
(2.962 2.04739 2.07383)
(3.13871 2.12308 2.19551)
(3.26647 2.18638 2.29607)
(3.33789 2.2365 2.37886)
(3.38238 2.28489 2.45359)
(3.42163 2.32913 2.48781)
(3.48478 2.37702 2.48969)
(3.56868 2.42988 2.49371)
(3.66762 2.49118 2.52403)
(3.77638 2.55879 2.5765)
(3.89735 2.63129 2.64009)
(4.02891 2.70392 2.69946)
(4.14992 2.76704 2.73501)
(4.1906 2.79963 2.7304)
(4.0655 2.76757 2.66941)
(3.81711 2.67201 2.55593)
(3.57466 2.56351 2.44184)
(3.39352 2.47284 2.35734)
(3.29786 2.41555 2.31483)
(3.27992 2.39024 2.30934)
(3.31238 2.38638 2.32565)
(3.36477 2.39 2.3474)
(3.4044 2.39023 2.36)
(3.40247 2.37254 2.34912)
(3.35191 2.3316 2.30571)
(3.26674 2.27262 2.23661)
(3.14573 2.19243 2.1422)
(2.98177 2.09168 2.01704)
(2.75825 1.96325 1.85249)
(2.47086 1.80271 1.64642)
(2.1238 1.60954 1.40856)
(1.72571 1.38433 1.15497)
(1.32966 1.15351 0.915922)
(1.03235 0.964975 0.73968)
(0.87194 0.837179 0.642572)
(0.8076 0.74152 0.593082)
(0.773606 0.649599 0.544985)
(0.734932 0.566915 0.499825)
(0.671092 0.493056 0.457329)
(0.597208 0.424339 0.40631)
(0.541935 0.36742 0.360216)
(0.513032 0.375325 0.336227)
(0.489365 0.300022 0.285749)
(0.297735 0.188645 0.250592)
(0.420691 0.298149 0.336356)
(0.624989 0.490235 0.459174)
(0.858848 0.673922 0.600323)
(1.09732 0.861508 0.749717)
(1.44972 1.09077 0.956523)
(1.7258 1.26254 1.12104)
(1.93917 1.40382 1.2677)
(2.01964 1.4812 1.35355)
(1.98655 1.49868 1.37569)
(1.90804 1.48935 1.38533)
(1.90169 1.51512 1.45296)
(2.00625 1.58921 1.56683)
(2.21994 1.71056 1.69753)
(2.48071 1.85518 1.82478)
(2.70688 1.98217 1.94168)
(2.88796 2.0766 2.04459)
(3.0778 2.16102 2.14341)
(3.29598 2.24861 2.24893)
(3.55176 2.34985 2.37183)
(3.79285 2.46051 2.49492)
(3.88475 2.53167 2.57355)
(3.90268 2.59179 2.64678)
(3.99895 2.68695 2.73656)
(4.12123 2.77421 2.80439)
(4.23287 2.84297 2.86333)
(4.33548 2.90227 2.92904)
(4.43561 2.9565 2.99986)
(4.51883 2.99635 3.05695)
(4.55228 3.00931 3.07615)
(4.48828 2.98574 3.02574)
(4.30234 2.92143 2.89015)
(4.03893 2.82094 2.70944)
(3.77365 2.69713 2.54298)
(3.60738 2.60947 2.44918)
(3.56692 2.5799 2.4317)
(3.6191 2.59157 2.46411)
(3.7132 2.62187 2.51837)
(3.80357 2.64978 2.57313)
(3.86213 2.66787 2.6118)
(3.86707 2.66199 2.61569)
(3.80715 2.62237 2.57326)
(3.69121 2.54875 2.48658)
(3.52617 2.43991 2.36048)
(3.30061 2.29787 2.19356)
(3.00345 2.12172 1.98175)
(2.62183 1.9008 1.71257)
(2.15863 1.63092 1.39234)
(1.65163 1.32706 1.06149)
(1.177 1.01748 0.768223)
(0.879037 0.802791 0.590859)
(0.792731 0.719037 0.543639)
(0.841587 0.712581 0.579573)
(0.863288 0.679616 0.594926)
(0.830953 0.611807 0.573411)
(0.779719 0.558108 0.54313)
(0.706466 0.499786 0.494045)
(0.644175 0.442663 0.438635)
(0.607779 0.443145 0.395186)
(0.522913 0.328476 0.306611)
(0.310079 0.203883 0.262199)
(0.432271 0.317181 0.343542)
(0.579937 0.465486 0.414759)
(0.757482 0.608076 0.526107)
(0.943628 0.759358 0.650384)
(1.28387 0.995267 0.862089)
(1.61313 1.21575 1.07688)
(1.9601 1.4406 1.3153)
(2.16651 1.57965 1.46894)
(2.19121 1.6112 1.50341)
(2.08304 1.56952 1.472)
(1.96953 1.5262 1.47953)
(1.93021 1.5188 1.56791)
(1.9981 1.56594 1.70034)
(2.1266 1.6412 1.79741)
(2.24241 1.69166 1.81349)
(2.34765 1.72326 1.7891)
(2.50607 1.78883 1.80497)
(2.72523 1.8984 1.88012)
(3.03304 2.05877 2.02095)
(3.45431 2.28122 2.23556)
(3.89111 2.5332 2.4748)
(4.12927 2.71506 2.66563)
(4.21568 2.81395 2.80576)
(4.2946 2.88396 2.8947)
(4.35943 2.92703 2.94552)
(4.42637 2.96344 2.99689)
(4.5 3.0002 3.05305)
(4.56782 3.03033 3.09946)
(4.60205 3.03981 3.1108)
(4.55584 3.01649 3.05101)
(4.37285 2.94768 2.90309)
(4.07736 2.83073 2.71035)
(3.77949 2.68978 2.53871)
(3.60568 2.60103 2.45063)
(3.56893 2.57826 2.44117)
(3.62543 2.59473 2.47621)
(3.72697 2.63118 2.53321)
(3.82305 2.66665 2.58793)
(3.87599 2.68366 2.61522)
(3.86569 2.67033 2.60161)
(3.79346 2.62246 2.54867)
(3.68254 2.55338 2.46658)
(3.52066 2.45239 2.34295)
(3.28659 2.30689 2.16156)
(2.92227 2.08858 1.89478)
(2.37876 1.76262 1.52299)
(1.79274 1.40183 1.13769)
(1.29097 1.08388 0.824572)
(0.930478 0.843042 0.614233)
(0.761364 0.723482 0.523808)
(0.78448 0.734982 0.555417)
(0.888287 0.771992 0.636098)
(0.926228 0.745417 0.666596)
(0.907428 0.688081 0.653804)
(0.85147 0.624492 0.611406)
(0.766491 0.551114 0.546972)
(0.690003 0.480212 0.476469)
(0.640467 0.466539 0.419573)
(0.534154 0.339595 0.316682)
(0.284301 0.219585 0.220975)
(0.483218 0.302001 0.348996)
(1.02168 0.735994 0.691963)
(1.23454 0.914052 0.822617)
(1.27151 0.975207 0.862603)
(1.42798 1.10117 0.992869)
(1.62876 1.2496 1.16423)
(1.87251 1.40677 1.34966)
(2.10629 1.54051 1.49245)
(2.24741 1.61772 1.55433)
(2.28867 1.65449 1.55458)
(2.1873 1.62335 1.48381)
(1.99526 1.53132 1.39747)
(1.85597 1.43799 1.37318)
(1.82338 1.39198 1.42003)
(1.87865 1.39589 1.49663)
(1.96351 1.41714 1.55221)
(2.06296 1.45883 1.57723)
(2.21654 1.54201 1.60591)
(2.44724 1.67461 1.67592)
(2.78597 1.86806 1.81733)
(3.24503 2.13497 2.04061)
(3.68136 2.42226 2.28581)
(3.91407 2.61684 2.4831)
(4.00363 2.70787 2.62492)
(4.06545 2.75816 2.72342)
(4.11388 2.78635 2.78305)
(4.15968 2.80655 2.81679)
(4.21686 2.82971 2.83163)
(4.29089 2.85954 2.82513)
(4.34934 2.88727 2.79576)
(4.26299 2.86154 2.72251)
(3.9739 2.74176 2.58713)
(3.66271 2.59887 2.45734)
(3.4435 2.48977 2.37242)
(3.32566 2.42409 2.32641)
(3.29647 2.39847 2.31164)
(3.31684 2.39501 2.31451)
(3.35093 2.39472 2.31388)
(3.37432 2.38957 2.29938)
(3.35522 2.3656 2.25674)
(3.28509 2.31638 2.18954)
(3.17606 2.24672 2.10416)
(3.03952 2.16071 1.99731)
(2.8793 2.05763 1.85992)
(2.67508 1.93024 1.6885)
(2.33319 1.72426 1.45265)
(1.8412 1.42426 1.152)
(1.34759 1.11223 0.861862)
(0.97918 0.86816 0.655402)
(0.775799 0.723051 0.553826)
(0.724284 0.66184 0.5393)
(0.733377 0.61666 0.548627)
(0.726933 0.573176 0.547383)
(0.704878 0.539376 0.535135)
(0.66713 0.496096 0.497119)
(0.627711 0.448909 0.451557)
(0.597443 0.403611 0.406804)
(0.570612 0.404319 0.375093)
(0.505686 0.306684 0.305622)
(0.285765 0.239948 0.218914)
(0.334753 0.222653 0.254259)
(0.664283 0.4845 0.524904)
(0.917207 0.700581 0.716926)
(0.996624 0.79507 0.801747)
(1.07153 0.868221 0.879331)
(1.12667 0.911694 0.932722)
(1.1619 0.928483 0.951032)
(1.20134 0.941752 0.949776)
(1.31858 1.01355 0.993007)
(1.49038 1.13394 1.08175)
(1.65874 1.26303 1.18333)
(1.80857 1.39164 1.28568)
(1.94053 1.50727 1.39322)
(2.09537 1.61136 1.52648)
(2.27826 1.71347 1.66853)
(2.41967 1.78836 1.7688)
(2.46585 1.79812 1.78942)
(2.48508 1.77946 1.76873)
(2.53669 1.77147 1.73832)
(2.71422 1.8467 1.76297)
(3.08947 2.05039 1.90836)
(3.58281 2.33795 2.1466)
(3.95301 2.59778 2.38883)
(4.11044 2.75309 2.5918)
(4.16284 2.81023 2.7142)
(4.21266 2.83899 2.7812)
(4.2753 2.86581 2.81262)
(4.32922 2.88724 2.81059)
(4.30986 2.87262 2.76104)
(4.13624 2.7799 2.64567)
(3.84507 2.62869 2.4941)
(3.56534 2.48571 2.36412)
(3.37303 2.38396 2.27513)
(3.27693 2.32655 2.22187)
(3.25072 2.3034 2.19545)
(3.251 2.2947 2.18127)
(3.25315 2.28658 2.16625)
(3.24368 2.27073 2.14084)
(3.19022 2.22912 2.08619)
(3.05957 2.14401 1.98945)
(2.88395 2.03631 1.87156)
(2.68979 1.92045 1.7443)
(2.48842 1.80199 1.60993)
(2.29369 1.68815 1.47315)
(2.07802 1.55763 1.31522)
(1.81231 1.39351 1.13738)
(1.49605 1.1937 0.945456)
(1.18366 0.986433 0.764687)
(0.92862 0.80977 0.626001)
(0.764142 0.685268 0.548726)
(0.690409 0.605109 0.518855)
(0.655717 0.541129 0.499096)
(0.622927 0.488812 0.474769)
(0.594443 0.446864 0.444762)
(0.574873 0.410986 0.413216)
(0.560892 0.37615 0.383682)
(0.560781 0.343627 0.363033)
(0.542993 0.340982 0.351028)
(0.497364 0.283161 0.297933)
(0.315167 0.257182 0.218746)
(0.414875 0.299895 0.305762)
(0.679272 0.495027 0.522279)
(0.951227 0.712225 0.746616)
(1.14307 0.871868 0.923312)
(1.35278 1.02519 1.07252)
(1.60138 1.18081 1.21188)
(1.90339 1.34746 1.35106)
(2.26892 1.55085 1.52622)
(2.68511 1.8043 1.75007)
(2.99496 2.03789 1.97408)
(3.03353 2.14369 2.12349)
(2.9687 2.15653 2.20953)
(3.00605 2.2048 2.29056)
(3.16754 2.31099 2.37748)
(3.41647 2.44095 2.46086)
(3.64379 2.55149 2.51781)
(3.79365 2.63421 2.56491)
(3.90035 2.69751 2.60914)
(4.00059 2.74498 2.62173)
(4.17949 2.8255 2.63154)
(4.49152 2.97067 2.70891)
(4.75875 3.0968 2.83497)
(4.70995 3.08753 2.89465)
(4.48862 2.99493 2.88069)
(4.36762 2.93572 2.8539)
(4.34141 2.91083 2.82224)
(4.3212 2.88184 2.7718)
(4.21309 2.80668 2.68347)
(3.99327 2.67744 2.56329)
(3.73068 2.53283 2.44398)
(3.50846 2.41304 2.34492)
(3.36686 2.33589 2.27158)
(3.30103 2.29624 2.21749)
(3.26687 2.26853 2.16982)
(3.21342 2.22568 2.11618)
(3.13199 2.16714 2.05669)
(3.03565 2.10105 1.9902)
(2.92232 2.02634 1.91146)
(2.77715 1.93288 1.81005)
(2.6055 1.82463 1.6954)
(2.42337 1.71246 1.57296)
(2.2446 1.60639 1.44972)
(2.05713 1.49997 1.32073)
(1.86178 1.39422 1.19437)
(1.67632 1.28715 1.07319)
(1.49517 1.1685 0.953636)
(1.29378 1.03108 0.830809)
(1.08962 0.889185 0.71764)
(0.913137 0.763738 0.631767)
(0.793138 0.666367 0.585647)
(0.743723 0.593997 0.568938)
(0.732208 0.543646 0.557748)
(0.698927 0.5018 0.527886)
(0.64929 0.457525 0.479825)
(0.610113 0.417923 0.433588)
(0.579966 0.380246 0.391915)
(0.572256 0.347467 0.363408)
(0.549733 0.348706 0.350872)
(0.501634 0.286365 0.295652)
(0.275422 0.197272 0.209252)
(0.335526 0.267508 0.257504)
(0.511514 0.411124 0.375171)
(0.753499 0.593059 0.546797)
(1.06599 0.815998 0.757167)
(1.42833 1.06085 0.989696)
(1.83884 1.33015 1.25576)
(2.25218 1.59929 1.52461)
(2.48409 1.75571 1.6922)
(2.53105 1.80353 1.76801)
(2.531 1.83512 1.83529)
(2.60526 1.91004 1.91635)
(2.82948 2.07873 2.05298)
(3.19235 2.33294 2.26807)
(3.6672 2.64013 2.54085)
(4.20478 2.96955 2.84111)
(4.70101 3.26271 3.10513)
(5.03373 3.44961 3.25928)
(5.19701 3.52567 3.29646)
(5.26245 3.51271 3.26453)
(5.2173 3.41054 3.19231)
(5.03904 3.25439 3.11456)
(4.75419 3.08596 3.05794)
(4.50687 2.9654 3.01179)
(4.40281 2.91342 2.95572)
(4.35061 2.87552 2.88833)
(4.24698 2.8012 2.79696)
(4.06199 2.68257 2.67694)
(3.81899 2.53981 2.54443)
(3.5722 2.40363 2.42117)
(3.38191 2.30359 2.32952)
(3.26127 2.24038 2.26811)
(3.19514 2.20127 2.22321)
(3.16103 2.17923 2.19105)
(3.14498 2.1726 2.17543)
(3.153 2.18456 2.17575)
(3.15794 2.1913 2.16761)
(3.1361 2.17601 2.13809)
(3.06857 2.12988 2.08113)
(2.94858 2.05015 1.99384)
(2.78339 1.94311 1.87448)
(2.57969 1.81292 1.72453)
(2.34323 1.66157 1.5557)
(2.07714 1.4919 1.37867)
(1.80031 1.31508 1.21061)
(1.563 1.15704 1.07723)
(1.37277 1.02143 0.970975)
(1.20875 0.903836 0.889996)
(1.07229 0.807167 0.84178)
(0.994798 0.742292 0.838766)
(1.02655 0.725727 0.890044)
(1.12944 0.745007 0.951583)
(1.15378 0.739648 0.939847)
(1.06278 0.690174 0.847798)
(0.931314 0.608209 0.719475)
(0.801799 0.520805 0.594946)
(0.694981 0.442581 0.490506)
(0.628391 0.377585 0.413704)
(0.584046 0.366103 0.372604)
(0.519586 0.301331 0.306365)
(0.153683 0.0917963 0.0960142)
(0.136845 0.108491 0.101326)
(0.200411 0.160722 0.147613)
(0.281929 0.224223 0.206073)
(0.384638 0.300471 0.277425)
(0.513001 0.394839 0.368128)
(0.669529 0.51028 0.481685)
(0.849405 0.644434 0.618056)
(1.0322 0.778969 0.759386)
(1.17867 0.880832 0.867553)
(1.24659 0.924231 0.904303)
(1.38267 1.01558 0.968741)
(1.60048 1.1679 1.0845)
(1.90857 1.3831 1.26426)
(2.31442 1.65777 1.51217)
(2.76567 1.95219 1.79727)
(3.15498 2.19253 2.04339)
(3.41344 2.33211 2.1952)
(3.56544 2.39001 2.28242)
(3.6692 2.41401 2.36176)
(3.70351 2.40764 2.43601)
(3.61008 2.34376 2.45877)
(3.44372 2.25047 2.40196)
(3.28812 2.16203 2.28095)
(3.1464 2.07502 2.14256)
(3.00658 1.98814 2.03103)
(2.83114 1.87845 1.917)
(2.61763 1.74605 1.78723)
(2.39231 1.60733 1.65142)
(2.20269 1.48786 1.53441)
(2.03853 1.37946 1.42694)
(1.88702 1.27583 1.32263)
(1.77272 1.19744 1.24218)
(1.73387 1.17186 1.21492)
(1.75863 1.18971 1.22961)
(1.82037 1.23296 1.26646)
(1.92157 1.30292 1.32767)
(1.99197 1.34906 1.36777)
(2.00752 1.35929 1.37462)
(1.95836 1.32627 1.34107)
(1.84896 1.25513 1.26769)
(1.74053 1.1842 1.19802)
(1.61532 1.10132 1.128)
(1.4824 1.01477 1.06696)
(1.35948 0.92977 1.01913)