/*--------------------------------*- C++ -*----------------------------------*\
| =========                 |                                                 |
| \\      /  F ield         | OpenFOAM: The Open Source CFD Toolbox           |
|  \\    /   O peration     | Version:  2.1.1                                 |
|   \\  /    A nd           | Web:      www.OpenFOAM.org                      |
|    \\/     M anipulation  |                                                 |
\*---------------------------------------------------------------------------*/
FoamFile
{
    version     2.0;
    format      ascii;
    class       volVectorField;
    location    "0.00135";
    object      fluctuation1;
}
// * * * * * * * * * * * * * * * * * * * * * * * * * * * * * * * * * * * * * //

dimensions      [0 1 -1 0 0 0 0];

internalField   nonuniform List<vector> 
36520
(
(-3.83196e-05 1.86586e-05 5.17564e-05)
(-5.08241e-05 1.67263e-05 7.60236e-05)
(4.13945e-06 3.37054e-05 0.00011171)
(5.76674e-06 5.03626e-05 0.0001423)
(8.40121e-06 7.20639e-05 0.000175815)
(9.73344e-06 9.57454e-05 0.000205976)
(1.08105e-05 0.000120441 0.000237625)
(1.18806e-05 0.000146637 0.000272812)
(1.33805e-05 0.000174249 0.000311995)
(1.62449e-05 0.000204391 0.000357498)
(2.12429e-05 0.000240256 0.000414269)
(2.98166e-05 0.000285988 0.000488786)
(4.35497e-05 0.000350055 0.000595989)
(6.33578e-05 0.000440282 0.000749829)
(8.85719e-05 0.000564882 0.000963219)
(0.00011633 0.00072366 0.00123151)
(0.000140993 0.000909101 0.00152736)
(0.000157469 0.0011011 0.00178472)
(0.000136742 0.00127535 0.00192515)
(7.3145e-05 0.00134419 0.00195371)
(1.02127e-05 0.00130974 0.00195179)
(-1.69171e-05 0.00121356 0.00190577)
(-7.8353e-06 0.00112222 0.00178424)
(1.38592e-05 0.00107424 0.00159225)
(3.12924e-05 0.00106418 0.00134787)
(3.98106e-05 0.00106778 0.00108165)
(4.93196e-05 0.00107516 0.000816283)
(7.25773e-05 0.0010925 0.000555081)
(0.000112627 0.00113444 0.000323566)
(0.000166214 0.00122713 0.000134511)
(0.000223443 0.00139108 -1.62131e-05)
(0.000268867 0.00162618 -0.000144267)
(0.00028576 0.00190524 -0.000264135)
(0.000263532 0.00218274 -0.000376291)
(0.000201823 0.00240477 -0.000470282)
(0.000109234 0.00252287 -0.000534628)
(-1.13146e-06 0.00250183 -0.00056318)
(-0.000114556 0.00232141 -0.000556985)
(-0.000219265 0.00198274 -0.000524712)
(-0.000304181 0.00150404 -0.000480981)
(-0.000352492 0.000922137 -0.000456653)
(-0.000341868 0.000279684 -0.000606647)
(-0.000249166 -0.000801894 -0.00508474)
(-0.000361503 -0.00481529 -0.0190437)
(-0.000879305 -0.0126428 -0.0385439)
(-0.00101958 -0.0261185 -0.05524)
(-0.00121813 -0.0935324 -0.0564732)
(-0.00147516 -0.223134 -0.027419)
(-0.000305365 -0.265047 -0.00504965)
(0.00113094 -0.23787 0.000744007)
(0.00148394 -0.165199 0.000208001)
(0.00394539 -0.0765106 -0.000113382)
(0.00694427 -0.00535268 -0.00192239)
(0.00425274 0.000249034 0.00641369)
(0.00166868 0.00470851 0.0159503)
(0.000709224 0.00464538 0.0184596)
(0.000746505 0.00417554 0.0199969)
(0.00288658 0.00421311 0.019694)
(0.0090267 0.00940403 0.0340785)
(0.00603025 0.0319885 0.0757575)
(-2.5522e-05 6.80951e-05 9.8208e-05)
(-2.60049e-05 0.000116399 0.000135806)
(1.18821e-05 0.000151058 0.000157352)
(1.74953e-05 0.000179664 0.000163761)
(1.94244e-05 0.000210383 0.000168309)
(1.96191e-05 0.000238641 0.000166254)
(2.19908e-05 0.000269918 0.000163309)
(2.49595e-05 0.000303295 0.000159052)
(2.89601e-05 0.00034302 0.000156187)
(3.56756e-05 0.0003879 0.00015589)
(4.67849e-05 0.000444821 0.000163569)
(6.56696e-05 0.000517199 0.000178517)
(9.4586e-05 0.000614937 0.0002017)
(0.000130719 0.000739376 0.000226512)
(0.000164686 0.000886245 0.000245739)
(0.000182093 0.00102491 0.000242269)
(0.000171396 0.00112327 0.00019922)
(0.000135807 0.00118099 0.000112501)
(9.2806e-05 0.00126169 -2.90427e-05)
(5.57253e-05 0.0012854 -0.000192202)
(2.69823e-05 0.00128044 -0.000190354)
(-4.84796e-06 0.00129023 -0.000180679)
(-3.50883e-05 0.00130212 -0.000171559)
(-5.76713e-05 0.00128443 -0.000165731)
(-7.16599e-05 0.0012493 -0.000163307)
(-7.80029e-05 0.0012036 -0.000163234)
(-7.97943e-05 0.00114732 -0.00016403)
(-7.26116e-05 0.00109297 -0.000167679)
(-5.25878e-05 0.0010566 -0.000177519)
(-2.56813e-05 0.00104451 -0.00019675)
(-2.14782e-07 0.00103916 -0.000224601)
(1.60833e-05 0.00102251 -0.000258605)
(2.1157e-05 0.000984828 -0.000294259)
(1.77804e-05 0.000927043 -0.000326491)
(9.03394e-06 0.000855394 -0.000350962)
(-3.48531e-06 0.000772954 -0.000364264)
(-1.93473e-05 0.000677444 -0.000364188)
(-3.87625e-05 0.000562822 -0.000348433)
(-6.28571e-05 0.000421537 -0.00032564)
(-9.59628e-05 0.000227383 -0.000427026)
(-0.000178407 -8.56291e-05 -0.00101082)
(-0.00173996 -0.000260591 -0.00251767)
(-0.00712494 -0.00133788 -0.005931)
(-0.0128658 -0.00982832 -0.0228512)
(-0.00866793 -0.031975 -0.0775404)
(-0.00200439 -0.0467279 -0.135316)
(0.000249373 -0.0535178 -0.169948)
(0.000723366 -0.0595716 -0.19493)
(0.000459018 -0.0628187 -0.209192)
(0.00010128 -0.0633206 -0.217777)
(-3.72872e-06 -0.0596013 -0.221307)
(1.47169e-05 -0.0484825 -0.218863)
(0.000482365 -0.0402781 -0.203077)
(0.00497691 -0.0307788 -0.157527)
(0.0241589 -0.0188802 -0.000529251)
(0.0195855 0.0139882 -0.00494731)
(0.00832869 0.0202927 0.0496641)
(0.0167352 0.0215297 0.0497414)
(0.0387529 0.0455744 0.0719616)
(0.0250823 0.150981 0.0659269)
(-1.55293e-05 0.000130294 6.53073e-05)
(-1.3624e-05 0.000144734 5.55003e-05)
(2.80088e-06 0.000169742 4.9185e-05)
(3.84623e-06 0.00018088 3.51076e-05)
(2.09783e-06 0.000193865 2.16645e-05)
(4.92453e-07 0.000205539 7.57415e-06)
(5.04803e-07 0.000223908 -9.58997e-06)
(1.07701e-06 0.00024104 -3.57947e-05)
(2.39224e-06 0.000263696 -6.89725e-05)
(5.71568e-06 0.000291128 -9.3361e-05)
(1.11324e-05 0.000329767 -0.000107359)
(1.84446e-05 0.000372541 -0.000125987)
(2.66802e-05 0.000427519 -0.00015144)
(3.332e-05 0.000499505 -0.000184345)
(3.42049e-05 0.000604343 -0.000229274)
(2.33656e-05 0.000766682 -0.000296383)
(-6.33314e-06 0.00103125 -0.000406258)
(-7.3035e-05 0.00128517 -0.000993373)
(-0.00016643 0.00142782 -0.00221507)
(-9.36914e-05 0.000666934 -0.00412975)
(-1.43322e-07 -0.000560164 -0.00563049)
(-1.10581e-07 -0.000891529 -0.00486274)
(-9.0148e-08 -0.000628625 -0.00375163)
(-8.66536e-08 -0.000585459 -0.00354347)
(-1.02435e-07 -0.000899169 -0.00454168)
(-1.35827e-07 -0.0014406 -0.00639829)
(-1.67085e-07 -0.00191381 -0.00804702)
(-1.98562e-07 -0.00235494 -0.00963439)
(-2.35212e-07 -0.00285381 -0.0114585)
(-2.7305e-07 -0.00336462 -0.0133559)
(-3.09426e-07 -0.00385816 -0.0152419)
(-3.46771e-07 -0.00438166 -0.0172772)
(-3.81985e-07 -0.00488926 -0.0192941)
(-4.11113e-07 -0.00530521 -0.0210128)
(-4.36508e-07 -0.00564635 -0.0224701)
(-4.61642e-07 -0.00596085 -0.023808)
(-4.82831e-07 -0.0062025 -0.0248261)
(-2.89736e-06 -0.0061881 -0.0249006)
(-4.51162e-05 -0.00587712 -0.0239981)
(-0.000261829 -0.00512284 -0.0219263)
(-0.000849679 -0.00385795 -0.0194428)
(-0.00221075 -0.00236493 -0.0179402)
(-0.0113445 -0.00371922 -0.0174365)
(-0.0555437 -0.0272035 -0.0254302)
(-0.109932 -0.0733649 -0.0487454)
(-0.135474 -0.101107 -0.0840111)
(-0.121375 -0.121686 -0.133642)
(-0.0739769 -0.157498 -0.17921)
(-0.0379023 -0.227429 -0.202337)
(-0.0165255 -0.32632 -0.177419)
(-0.00265982 -0.319447 -0.249649)
(0.00337976 -0.190326 -0.365878)
(0.00121578 -0.134464 -0.376213)
(0.000260245 -0.10453 -0.327039)
(0.000134806 -0.0718611 -0.262284)
(0.000409433 -0.0548068 -0.208836)
(0.0866329 0.0520042 0.00135431)
(0.0532657 0.0669649 -0.0169202)
(0.0299605 0.122366 0.014387)
(0.000289515 -0.0341839 -0.311937)
(-2.00211e-05 0.000117019 -4.19937e-06)
(-1.70947e-05 0.000128249 -2.40237e-05)
(-4.75802e-06 0.000153704 -4.62988e-05)
(-3.88703e-06 0.000174202 -5.99387e-05)
(-4.1117e-06 0.000203497 -6.22308e-05)
(-5.51418e-06 0.000231446 -6.38137e-05)
(-9.89054e-06 0.000256716 -0.000105937)
(-1.58904e-05 0.000285435 -0.000188355)
(-1.58609e-05 0.000337576 -0.000290033)
(-6.70099e-06 0.000399489 -0.00044547)
(-3.92481e-08 0.000484516 -0.000719008)
(-5.06463e-08 0.000627628 -0.00113211)
(-6.66049e-08 0.00103261 -0.0014689)
(-8.38202e-08 0.00227473 -0.000780289)
(-1.24071e-07 0.0043553 -0.000491192)
(-3.58258e-07 0.00160869 -0.0191915)
(-0.000448085 -0.0320435 -0.1272)
(-0.000949023 -0.0729956 -0.251566)
(-0.00171017 -0.102286 -0.341637)
(-0.00278376 -0.103557 -0.343012)
(-0.00192872 -0.0838273 -0.272855)
(-0.000460418 -0.0543454 -0.174732)
(-8.2941e-05 -0.0328427 -0.10827)
(-0.000156322 -0.024368 -0.0832284)
(-0.000283111 -0.0219274 -0.0764168)
(-0.000320393 -0.0208233 -0.0736877)
(-0.000300923 -0.0193527 -0.0694066)
(-0.000322802 -0.017791 -0.0645527)
(-0.000334115 -0.0165617 -0.0604337)
(-0.000308814 -0.0161636 -0.0588569)
(-0.000312507 -0.0168872 -0.0611285)
(-0.000328922 -0.0178974 -0.0645885)
(-0.000289977 -0.0187688 -0.0677865)
(-0.000204217 -0.0193773 -0.0702717)
(-0.000116793 -0.0196814 -0.0717989)
(-1.61571e-05 -0.0196696 -0.0725781)
(0.000194177 -0.0197842 -0.0732248)
(0.000507058 -0.0200508 -0.0739918)
(0.00085473 -0.0205375 -0.0749029)
(0.00115119 -0.0209602 -0.075932)
(0.00122761 -0.0210462 -0.0774823)
(0.000914028 -0.0214487 -0.0803113)
(-0.00229624 -0.0222044 -0.0859802)
(-0.0241057 -0.0298383 -0.0933686)
(-0.0731835 -0.0798675 -0.0814425)
(-0.0766886 -0.151677 -0.0224064)
(-0.0608446 -0.197904 0.00576468)
(-0.0458264 -0.249973 0.0130775)
(-0.0345297 -0.318105 0.0123589)
(-0.0741133 -0.414064 -0.0035513)
(-0.203279 -0.494884 -0.0621616)
(-0.187378 -0.560282 -0.140757)
(-0.0483955 -0.581338 -0.220348)
(0.0317579 -0.458051 -0.331312)
(0.0398519 -0.25241 -0.368792)
(0.0156146 -0.122071 -0.304983)
(0.00298323 -0.0790639 -0.242861)
(2.04001e-05 -0.0670787 -0.208292)
(-0.00534101 -0.0660269 -0.21921)
(-0.00161648 -0.0952726 -0.332415)
(-2.39004e-05 0.000159411 -6.03666e-05)
(-2.25839e-05 0.000210704 -6.03545e-05)
(-1.46397e-05 0.000283164 -0.000227382)
(-6.13098e-06 0.000313002 -0.000745533)
(-3.88071e-08 0.000368681 -0.0016508)
(-2.6512e-05 0.000490872 -0.00322375)
(-9.58055e-05 0.000513256 -0.00620721)
(-0.000156556 0.000745514 -0.010052)
(-0.000220089 0.00174293 -0.0139365)
(-0.000369939 0.00264119 -0.0224208)
(-0.000555648 0.00150861 -0.0419412)
(-0.000372356 -0.00859401 -0.0929862)
(0.000628001 -0.0464625 -0.215985)
(0.000504634 -0.107674 -0.389459)
(-0.00163018 -0.171872 -0.566396)
(-0.0059287 -0.23592 -0.743848)
(-0.0079558 -0.298391 -0.918298)
(-0.00707643 -0.35151 -1.06468)
(-0.00518801 -0.387345 -1.16286)
(-0.00863612 -0.360043 -1.08669)
(-0.0244549 -0.270689 -0.856866)
(-0.0274868 -0.195359 -0.574712)
(-0.0149255 -0.136979 -0.382728)
(-0.0087623 -0.105159 -0.304123)
(-0.00511768 -0.0920767 -0.285337)
(-0.00232628 -0.0864897 -0.281866)
(-0.000581666 -0.0806675 -0.272924)
(-0.000765657 -0.0755912 -0.259174)
(-0.00250792 -0.0707662 -0.243535)
(-0.00446902 -0.0673853 -0.232245)
(-0.00536929 -0.0676596 -0.232058)
(-0.00493898 -0.0724702 -0.245374)
(-0.00356489 -0.0782821 -0.261747)
(-0.00165282 -0.0826632 -0.274582)
(0.00131324 -0.0846093 -0.280779)
(0.0036049 -0.0842958 -0.280384)
(0.00480073 -0.0833448 -0.277436)
(0.00618634 -0.0822966 -0.27548)
(0.00690357 -0.0813723 -0.273799)
(0.00660544 -0.0757195 -0.258108)
(0.00511794 -0.0645554 -0.225579)
(0.00286125 -0.0530171 -0.190089)
(0.000946637 -0.0408907 -0.152054)
(-0.00175288 -0.0363859 -0.141838)
(-0.00819226 -0.039708 -0.148609)
(-0.0169592 -0.0549576 -0.159885)
(-0.0331411 -0.0932539 -0.166036)
(-0.0592652 -0.155832 -0.154819)
(-0.108482 -0.20853 -0.154716)
(-0.243761 -0.214308 -0.190747)
(-0.467514 -0.210723 -0.165493)
(-0.581638 -0.240918 -0.216865)
(-0.281494 -0.460222 -0.229172)
(-0.0455294 -0.53255 -0.168932)
(0.0198117 -0.506115 -0.245275)
(0.0426165 -0.336267 -0.375247)
(0.0251578 -0.153235 -0.350964)
(0.00691752 -0.0988846 -0.27966)
(-0.00148396 -0.0795723 -0.232309)
(-0.0156824 -0.10453 -0.317119)
(-2.22427e-05 -7.70223e-05 -0.00118307)
(-0.000118758 -0.00109925 -0.00569681)
(-0.000485973 -0.00290118 -0.0155991)
(-0.000968931 -0.00491768 -0.0333614)
(-0.00143772 -0.00641206 -0.0575503)
(-0.00212244 -0.0110302 -0.0973634)
(-0.00224637 -0.0217211 -0.156488)
(-0.00126163 -0.0431719 -0.236983)
(-0.00158743 -0.0656376 -0.321529)
(-0.0037007 -0.0933875 -0.417977)
(-0.00875602 -0.12644 -0.527645)
(-0.0248772 -0.174199 -0.662626)
(-0.0609154 -0.258057 -0.834254)
(-0.104395 -0.366112 -1.0584)
(-0.165012 -0.534585 -1.31459)
(-0.219881 -0.835405 -1.53453)
(-0.19365 -1.3807 -1.5399)
(-0.0910429 -1.91519 -1.31218)
(0.00932425 -2.12268 -1.19638)
(0.0722874 -2.04854 -1.11698)
(0.0935271 -1.65054 -1.12756)
(-0.0249412 -0.678404 -1.3341)
(-0.126105 -0.42854 -1.05203)
(-0.0892291 -0.398693 -0.871934)
(-0.057997 -0.393957 -0.803145)
(-0.040674 -0.39933 -0.775763)
(-0.0388887 -0.405312 -0.749773)
(-0.0339216 -0.380228 -0.738212)
(-0.0254048 -0.324791 -0.738927)
(-0.0278884 -0.289847 -0.735111)
(-0.0397138 -0.274117 -0.740866)
(-0.0468821 -0.271679 -0.765777)
(-0.0420707 -0.285392 -0.811156)
(-0.0302506 -0.310313 -0.862749)
(-0.0135063 -0.336579 -0.897643)
(0.0128344 -0.369694 -0.900994)
(0.0339733 -0.369038 -0.899789)
(0.0361833 -0.378044 -0.882016)
(0.0313631 -0.387809 -0.855652)
(0.0294193 -0.391475 -0.812522)
(0.0233025 -0.384239 -0.728574)
(0.0101178 -0.329039 -0.65394)
(0.00684721 -0.213683 -0.561335)
(0.00469703 -0.122918 -0.395532)
(-0.00176587 -0.0895118 -0.308738)
(-0.0178096 -0.0825514 -0.28692)
(-0.0450057 -0.0945298 -0.280085)
(-0.0698372 -0.104606 -0.278703)
(-0.0745747 -0.100564 -0.29601)
(-0.0875952 -0.106265 -0.322903)
(-0.192285 -0.104265 -0.361002)
(-0.554272 -0.0393554 -0.224294)
(-0.717431 0.0404988 -0.00749592)
(-0.68112 -0.217596 0.0581805)
(-0.101302 -0.477467 -0.0626173)
(-0.0114612 -0.320648 -0.396492)
(0.0191738 -0.215418 -0.432318)
(0.0405616 -0.150726 -0.387329)
(0.0677943 -0.102883 -0.279305)
(0.0722086 -0.121532 -0.275969)
(-0.00748385 -0.000525906 -0.00418664)
(-0.0162842 7.85336e-06 -0.0202071)
(-0.0290193 0.0172618 -0.0535778)
(-0.0379744 0.0794296 -0.0899967)
(-0.0583536 0.18828 -0.0195324)
(-0.110275 0.278242 -0.0127425)
(-0.229221 0.375313 -0.0227706)
(-0.343584 0.498339 -0.0472152)
(-0.1093 -0.0555881 -0.804572)
(-0.0145262 -0.228774 -0.957091)
(-0.021014 -0.542828 -1.00738)
(-0.047705 -0.679156 -1.12347)
(-0.117607 -0.687171 -1.38136)
(-0.186696 -0.780654 -1.68772)
(-0.2116 -1.12369 -1.93895)
(-0.20895 -2.0509 -1.59953)
(-0.131048 -2.90274 -0.396377)
(-0.0585265 -3.17449 0.23812)
(-0.0116863 -3.25734 0.395164)
(0.029682 -3.23451 0.364233)
(0.0599946 -3.10244 0.30803)
(0.108642 -2.83891 0.0805865)
(-0.0753245 -1.23714 -2.02611)
(-0.145111 -0.414567 -2.04511)
(-0.0576341 -0.448672 -1.87946)
(-0.023201 -0.520207 -1.75659)
(-0.0610461 -0.77073 -1.58126)
(-0.123899 -1.05011 -1.33075)
(-0.16045 -0.975815 -1.31279)
(-0.181481 -0.828257 -1.35842)
(-0.193415 -0.636202 -1.43258)
(-0.180252 -0.458307 -1.4962)
(-0.128717 -0.349269 -1.54833)
(-0.0702939 -0.40489 -1.58432)
(-0.0696679 -1.14104 -1.26496)
(-0.0674987 -1.49434 -0.972445)
(-0.0514599 -1.12182 -1.44993)
(-0.0210726 -0.704149 -1.68797)
(0.0385599 -0.385546 -1.74519)
(0.0974021 -0.329889 -1.7046)
(0.0411733 -0.427168 -1.59061)
(-0.0496321 -0.408166 -1.48115)
(-0.0842147 -0.308825 -1.37837)
(-0.00166093 -0.212351 -1.18902)
(0.0733474 -0.186048 -1.00941)
(0.050013 -0.276557 -0.87031)
(-0.0209902 -0.259549 -0.78078)
(-0.176997 -0.200964 -0.667959)
(-0.417398 -0.221302 -0.41373)
(-0.490336 -0.123829 -0.271043)
(-0.47281 0.0762943 -0.282125)
(-0.2717 0.376672 0.0432751)
(-0.158696 0.298789 0.362507)
(-0.424914 0.242546 0.297586)
(-0.63599 0.0891015 0.0787018)
(-0.438143 -0.272467 -0.195984)
(0.000534522 -0.235456 -0.363261)
(0.100714 -0.18687 -0.340273)
(0.265515 -0.148901 -0.266088)
(0.398116 -0.114535 -0.156833)
(-0.0202888 0.00255812 0.00232094)
(-0.052425 0.0320236 0.0182012)
(-0.0662119 0.158551 0.0407537)
(0.0329417 0.35924 0.0563259)
(0.00191109 -0.641089 0.16121)
(0.000429374 -0.836111 0.205862)
(0.000516534 -1.04672 0.2593)
(6.86367e-06 -1.27414 0.316769)
(-0.00428365 -1.47562 0.366661)
(-0.00535999 -1.67996 0.40659)
(-0.00163826 -1.85625 0.405421)
(-0.00775621 -2.02221 0.304994)
(-0.107361 -1.75854 -1.26332)
(-0.119975 -0.383844 -2.31347)
(-0.066169 -0.365533 -2.5728)
(-0.0329328 -0.489312 -2.77613)
(-0.0203589 -1.06332 -2.8267)
(-0.0111605 -2.70771 -1.63476)
(-0.00437032 -3.27806 0.0810695)
(0.00846979 -3.31076 0.591587)
(0.035137 -3.31301 0.645001)
(0.0835404 -3.32486 0.260448)
(0.0997749 -1.98186 -2.56065)
(-0.0518984 -0.284466 -3.08117)
(-0.0858043 -0.156697 -2.94601)
(-0.049671 -0.108913 -2.78928)
(-0.0188563 -0.077804 -2.62778)
(-0.0317081 -0.126229 -2.48142)
(-0.0715879 -0.282239 -2.36086)
(-0.130025 -0.515729 -2.2372)
(-0.172804 -0.620557 -2.14494)
(-0.188973 -0.599069 -2.10188)
(-0.176434 -0.471894 -2.10491)
(-0.18226 -0.23805 -2.13742)
(-0.41047 -0.229966 -2.13936)
(-1.04271 -0.314369 -2.0571)
(-1.12775 -0.32667 -2.07602)
(-0.217034 -0.232441 -2.24413)
(0.465326 -0.100333 -2.22463)
(0.249957 -0.0584632 -2.19485)
(-0.0149639 -0.0440385 -2.12413)
(-0.0554225 -0.0537485 -2.01092)
(-0.0242414 -0.0926659 -1.88751)
(0.0176225 -0.0706637 -1.7324)
(0.0332244 0.0117063 -1.54129)
(0.0160439 0.0639076 -1.36182)
(-0.00364837 0.162233 -1.20346)
(-0.0142438 0.359385 -1.03904)
(-0.157857 0.762537 -0.649356)
(-0.313471 0.819371 0.186806)
(-0.0775882 0.473606 0.559413)
(0.0868975 0.30421 0.585953)
(0.0620498 0.289327 0.559744)
(-0.143866 0.317356 0.535554)
(-0.741044 0.12612 0.175539)
(-0.680731 0.089839 0.16232)
(-0.314814 -0.29363 -0.269273)
(0.213453 -0.269073 -0.249995)
(0.409308 -0.200463 -0.14564)
(0.464341 -0.0977698 -0.0828389)
(0.000276459 -0.263751 -0.0977764)
(0.000443511 -0.362568 -0.155403)
(0.00069951 -0.61058 -0.255533)
(0.000928418 -0.826895 -0.33991)
(0.0011044 -0.98797 -0.406086)
(0.00131479 -1.17723 -0.481936)
(0.00143379 -1.28354 -0.531524)
(0.00151736 -1.36119 -0.572602)
(0.00140527 -1.42037 -0.611828)
(-0.000541957 -1.48479 -0.650611)
(-0.0186158 -1.55969 -0.711079)
(-0.0606995 -1.64025 -0.76821)
(-0.122999 -1.74479 -0.797957)
(-0.124182 -1.875 -0.805175)
(-0.0776063 -2.00565 -0.827814)
(-0.0323847 -2.12097 -0.874936)
(-0.0060372 -2.20136 -0.943596)
(0.0261779 -2.26686 -1.01162)
(0.0620005 -2.31872 -1.07821)
(0.0637776 -2.38322 -1.10979)
(0.0254584 -2.45404 -1.12145)
(0.0125044 -2.50163 -1.13485)
(0.0118281 -2.53169 -1.13269)
(0.0122651 -2.55569 -1.1249)
(0.0104095 -2.57173 -1.11503)
(0.00720223 -2.58043 -1.102)
(0.00519813 -2.5819 -1.08337)
(0.00423921 -2.5615 -1.05268)
(0.00284555 -2.49538 -1.00613)
(-0.00165352 -2.39132 -0.963087)
(-0.0172982 -2.28237 -0.954041)
(-0.0233078 -2.19231 -0.955581)
(-0.0196987 -2.11574 -0.963513)
(-0.0229828 -2.05414 -0.966434)
(-0.0278352 -2.01606 -0.953838)
(-0.0257788 -2.00265 -0.922782)
(-0.0181721 -2.0031 -0.878123)
(-0.010747 -1.9992 -0.848859)
(-0.00677555 -1.98559 -0.831018)
(-0.00489998 -1.96692 -0.810327)
(-0.00403831 -1.9392 -0.786593)
(-0.0036258 -1.89415 -0.75777)
(-0.00268458 -1.83016 -0.720458)
(-0.00106345 -1.74811 -0.675264)
(0.00114982 -1.64169 -0.618718)
(0.0044212 -1.51553 -0.554532)
(0.00854434 -1.381 -0.490075)
(0.0117326 -1.25504 -0.432843)
(0.010507 -1.15222 -0.391132)
(0.00484878 -1.06577 -0.363141)
(0.00122885 -0.989655 -0.339351)
(0.000879455 -0.931069 -0.32549)
(0.000857636 -0.86719 -0.310739)
(-0.00997367 -0.76577 -0.268989)
(-0.83466 -0.321742 -0.125429)
(-0.825524 0.00448051 0.101018)
(-0.566433 -0.282716 0.106567)
(0.197263 -0.378034 -0.0844572)
(0.337722 -0.26073 -0.122196)
(0.438692 -0.113655 -0.0703475)
(0.000218935 -0.245351 -0.0514304)
(0.000340568 -0.305812 -0.0762544)
(0.000571006 -0.56829 -0.135558)
(0.00071463 -0.736059 -0.169447)
(0.000512993 -0.85989 -0.19754)
(-0.000676269 -0.957059 -0.216508)
(-0.00201743 -1.03128 -0.231503)
(-0.000329632 -1.10603 -0.248491)
(0.00146883 -1.17489 -0.266899)
(0.00181253 -1.22417 -0.283817)
(9.5202e-05 -1.26663 -0.298265)
(-0.0139299 -1.32391 -0.307115)
(-0.0592507 -1.39192 -0.310447)
(-0.107878 -1.46421 -0.319184)
(-0.103717 -1.53901 -0.364621)
(-0.0587699 -1.6282 -0.429858)
(-0.0206347 -1.71128 -0.490167)
(0.00754904 -1.78637 -0.532729)
(0.0350377 -1.85365 -0.560674)
(0.0505629 -1.91846 -0.541609)
(0.0262944 -1.96932 -0.520477)
(0.00652588 -2.00466 -0.527746)
(0.00278704 -2.04208 -0.533393)
(0.0023288 -2.09391 -0.539115)
(0.00303695 -2.16063 -0.549755)
(0.00497209 -2.23139 -0.563216)
(0.00886165 -2.29917 -0.575818)
(0.0132101 -2.36277 -0.585531)
(0.0127916 -2.42308 -0.592131)
(0.00683306 -2.4606 -0.593484)
(0.000732402 -2.43597 -0.584476)
(-0.00771187 -2.34862 -0.566201)
(-0.0226414 -2.23244 -0.556638)
(-0.023967 -2.12652 -0.531353)
(-0.0256422 -2.04369 -0.499969)
(-0.0254935 -1.98593 -0.477638)
(-0.0175399 -1.9474 -0.468643)
(-0.00765607 -1.91968 -0.468645)
(-0.00183469 -1.89848 -0.471057)
(0.000355664 -1.87807 -0.470685)
(0.000886591 -1.8492 -0.464424)
(0.00106508 -1.8079 -0.452586)
(0.00119459 -1.75287 -0.435248)
(0.00125016 -1.67876 -0.412314)
(0.00205293 -1.59038 -0.384399)
(0.00361753 -1.49018 -0.351842)
(0.00527319 -1.37063 -0.314374)
(0.00540532 -1.23176 -0.273795)
(0.00300763 -1.08141 -0.233496)
(0.000282365 -0.936551 -0.199078)
(-0.000449635 -0.818555 -0.17372)
(7.6411e-05 -0.730696 -0.157097)
(0.00246606 -0.656655 -0.144272)
(-0.00133986 -0.583232 -0.131082)
(-0.466173 -0.370103 -0.0966474)
(-0.612943 -0.0812833 -0.0540619)
(-0.335002 -0.31349 -0.0317831)
(0.123845 -0.323736 0.0248176)
(0.262756 -0.284677 -0.0114076)
(0.419354 -0.139279 -0.012444)
(6.66801e-05 -0.201131 -0.0382268)
(0.000110666 -0.271588 -0.0604126)
(0.000223268 -0.64172 -0.124213)
(0.000303687 -0.89008 -0.165216)
(0.000330086 -0.987076 -0.180094)
(0.000359562 -1.07313 -0.193886)
(0.000394833 -1.16142 -0.210473)
(0.000435238 -1.2588 -0.231237)
(0.00042529 -1.3253 -0.247338)
(8.95204e-05 -1.35087 -0.256379)
(-0.00188683 -1.36557 -0.256688)
(-0.263883 -1.39439 0.215948)
(-1.21551 -0.562419 0.96631)
(-0.503963 -1.53822 -0.100706)
(-0.266326 -1.68451 -0.278222)
(-0.109261 -1.80838 -0.372744)
(-0.0325165 -1.89671 -0.474553)
(0.0130604 -1.96608 -0.578581)
(0.0639041 -2.03219 -0.633937)
(0.117958 -2.0917 -0.663203)
(0.0629644 -2.17996 -0.529633)
(0.007198 -2.23903 -0.489099)
(0.000666214 -2.28171 -0.499447)
(9.56386e-05 -2.32781 -0.503996)
(0.000135461 -2.37866 -0.509317)
(0.0010535 -2.43771 -0.520159)
(0.0030177 -2.50243 -0.537758)
(0.00523836 -2.57128 -0.560635)
(0.005696 -2.63978 -0.584466)
(0.00349283 -2.70026 -0.597227)
(-0.000949888 -2.7323 -0.595198)
(-0.0158172 -2.70282 -0.573933)
(-0.061086 -2.6061 -0.562656)
(0.0138314 -2.42074 -0.803391)
(0.0433473 -2.43731 -0.396908)
(0.00861119 -2.40028 -0.259648)
(-9.50813e-05 -2.36026 -0.364582)
(-0.000692913 -2.34175 -0.447631)
(-0.00113187 -2.33644 -0.494192)
(-0.00113527 -2.32801 -0.534991)
(-0.000996051 -2.30938 -0.538421)
(-0.000757907 -2.2697 -0.527756)
(-0.000303667 -2.21503 -0.500317)
(4.20273e-06 -2.13736 -0.477079)
(6.68958e-05 -2.03812 -0.45353)
(0.000796881 -1.91218 -0.419797)
(0.00297718 -1.75518 -0.375573)
(0.00539636 -1.56609 -0.325072)
(0.00406136 -1.34578 -0.270637)
(-0.00251546 -1.12168 -0.213664)
(-0.00742246 -0.935241 -0.182124)
(0.00347524 -0.816409 -0.142215)
(0.0285133 -0.731955 -0.0925975)
(-0.0338116 -0.631511 -0.125461)
(-0.704091 -0.155225 -0.0423968)
(-0.661468 -0.0357632 -0.0696788)
(-0.346975 -0.276581 -0.198057)
(0.180158 -0.316944 -0.137343)
(0.272481 -0.314128 -0.0443878)
(0.364883 -0.199832 0.00577152)
(0.0256731 0.167905 -0.0608928)
(-0.0570846 -0.122017 -0.288826)
(-0.17701 0.0478615 -0.431646)
(-0.035095 -0.486054 -0.413527)
(0.00620218 -0.735444 -0.390058)
(0.00214115 -0.962667 -0.449651)
(2.24516e-05 -1.12539 -0.508114)
(-0.000290092 -1.25534 -0.567401)
(-0.0018435 -1.32243 -0.609681)
(-0.00515156 -1.32709 -0.639148)
(-0.0995763 -1.1566 -0.869292)
(-1.00875 -1.19226 0.454199)
(-0.482979 -1.3492 0.736752)
(-0.74899 -1.45483 0.684872)
(-1.64218 -1.24541 0.608251)
(-2.2084 -1.0422 0.467381)
(-1.41604 -1.75737 -0.425966)
(-0.0581137 -1.83408 -1.13283)
(0.0911233 -1.83216 -1.30233)
(0.143555 -1.86548 -1.43908)
(0.186485 -1.92083 -1.55436)
(0.20647 -2.0254 -1.53796)
(0.0101192 -2.41849 -0.951526)
(-0.0199779 -2.5439 -0.880839)
(-0.0436781 -2.61111 -0.946889)
(-0.0544836 -2.666 -0.993741)
(-0.041214 -2.71034 -1.04706)
(0.00180597 -2.72631 -1.16047)
(0.0851927 -2.71632 -1.28906)
(0.241137 -2.69643 -1.35596)
(0.23893 -2.92647 -0.576864)
(-2.61716 -1.50464 1.7449)
(-2.91947 -0.335868 1.84406)
(-1.06227 -0.134351 -2.4365)
(0.909016 -1.8473 -1.61591)
(0.490076 -2.30332 -1.04311)
(0.164374 -2.50885 -0.607195)
(-0.147045 -2.56841 -0.495783)
(-1.64957 -2.34978 -0.410804)
(-2.88257 -1.76755 -0.163618)
(-0.547516 -1.00123 -2.39498)
(1.48198 -0.253731 -2.35713)
(1.61272 -1.7996 -1.38565)
(0.196733 -2.43551 0.0499365)
(-0.181028 -2.23452 0.49694)
(0.171487 -2.01793 0.601535)
(0.408366 -1.86874 0.163737)
(0.171221 -1.32353 -0.805997)
(-0.010269 -0.877908 -0.795966)
(-0.279642 -0.719521 -0.511564)
(-0.252666 -0.274422 -0.528616)
(0.378042 -0.626265 0.0640479)
(0.319655 -0.636956 0.137882)
(-0.862748 0.0206851 -0.00718209)
(-0.830912 0.00604965 -9.91173e-05)
(-0.777915 0.0361632 -0.0111669)
(-0.58716 -0.220963 -0.166639)
(0.323504 -0.335009 -0.183517)
(0.500901 -0.236159 -0.0757855)
(0.4691 -0.144582 -0.0118339)
(-0.141886 0.163642 0.0517111)
(-0.410836 0.0595807 0.0372604)
(-0.439869 0.194314 -0.199761)
(-0.126325 -0.391228 -0.392309)
(-0.0657206 -0.753639 -0.0637641)
(-0.0270147 -0.966127 0.206082)
(-0.00382287 -1.13886 0.376862)
(-0.00333339 -1.35503 0.446524)
(-0.0110882 -1.57083 0.15476)
(-0.0118206 -1.18864 -1.01489)
(-0.00278501 -0.458551 -1.40777)
(0.000271368 -0.419186 -1.42263)
(-0.0490512 -0.509178 -1.47662)
(-0.851967 -1.41569 -0.0485855)
(-1.07381 -1.15047 0.905211)
(-1.23731 -0.87043 1.19027)
(-1.06692 -1.00519 1.20445)
(-0.512162 -1.58305 0.755226)
(-0.168908 -1.8946 0.0231273)
(0.244549 -1.93483 -0.671125)
(0.736403 -1.74928 -1.35348)
(1.43267 -1.37104 -1.8709)
(1.96986 -1.80639 -1.53074)
(0.0975951 -2.63929 0.970904)
(0.00276632 -2.66735 1.10063)
(-0.0127221 -2.70366 1.1285)
(-0.0538865 -2.73866 1.1443)
(-0.0729458 -2.77285 1.16476)
(-0.014629 -2.8163 1.14408)
(0.217307 -2.86795 1.02051)
(0.904051 -2.83709 0.840494)
(-2.2698 -2.00373 1.50223)
(-3.36348 -0.312861 1.50216)
(-2.83727 0.100104 1.67431)
(0.627491 -2.36688 0.922098)
(0.96643 -2.41646 0.53596)
(0.514702 -2.52964 0.424274)
(0.0916329 -2.59354 0.422141)
(-0.0143694 -2.60027 0.573527)
(-0.566153 -1.93006 1.77643)
(-1.59021 -1.35864 1.9674)
(-0.752754 -1.18923 2.21446)
(2.09668 -2.00974 0.585109)
(1.17745 -2.29629 0.249761)
(0.185402 -2.22352 0.562633)
(-0.307519 -1.99917 0.510769)
(-1.16357 -1.46105 -0.413131)
(-0.428357 -0.571831 -1.0025)
(0.267012 -0.629444 -0.649225)
(0.139518 -0.627826 -0.399422)
(0.152255 -0.474657 -0.381163)
(0.274187 -0.465744 -0.383285)
(0.308965 -0.722274 -0.0374587)
(-0.918549 -0.00480923 -0.0850843)
(-0.906259 -0.00391054 -0.0329644)
(-0.843782 -0.00767833 -0.0816303)
(-0.582155 -0.227969 0.274601)
(0.275941 -0.271871 0.343437)
(0.48306 -0.233608 0.178211)
(0.468013 -0.152072 0.0564593)
(-3.05408e-05 -0.215756 0.0410854)
(-8.57745e-05 -0.296717 0.0649942)
(-0.000965915 -0.723232 0.128292)
(-0.00226696 -0.898925 0.149021)
(-0.00343068 -0.960515 0.149143)
(-0.00566157 -1.08586 0.164945)
(-0.00802748 -1.23235 0.192664)
(-0.0118191 -1.38848 0.216754)
(-0.0179778 -1.52679 0.198296)
(-0.0173916 -1.61708 0.0423251)
(-0.00237928 -1.65124 -0.097385)
(0.0332277 -1.58069 -0.337174)
(0.168766 -1.01579 -1.03904)
(0.4384 -0.434596 -1.26813)
(-0.0871068 0.0506694 1.41737)
(-0.974303 0.548042 1.13673)
(-1.58129 0.391782 0.81398)
(-1.66125 -0.479845 0.77805)
(-0.384479 -1.45228 0.462388)
(0.0101556 -1.65617 0.247915)
(0.351043 -1.85291 0.0302665)
(0.791398 -2.03756 -0.351632)
(0.936128 -2.30001 -0.419795)
(0.105512 -2.58267 0.394302)
(-0.000545553 -2.65919 0.495457)
(-0.00228762 -2.7082 0.51603)
(-0.0012274 -2.73547 0.529392)
(0.000413396 -2.75449 0.540031)
(0.00248835 -2.77666 0.545728)
(0.00483097 -2.80588 0.544703)
(0.00448134 -2.8339 0.535072)
(-0.000836246 -2.81296 0.499532)
(-0.0405839 -2.71592 0.35332)
(-0.306732 -2.55989 0.370491)
(-0.101451 -2.24147 1.03033)
(0.0275292 -2.31529 0.688806)
(0.0052236 -2.35401 0.442993)
(-0.00110348 -2.35192 0.437034)
(-0.00198515 -2.35054 0.442397)
(-0.00259592 -2.34531 0.440515)
(-0.00354892 -2.32125 0.434903)
(-0.00252255 -2.2713 0.429845)
(3.12062e-06 -2.20442 0.406413)
(0.00163683 -2.12137 0.379394)
(0.000919717 -2.01968 0.355551)
(-0.00403207 -1.89441 0.323802)
(-0.00880414 -1.69181 0.280467)
(-0.00244964 -1.39603 0.22824)
(0.00463361 -1.09052 0.169443)
(-0.00377402 -0.854365 0.116341)
(-0.00264542 -0.716899 0.0720585)
(0.0859282 -0.656739 0.0191957)
(0.105053 -0.598894 0.104461)
(-0.236037 -0.53088 0.104859)
(-0.693521 -0.0964206 -0.00131767)
(-0.572096 -0.196869 -0.162712)
(-0.191996 -0.366998 0.220333)
(0.173039 -0.283131 0.264897)
(0.255348 -0.317079 0.161216)
(0.251689 -0.25734 0.0670824)
(-5.17585e-05 -0.23413 0.0478918)
(-0.00352359 -0.217243 0.0556008)
(-0.111733 -0.465755 0.114203)
(-0.75617 -0.273611 -0.293194)
(-0.115996 -0.788457 0.0437503)
(-0.0433924 -0.857922 0.130237)
(-0.0397818 -0.899056 0.151216)
(-0.0635481 -0.916788 0.141195)
(-0.0873441 -0.925684 0.16047)
(-0.0387754 -0.992377 0.199768)
(-0.00261683 -1.10819 0.229222)
(0.0263812 -1.23381 0.252376)
(0.0494081 -1.35916 0.273902)
(0.0577422 -1.47188 0.297256)
(0.0334045 -1.57347 0.328192)
(-0.144764 -1.68962 0.256374)
(-0.915169 -1.6549 -0.0443512)
(-1.39138 -0.239943 1.45791)
(-0.871289 0.0321405 1.65615)
(-0.488551 -1.16151 1.26909)
(-0.00294361 -1.71825 0.646027)
(0.321642 -1.98157 0.448213)
(0.919921 -2.21843 0.39409)
(1.43504 -2.37206 0.443334)
(0.157829 -2.68915 0.546338)
(0.00266732 -2.74644 0.575018)
(0.00325349 -2.77417 0.590904)
(0.00378934 -2.80136 0.593131)
(0.000834671 -2.82594 0.576076)
(-0.0048681 -2.81948 0.528588)
(-0.0299195 -2.73873 0.45327)
(-0.128495 -2.60902 0.292897)
(-0.452341 -2.46511 -0.0451332)
(2.11752 0.38085 1.73293)
(2.23454 0.101449 1.62213)
(1.43835 -1.63966 1.1972)
(-0.0477811 -1.48086 -1.66591)
(-0.0268615 -2.1129 -0.827882)
(-0.0381527 -2.2573 -0.231062)
(-0.112734 -2.20427 0.301703)
(-0.171897 -2.1004 0.383218)