/*--------------------------------*- C++ -*----------------------------------*\
| =========                 |                                                 |
| \\      /  F ield         | OpenFOAM: The Open Source CFD Toolbox           |
|  \\    /   O peration     | Version:  2.1.1                                 |
|   \\  /    A nd           | Web:      www.OpenFOAM.org                      |
|    \\/     M anipulation  |                                                 |
\*---------------------------------------------------------------------------*/
FoamFile
{
    version     2.0;
    format      ascii;
    class       volVectorField;
    location    "0.00135";
    object      gradAlphaUSE;
}
// * * * * * * * * * * * * * * * * * * * * * * * * * * * * * * * * * * * * * //

dimensions      [0 0 0 0 0 0 0];

internalField   nonuniform List<vector> 
36520
(
(-0.000103048 8.73003e-05 0.000192621)
(-9.98875e-05 5.1515e-05 0.000244875)
(5.90336e-06 7.42217e-05 0.000259375)
(7.4416e-06 9.80872e-05 0.00029134)
(9.99632e-06 0.000129925 0.00033067)
(1.09977e-05 0.000163813 0.000365652)
(1.17206e-05 0.000198286 0.000404142)
(1.24974e-05 0.000234749 0.000449152)
(1.37367e-05 0.00027322 0.000501635)
(1.6334e-05 0.000315251 0.000564221)
(2.09519e-05 0.000365911 0.000644502)
(2.88428e-05 0.000430628 0.000750245)
(4.14202e-05 0.000522726 0.000904199)
(5.95364e-05 0.00065443 0.00112653)
(8.30094e-05 0.000841358 0.00144091)
(0.000109937 0.00108867 0.0018472)
(0.000136034 0.00139478 0.00231939)
(0.000156913 0.00174087 0.00277522)
(0.000142126 0.00209958 0.00310313)
(7.94418e-05 0.00231302 0.00328597)
(1.15556e-05 0.00235574 0.00343581)
(-1.98396e-05 0.00227575 0.0035119)
(-9.48662e-06 0.0021868 0.00343147)
(1.73194e-05 0.0021721 0.00318868)
(4.04819e-05 0.00223571 0.00281288)
(5.34169e-05 0.00233267 0.00235467)
(6.88124e-05 0.00244756 0.00185848)
(0.000105435 0.00259505 0.00132391)
(0.000170623 0.00281622 0.000809847)
(0.000262995 0.00318922 0.000353739)
(0.000369874 0.00379111 -4.48332e-05)
(0.00046649 0.00465507 -0.000419737)
(0.000521047 0.00574153 -0.000809724)
(0.000506093 0.00693571 -0.00121715)
(0.000408753 0.0080624 -0.00160691)
(0.000233255 0.00891727 -0.00192972)
(-2.5424e-06 0.00929806 -0.0021443)
(-0.000269792 0.00902985 -0.00223)
(-0.000537724 0.00801511 -0.00219725)
(-0.000768381 0.00624688 -0.00208733)
(-0.000901448 0.00386454 -0.00202343)
(-0.000862936 0.00115108 -0.00268369)
(-0.000601219 -0.00313021 -0.0218112)
(-0.000809979 -0.0172634 -0.0770245)
(-0.00180238 -0.0409496 -0.144594)
(-0.00191578 -0.0767099 -0.191972)
(-0.00213222 -0.253612 -0.183908)
(-0.00247285 -0.574744 -0.0854865)
(-0.000524978 -0.697382 -0.0160149)
(0.00211725 -0.680702 0.00252168)
(0.00319407 -0.542482 0.00078821)
(0.010267 -0.30284 -0.000501735)
(0.022755 -0.0265232 -0.0103202)
(0.0180876 0.00158895 0.0432392)
(0.00937174 0.0391907 0.13777)
(0.00524065 0.0497164 0.202602)
(0.00710497 0.0552042 0.270465)
(0.0336489 0.0623067 0.296059)
(0.104796 0.118515 0.417839)
(0.0540078 0.255505 0.577489)
(-7.81705e-05 0.000372357 0.000535497)
(-6.81204e-05 0.000485724 0.000608509)
(2.80083e-05 0.000552208 0.000605798)
(4.1388e-05 0.000648996 0.000617592)
(4.53668e-05 0.000750608 0.000623416)
(4.59622e-05 0.000851996 0.000612691)
(5.14673e-05 0.000963331 0.00059955)
(5.89165e-05 0.0010927 0.000586857)
(6.8535e-05 0.00124168 0.000578099)
(8.43819e-05 0.00140914 0.000578085)
(0.000109565 0.0016111 0.000603861)
(0.000152558 0.00187205 0.000657285)
(0.000220678 0.00225085 0.000748298)
(0.0003152 0.0028071 0.000867127)
(0.000426226 0.00360686 0.00100225)
(0.000528159 0.00464397 0.00109261)
(0.000577577 0.00584189 0.00102499)
(0.000529416 0.0070021 0.000657602)
(0.000384546 0.00789314 -0.00017908)
(0.00023737 0.008306 -0.00122672)
(0.000118976 0.00867086 -0.00127838)
(-2.19886e-05 0.00911675 -0.00127185)
(-0.000163525 0.00957139 -0.00125987)
(-0.00027734 0.0098304 -0.0012692)
(-0.000356535 0.00994774 -0.00130355)
(-0.000400585 0.00992584 -0.00135361)
(-0.000421273 0.0097465 -0.00140739)
(-0.00039322 0.00954066 -0.00148537)
(-0.000291323 0.0094522 -0.00161857)
(-0.000145203 0.00955638 -0.00184064)
(-1.25184e-06 0.009817 -0.00217464)
(9.7944e-05 0.010101 -0.00262273)
(0.000135993 0.0102647 -0.00315437)
(0.000120896 0.010203 -0.00370686)
(6.45432e-05 0.00986227 -0.00419521)
(-2.58334e-05 0.00920833 -0.00453137)
(-0.000146138 0.0081864 -0.00463817)
(-0.000292554 0.00676148 -0.00446359)
(-0.000464359 0.00492952 -0.00411957)
(-0.000677052 0.00252374 -0.00521889)
(-0.00116744 -0.000874867 -0.0116218)
(-0.0102304 -0.00236932 -0.026433)
(-0.036578 -0.0104981 -0.0552449)
(-0.0567744 -0.0654544 -0.185317)
(-0.0329261 -0.181153 -0.545459)
(-0.00664772 -0.229087 -0.83238)
(0.000737076 -0.232296 -0.926417)
(0.0019447 -0.234342 -0.951825)
(0.00118287 -0.238266 -0.958915)
(0.000257329 -0.240671 -0.961648)
(-9.54567e-06 -0.234998 -0.964602)
(3.91176e-05 -0.206402 -0.970938)
(0.00138013 -0.191778 -0.949886)
(0.0161191 -0.171707 -0.821993)
(0.0935942 -0.129255 -0.00327623)
(0.091569 0.116688 -0.0366571)
(0.0470477 0.201988 0.434235)
(0.109145 0.23105 0.459865)
(0.236509 0.38102 0.510584)
(0.111892 0.733461 0.278185)
(-6.55719e-05 0.00103554 0.000522515)
(-6.2682e-05 0.00106192 0.000436025)
(1.25803e-05 0.00118257 0.000359051)
(1.85435e-05 0.00133295 0.000268797)
(1.04436e-05 0.00147445 0.000170204)
(2.57062e-06 0.00163535 6.18921e-05)
(2.71682e-06 0.00183436 -8.04589e-05)
(6.06013e-06 0.00205944 -0.000312462)
(1.37956e-05 0.00230443 -0.000616279)
(3.34036e-05 0.00257814 -0.000845028)
(6.4491e-05 0.00290233 -0.000964842)
(0.00010553 0.0032473 -0.00111756)
(0.0001529 0.00373127 -0.00133828)
(0.000197402 0.00446027 -0.00165886)
(0.00021373 0.00554763 -0.00211689)
(0.000150078 0.00696391 -0.0027145)
(-3.83916e-05 0.00856549 -0.00341865)
(-0.000384046 0.00918088 -0.00721364)
(-0.000726435 0.00856951 -0.0135297)
(-0.000423393 0.00418342 -0.0264379)
(-8.94178e-07 -0.00486443 -0.0499709)
(-1.10949e-06 -0.0126616 -0.0699169)
(-1.22723e-06 -0.0125567 -0.0749426)
(-1.31369e-06 -0.0133128 -0.0800428)
(-1.62025e-06 -0.0215167 -0.107572)
(-2.1903e-06 -0.0352657 -0.155045)
(-2.71596e-06 -0.0473058 -0.197669)
(-3.23205e-06 -0.0583215 -0.238327)
(-3.80976e-06 -0.0702919 -0.28319)
(-4.36943e-06 -0.0817452 -0.326442)
(-4.89861e-06 -0.0923937 -0.36717)
(-5.48328e-06 -0.104171 -0.41218)
(-6.04001e-06 -0.115372 -0.455173)
(-6.43663e-06 -0.123098 -0.485914)
(-6.66091e-06 -0.127062 -0.503489)
(-6.75843e-06 -0.128352 -0.511483)
(-6.68512e-06 -0.126168 -0.506616)
(-3.7412e-05 -0.117386 -0.478125)
(-0.000535527 -0.102508 -0.428858)
(-0.00280761 -0.0806855 -0.359501)
(-0.00805671 -0.0536244 -0.286982)
(-0.0180952 -0.0282548 -0.232919)
(-0.0783228 -0.0372486 -0.194442)
(-0.318386 -0.224597 -0.239028)
(-0.519693 -0.496474 -0.38158)
(-0.526958 -0.561554 -0.543769)
(-0.387181 -0.554641 -0.710035)
(-0.192511 -0.588176 -0.776845)
(-0.0798272 -0.69464 -0.711148)
(-0.0290207 -0.849935 -0.523927)
(-0.00409387 -0.755974 -0.653962)
(0.0048168 -0.437043 -0.899319)
(0.00175285 -0.326423 -0.945191)
(0.000431925 -0.302344 -0.953167)
(0.000281912 -0.268636 -0.963116)
(0.00108202 -0.261525 -0.962437)
(0.286389 0.30567 0.00762894)
(0.208566 0.440706 -0.104438)
(0.118056 0.694539 0.0734831)
(0.000853188 -0.120018 -0.978026)
(-0.000115663 0.00134676 -4.76486e-05)
(-0.000137124 0.00164651 -0.000327996)
(-4.1005e-05 0.00205196 -0.00064432)
(-3.82398e-05 0.00259114 -0.000922737)
(-4.30324e-05 0.00318161 -0.00100139)
(-6.1275e-05 0.00377065 -0.0010655)
(-0.000111529 0.00414685 -0.00175003)
(-0.000177892 0.00444415 -0.00299928)
(-0.000165574 0.00478756 -0.00421252)
(-6.23473e-05 0.00498918 -0.00569185)
(-3.12297e-07 0.00517865 -0.00783505)
(-3.36103e-07 0.00564042 -0.0102973)
(-3.59533e-07 0.00762247 -0.0108972)
(-3.59719e-07 0.0134455 -0.00461962)
(-4.15583e-07 0.0201671 -0.00228263)
(-9.33762e-07 0.00580047 -0.0698847)
(-0.000922973 -0.0913309 -0.36891)
(-0.00159894 -0.170765 -0.60285)
(-0.00242987 -0.204402 -0.702274)
(-0.00412846 -0.217013 -0.743703)
(-0.00386827 -0.235686 -0.796845)
(-0.0015652 -0.25662 -0.846937)
(-0.00048617 -0.267055 -0.875986)
(-0.00125004 -0.270891 -0.894802)
(-0.00252415 -0.273081 -0.905576)
(-0.00299023 -0.272971 -0.910871)
(-0.0029886 -0.271332 -0.913005)
(-0.00343896 -0.26867 -0.913856)
(-0.00379331 -0.26723 -0.916638)
(-0.00360122 -0.268486 -0.922052)
(-0.00351608 -0.271473 -0.928193)
(-0.00350985 -0.27391 -0.93293)
(-0.00295582 -0.275528 -0.936074)
(-0.00201374 -0.276334 -0.937724)
(-0.00113036 -0.276549 -0.938086)
(-0.000154809 -0.274629 -0.936273)
(0.00183948 -0.273969 -0.932747)
(0.00471472 -0.273195 -0.926448)
(0.00773186 -0.272677 -0.916297)
(0.0100441 -0.268527 -0.901987)
(0.010171 -0.255607 -0.881798)
(0.00701567 -0.240111 -0.855668)
(-0.0158669 -0.221863 -0.83515)
(-0.145602 -0.257666 -0.803184)
(-0.377685 -0.580862 -0.60445)
(-0.331744 -0.912242 -0.140552)
(-0.216271 -0.971588 0.0299823)
(-0.130847 -0.988692 0.0553419)
(-0.0770793 -0.995734 0.0416265)
(-0.124159 -0.992034 -0.00915532)
(-0.263589 -0.95607 -0.127768)
(-0.200381 -0.94867 -0.244634)
(-0.0463122 -0.934631 -0.352579)
(0.0319418 -0.814 -0.579981)
(0.0492402 -0.568414 -0.821264)
(0.0257593 -0.36875 -0.929164)
(0.00633073 -0.302709 -0.953023)
(5.3004e-05 -0.302339 -0.953043)
(-0.015674 -0.301118 -0.95292)
(-0.00373265 -0.29776 -0.954508)
(-0.000179918 0.00243322 -0.00087505)
(-0.000303345 0.00439853 -0.00130486)
(-0.000217073 0.00604671 -0.00498561)
(-9.30574e-05 0.00640121 -0.0155237)
(-5.13481e-07 0.00638298 -0.0289112)
(-0.000285724 0.00682282 -0.0451376)
(-0.000810836 0.00557244 -0.0678841)
(-0.00103118 0.00628875 -0.0857026)
(-0.00113146 0.011512 -0.0935358)
(-0.00149469 0.013858 -0.119741)
(-0.00177198 0.00636234 -0.179386)
(-0.000931802 -0.0291236 -0.316367)
(0.00121618 -0.124787 -0.575564)
(0.000747139 -0.225255 -0.802533)
(-0.0018434 -0.277959 -0.902794)
(-0.00521191 -0.298384 -0.935117)
(-0.00563538 -0.304776 -0.944361)
(-0.00427115 -0.306452 -0.947229)
(-0.00281973 -0.30633 -0.948251)
(-0.00496958 -0.301175 -0.948365)
(-0.0179468 -0.284426 -0.948887)
(-0.0304846 -0.305251 -0.940006)
(-0.025507 -0.329116 -0.935085)
(-0.019411 -0.328185 -0.937607)
(-0.0123597 -0.314218 -0.943595)
(-0.00576077 -0.304035 -0.947545)
(-0.00150069 -0.296778 -0.950259)
(-0.00208755 -0.295163 -0.951165)
(-0.00726482 -0.294556 -0.951628)
(-0.0134806 -0.292975 -0.952297)
(-0.0160338 -0.292175 -0.95287)
(-0.0137783 -0.29361 -0.952942)
(-0.00922101 -0.295542 -0.952809)
(-0.0040443 -0.296731 -0.95273)
(0.00313336 -0.297453 -0.952641)
(0.0086341 -0.298494 -0.952301)
(0.0116824 -0.300606 -0.951424)
(0.01523 -0.300989 -0.950861)
(0.0171298 -0.300941 -0.95031)
(0.0174705 -0.299626 -0.950087)
(0.0156462 -0.296783 -0.950314)
(0.0105188 -0.294822 -0.950437)
(0.00443136 -0.291509 -0.95128)
(-0.00882598 -0.279053 -0.954083)
(-0.0390807 -0.285625 -0.950517)
(-0.0733181 -0.351735 -0.927312)
(-0.125226 -0.511136 -0.845961)
(-0.189148 -0.710133 -0.67511)
(-0.283904 -0.773119 -0.565502)
(-0.511342 -0.638295 -0.57488)
(-0.765376 -0.503617 -0.400543)
(-0.762816 -0.482208 -0.430759)
(-0.322594 -0.852667 -0.410956)
(-0.0479721 -0.95628 -0.288488)
(0.0199645 -0.909116 -0.416064)
(0.04725 -0.682848 -0.72903)
(0.0359418 -0.399055 -0.916221)
(0.0125584 -0.318188 -0.947943)
(-0.00350832 -0.311743 -0.950155)
(-0.0318244 -0.323849 -0.945562)
(-0.000189788 -0.00127961 -0.0178688)
(-0.0016601 -0.0207383 -0.107271)
(-0.00528197 -0.0403044 -0.218151)
(-0.00779361 -0.04998 -0.34087)
(-0.00857439 -0.0487093 -0.437518)
(-0.00937178 -0.062678 -0.551781)
(-0.00743036 -0.0930107 -0.669084)
(-0.00317789 -0.141108 -0.778542)
(-0.00311791 -0.167624 -0.834587)
(-0.00578508 -0.191429 -0.876398)
(-0.0110482 -0.212934 -0.905875)
(-0.0252255 -0.241923 -0.92465)
(-0.0490104 -0.292688 -0.930713)
(-0.0658083 -0.333506 -0.930789)
(-0.0814652 -0.388518 -0.91386)
(-0.0866848 -0.491213 -0.864792)
(-0.0631191 -0.677159 -0.732041)
(-0.026033 -0.828183 -0.559206)
(0.00252144 -0.869974 -0.492632)
(0.0204173 -0.871684 -0.489136)
(0.0311355 -0.810416 -0.58401)
(-0.0110108 -0.430515 -0.89997)
(-0.0746897 -0.362695 -0.926262)
(-0.0639183 -0.409626 -0.907723)
(-0.0451695 -0.440772 -0.894357)
(-0.0328065 -0.463542 -0.883401)
(-0.032397 -0.48689 -0.870824)
(-0.029277 -0.474236 -0.878118)
(-0.0227484 -0.420931 -0.905326)
(-0.0255681 -0.385084 -0.921297)
(-0.0362417 -0.362981 -0.930074)
(-0.0411114 -0.346449 -0.93632)
(-0.0342838 -0.339526 -0.939246)
(-0.0227186 -0.342101 -0.938724)
(-0.00955185 -0.351567 -0.935477)
(0.00884394 -0.37798 -0.925201)
(0.0233583 -0.377328 -0.92529)
(0.0252435 -0.392532 -0.918956)
(0.0224081 -0.413169 -0.909942)
(0.0219764 -0.437313 -0.8985)
(0.0191746 -0.473989 -0.879633)
(0.00945446 -0.462197 -0.886056)
(0.00794147 -0.371853 -0.927753)
(0.00813118 -0.318772 -0.947403)
(-0.00405694 -0.310661 -0.950017)
(-0.0448471 -0.31782 -0.946336)
(-0.114781 -0.369521 -0.921212)
(-0.175261 -0.398865 -0.899502)
(-0.177801 -0.358512 -0.916241)
(-0.190139 -0.337966 -0.921693)
(-0.353625 -0.280283 -0.892383)
(-0.866415 -0.0916889 -0.490813)
(-0.996092 0.086966 -0.0152154)
(-0.883178 -0.455343 0.112501)
(-0.126232 -0.985163 -0.116274)
(-0.0142031 -0.670109 -0.742127)
(0.0245463 -0.47649 -0.878837)
(0.0560113 -0.36998 -0.92735)
(0.124521 -0.322925 -0.938197)
(0.138591 -0.392892 -0.909079)
(-0.0479845 -0.00551836 -0.0399999)
(-0.10556 6.61966e-05 -0.164456)
(-0.13088 0.0993812 -0.303415)
(-0.123068 0.330107 -0.367003)
(-0.140607 0.590272 -0.0600448)
(-0.198265 0.660554 -0.0297217)
(-0.312386 0.679621 -0.041069)
(-0.365032 0.702518 -0.0676616)
(-0.0945094 -0.0634441 -0.953791)
(-0.0106093 -0.219923 -0.97254)
(-0.013207 -0.452009 -0.889561)
(-0.0259666 -0.499521 -0.863728)
(-0.0539698 -0.439295 -0.89526)
(-0.0707969 -0.424943 -0.901717)
(-0.0661914 -0.51597 -0.853689)
(-0.0547785 -0.802111 -0.594411)
(-0.0295744 -0.991164 -0.128945)
(-0.0120054 -0.997331 0.0718096)
(-0.00230744 -0.993118 0.117027)
(0.00591479 -0.993804 0.110921)
(0.0126906 -0.994815 0.100783)
(0.0259388 -0.999154 0.0296895)
(-0.021046 -0.502504 -0.863286)
(-0.0460302 -0.191821 -0.979454)
(-0.0199094 -0.226578 -0.973059)
(-0.00853169 -0.279413 -0.959466)
(-0.0236763 -0.435795 -0.899051)
(-0.0504122 -0.621845 -0.780805)
(-0.0683741 -0.603945 -0.793406)
(-0.0804236 -0.531651 -0.842525)
(-0.0877627 -0.417305 -0.904001)
(-0.0821888 -0.301727 -0.949419)
(-0.0576024 -0.225658 -0.972149)
(-0.0301512 -0.251124 -0.967174)
(-0.0282025 -0.670019 -0.741513)
(-0.0258986 -0.834634 -0.549988)
(-0.0189031 -0.602463 -0.797836)
(-0.00763483 -0.374337 -0.927203)
(0.0141557 -0.208009 -0.977959)
(0.0366122 -0.182852 -0.982371)
(0.0163101 -0.250385 -0.967917)
(-0.0211185 -0.258488 -0.965697)
(-0.0392882 -0.21542 -0.975651)
(-0.000927478 -0.175853 -0.984337)
(0.0494873 -0.183317 -0.981724)
(0.0388414 -0.310987 -0.949526)
(-0.018497 -0.331265 -0.943262)
(-0.185298 -0.306506 -0.933565)
(-0.552244 -0.433677 -0.711908)
(-0.777531 -0.298479 -0.553423)
(-0.775711 0.190863 -0.601484)
(-0.432961 0.896911 0.089735)
(-0.244943 0.663301 0.707124)
(-0.645968 0.521908 0.557077)
(-0.968565 0.196016 0.153167)
(-0.667688 -0.62313 -0.40731)
(0.000828743 -0.570587 -0.821237)
(0.160124 -0.490055 -0.856858)
(0.459721 -0.425087 -0.779717)
(0.759944 -0.374186 -0.531478)
(-0.0746297 0.0129495 0.0110222)
(-0.164346 0.128419 0.0703684)
(-0.143676 0.433892 0.112211)
(0.0510521 0.710138 0.111966)
(0.00221613 -0.964174 0.245861)
(0.000374965 -0.970145 0.240814)
(0.00035397 -0.97038 0.241183)
(3.83301e-06 -0.970249 0.241994)
(-0.00207414 -0.970031 0.242917)
(-0.00229448 -0.970632 0.240508)
(-0.000640426 -0.975183 0.221342)
(-0.00282775 -0.987685 0.156287)
(-0.0360499 -0.799416 -0.599573)
(-0.0358944 -0.159583 -0.986501)
(-0.0177429 -0.139984 -0.989985)
(-0.00809665 -0.175127 -0.984508)
(-0.00463436 -0.357929 -0.933734)
(-0.00236586 -0.86233 -0.506337)
(-0.000875974 -0.999713 0.0238998)
(0.00165173 -0.98537 0.170414)
(0.00690548 -0.982301 0.187171)
(0.0169222 -0.996815 0.0778653)
(0.0208158 -0.606912 -0.794451)
(-0.0111224 -0.0899976 -0.995826)
(-0.0190379 -0.0516869 -0.998401)
(-0.0115581 -0.0377546 -0.999106)
(-0.0046578 -0.0285601 -0.999441)
(-0.00836503 -0.0492351 -0.998589)
(-0.0201135 -0.11641 -0.99282)
(-0.0386537 -0.223167 -0.973838)
(-0.0536249 -0.278124 -0.958892)
(-0.0603871 -0.274808 -0.959468)
(-0.0572333 -0.218908 -0.973947)
(-0.0591212 -0.110243 -0.992039)
(-0.131352 -0.105119 -0.985657)
(-0.32627 -0.140793 -0.934659)
(-0.343541 -0.142957 -0.928134)
(-0.0646425 -0.0999267 -0.992845)
(0.137772 -0.0430265 -0.989489)
(0.0747393 -0.0253873 -0.996848)
(-0.00458637 -0.0196243 -0.999771)
(-0.0177418 -0.0250068 -0.999508)
(-0.00818917 -0.0454895 -0.998912)
(0.00648272 -0.0375971 -0.999255)
(0.0138209 0.00697055 -0.999864)
(0.00762436 0.0429137 -0.999034)
(-0.0019795 0.122814 -0.992409)
(-0.00881568 0.306628 -0.951762)
(-0.112616 0.741809 -0.661026)
(-0.263584 0.939663 0.217894)
(-0.0759827 0.645607 0.759848)
(0.0937707 0.463138 0.881292)
(0.0715705 0.461081 0.884452)
(-0.170524 0.504374 0.846473)
(-0.931295 0.214733 0.294242)
(-0.935419 0.172425 0.308643)
(-0.479713 -0.646297 -0.593443)
(0.355623 -0.682196 -0.638859)
(0.729639 -0.543652 -0.414811)
(0.903904 -0.321437 -0.282196)
(0.000730808 -0.920732 -0.390183)
(0.000730865 -0.920818 -0.389984)
(0.000730921 -0.920903 -0.389785)
(0.000730979 -0.920988 -0.389586)
(0.000731039 -0.92107 -0.38939)
(0.000730786 -0.92057 -0.390571)
(0.000730407 -0.919879 -0.392198)
(0.000730439 -0.91994 -0.392057)
(0.000654817 -0.91987 -0.392221)
(-0.000245382 -0.919566 -0.392933)
(-0.00807933 -0.913485 -0.406781)
(-0.0250197 -0.906572 -0.421297)
(-0.0475618 -0.90609 -0.420396)
(-0.0445732 -0.912383 -0.4069)
(-0.0257556 -0.916302 -0.399658)
(-0.00996834 -0.916549 -0.399798)
(-0.00174534 -0.913064 -0.407811)
(0.00718614 -0.910567 -0.413299)
(0.0164547 -0.908308 -0.417978)
(0.0166018 -0.911648 -0.410636)
(0.0065232 -0.916216 -0.400631)
(0.00316089 -0.916756 -0.399434)
(0.00295082 -0.916613 -0.399764)
(0.00301576 -0.916364 -0.400335)
(0.0025284 -0.916214 -0.400679)
(0.00173261 -0.916297 -0.400494)
(0.00124325 -0.916801 -0.399341)
(0.00102042 -0.918046 -0.396471)
(0.000706161 -0.919937 -0.392064)
(-0.000432052 -0.920618 -0.390459)
(-0.00477308 -0.916572 -0.399831)
(-0.00674202 -0.91129 -0.411695)
(-0.00591979 -0.904945 -0.425474)
(-0.00710893 -0.899804 -0.436224)
(-0.00877674 -0.899091 -0.437664)
(-0.00821924 -0.903932 -0.427591)
(-0.00583166 -0.912119 -0.40988)
(-0.00346103 -0.916859 -0.399194)
(-0.00219182 -0.918419 -0.395601)
(-0.00159621 -0.919697 -0.392624)
(-0.00133226 -0.920622 -0.390451)
(-0.00122493 -0.920817 -0.389992)
(-0.000941024 -0.920904 -0.389788)
(-0.000392701 -0.920921 -0.389749)
(0.000457488 -0.920886 -0.389831)
(0.00193844 -0.921036 -0.389471)
(0.00421256 -0.921695 -0.387891)
(0.00657746 -0.923086 -0.384536)
(0.00668237 -0.924377 -0.381421)
(0.00348393 -0.924958 -0.380053)
(0.000978782 -0.925849 -0.377891)
(0.000735352 -0.92487 -0.38028)
(0.000732995 -0.922921 -0.384985)
(-0.00920456 -0.926358 -0.376528)
(-0.868128 -0.454484 -0.199487)
(-0.983005 0.00742114 0.183429)
(-0.793533 -0.563858 0.228845)
(0.324129 -0.920785 -0.217013)
(0.62302 -0.697194 -0.354636)
(0.889332 -0.385593 -0.245779)
(0.000674931 -0.973609 -0.228206)
(0.000674905 -0.973479 -0.228767)
(0.000674877 -0.973348 -0.229328)
(0.000674845 -0.973216 -0.229887)
(0.000420949 -0.973085 -0.230445)
(-0.00050152 -0.972966 -0.230945)
(-0.00138918 -0.97287 -0.231346)
(-0.00021042 -0.972757 -0.231825)
(0.000884956 -0.972614 -0.232424)
(0.00106861 -0.972472 -0.233018)
(5.56366e-05 -0.972414 -0.233261)
(-0.00790531 -0.973077 -0.230338)
(-0.031835 -0.973808 -0.22512)
(-0.053973 -0.973239 -0.223359)
(-0.0478858 -0.969026 -0.242268)
(-0.0248666 -0.963917 -0.265037)
(-0.00808549 -0.959958 -0.280026)
(0.00277872 -0.958855 -0.283883)
(0.0123224 -0.959722 -0.280681)
(0.0173366 -0.966174 -0.257306)
(0.00890514 -0.971167 -0.238233)
(0.0021864 -0.971453 -0.237222)
(0.000916719 -0.971065 -0.238812)
(0.00074426 -0.970639 -0.240539)
(0.000936911 -0.970243 -0.242129)
(0.00148046 -0.969936 -0.243356)
(0.00255278 -0.969735 -0.244146)
(0.00368916 -0.969642 -0.244502)
(0.00346887 -0.969645 -0.244492)
(0.00182277 -0.969672 -0.244404)
(0.00019886 -0.969639 -0.24454)
(-0.00220888 -0.969398 -0.245481)
(-0.0069493 -0.967558 -0.252546)
(-0.00785399 -0.967646 -0.252183)
(-0.00884742 -0.969098 -0.24651)
(-0.00909304 -0.970283 -0.241796)
(-0.00636333 -0.970534 -0.240876)
(-0.00279426 -0.970054 -0.242872)
(-0.000669347 -0.969424 -0.245392)
(0.000129714 -0.969067 -0.246796)
(0.000325899 -0.969019 -0.246987)
(0.000398914 -0.969079 -0.246749)
(0.000461669 -0.969144 -0.246496)
(0.00050637 -0.969138 -0.246519)
(0.000885369 -0.968986 -0.247114)
(0.00169262 -0.968689 -0.248271)
(0.0027512 -0.968312 -0.249727)
(0.00325422 -0.967937 -0.251172)
(0.00217163 -0.967587 -0.252528)
(0.00025268 -0.966951 -0.254962)
(-0.000493631 -0.966324 -0.257328)
(9.6815e-05 -0.965889 -0.258955)
(0.00338049 -0.966154 -0.257943)
(-0.00191005 -0.966702 -0.255895)
(-0.687844 -0.695223 -0.208648)
(-0.976025 -0.175508 -0.128729)
(-0.598603 -0.796418 -0.0859875)
(0.244199 -0.966763 0.075742)
(0.541884 -0.839671 -0.0362671)
(0.87584 -0.480549 -0.0444619)
(0.000240414 -0.982003 -0.188855)
(0.000240518 -0.981802 -0.189901)
(0.00024063 -0.981596 -0.190963)
(0.000240717 -0.981384 -0.192052)
(0.000240843 -0.981171 -0.193131)
(0.000240943 -0.981175 -0.193115)
(0.000241017 -0.981136 -0.193315)
(0.000241116 -0.980927 -0.194376)
(0.000223848 -0.980715 -0.19544)
(4.74637e-05 -0.980489 -0.196571)
(-0.00103399 -0.981147 -0.193257)
(-0.145335 -0.97677 0.157238)
(-0.640337 -0.37672 0.6693)
(-0.243667 -0.96763 -0.0656622)
(-0.11551 -0.978935 -0.168355)
(-0.0428877 -0.977214 -0.207876)
(-0.0117721 -0.969419 -0.245128)
(0.00440931 -0.960283 -0.278992)
(0.02036 -0.95719 -0.288742)
(0.0361117 -0.956695 -0.288843)
(0.0188635 -0.974718 -0.222642)
(0.00212809 -0.979928 -0.19934)
(0.000194707 -0.979641 -0.200757)
(2.74447e-05 -0.979296 -0.202433)
(3.79581e-05 -0.978921 -0.204241)
(0.000287242 -0.978534 -0.206083)
(0.000799097 -0.977976 -0.208717)
(0.00134408 -0.977192 -0.212355)
(0.00141378 -0.976279 -0.216512)
(0.000841663 -0.975867 -0.218364)
(-0.000226671 -0.975951 -0.217989)
(-0.00389059 -0.976605 -0.215004)
(-0.0160032 -0.975333 -0.220137)
(0.0038693 -0.944306 -0.329011)
(0.0127735 -0.985631 -0.168371)
(0.00261115 -0.993681 -0.112167)
(-2.89889e-05 -0.987458 -0.157873)
(-0.000209189 -0.981301 -0.192475)
(-0.000336388 -0.977588 -0.210527)
(-0.000333473 -0.973967 -0.226691)
(-0.000292743 -0.973379 -0.229202)
(-0.000226112 -0.973452 -0.228891)
(-9.29571e-05 -0.974659 -0.223695)
(1.33601e-06 -0.974886 -0.222705)
(2.2435e-05 -0.974393 -0.224849)
(0.000288908 -0.973985 -0.226612)
(0.00120492 -0.973633 -0.228115)
(0.0025409 -0.973002 -0.230782)
(0.00235344 -0.972155 -0.234324)
(-0.00189181 -0.972408 -0.233277)
(-0.00718987 -0.969186 -0.24622)
(0.00398564 -0.97519 -0.221321)
(0.0353062 -0.987101 -0.156129)
(-0.0437065 -0.972154 -0.230209)
(-0.958036 -0.273807 -0.0848233)
(-0.98566 -0.0725339 -0.15236)
(-0.580995 -0.651793 -0.487453)
(0.332434 -0.86262 -0.38128)
(0.531118 -0.83695 -0.132018)
(0.745626 -0.666058 0.0201979)
(0.0862281 0.890057 -0.242996)
(-0.135692 -0.409249 -0.858691)
(-0.283221 0.0976297 -0.940049)
(-0.0408629 -0.721232 -0.688841)
(0.0056521 -0.853671 -0.520273)
(0.00147694 -0.882556 -0.47009)
(1.30094e-05 -0.891369 -0.453252)
(-0.000149596 -0.894236 -0.447584)
(-0.000912784 -0.892805 -0.45043)
(-0.00259322 -0.885503 -0.464603)
(-0.0521877 -0.77658 -0.627497)
(-0.530448 -0.786908 0.312604)
(-0.240737 -0.848972 0.470217)
(-0.337392 -0.850499 0.403451)
(-0.661979 -0.671317 0.333328)
(-0.815846 -0.525788 0.24071)
(-0.490326 -0.846271 -0.208338)
(-0.0188816 -0.848712 -0.528518)
(0.0276468 -0.814795 -0.579089)
(0.0404179 -0.793872 -0.606741)
(0.0491675 -0.780666 -0.623011)
(0.0531489 -0.800028 -0.597603)
(0.00259288 -0.933135 -0.359504)
(-0.00499578 -0.946763 -0.321878)
(-0.0105983 -0.94121 -0.337645)
(-0.0128715 -0.937752 -0.347058)
(-0.00950621 -0.933871 -0.357475)
(0.000407153 -0.922142 -0.386842)
(0.0188528 -0.906541 -0.421682)
(0.0529706 -0.896028 -0.440797)
(0.0532343 -0.98015 -0.190652)
(-0.608312 -0.515035 0.60374)
(-0.722832 -0.119062 0.680606)
(-0.281496 -0.0498126 -0.95813)
(0.251987 -0.707921 -0.659775)
(0.137395 -0.892793 -0.428963)
(0.0454184 -0.968081 -0.246415)
(-0.0396006 -0.979611 -0.196866)
(-0.433691 -0.886784 -0.159652)
(-0.746369 -0.662531 -0.0626459)
(-0.141584 -0.376119 -0.915623)
(0.389262 -0.0967566 -0.916006)
(0.436908 -0.706072 -0.557252)
(0.0557924 -0.998197 0.0211552)
(-0.054847 -0.972432 0.226545)
(0.0570967 -0.951081 0.303537)
(0.155756 -0.983132 0.0956087)
(0.0793194 -0.81152 -0.57888)
(-0.00621747 -0.661542 -0.749856)
(-0.237589 -0.707157 -0.665906)
(-0.287435 -0.341835 -0.894658)
(0.476886 -0.870978 0.117813)
(0.379824 -0.893872 0.237903)
(-0.999375 0.0304365 -0.0120722)
(-0.999951 0.00988817 -0.000172856)
(-0.997687 0.064796 -0.0205603)
(-0.831123 -0.442116 -0.337294)
(0.502199 -0.756804 -0.418383)
(0.82415 -0.532917 -0.191772)
(0.897089 -0.440161 -0.0385957)
(-0.457579 0.802629 0.197221)
(-0.950412 0.187845 0.10846)
(-0.758478 0.417444 -0.481631)
(-0.16677 -0.643387 -0.745684)
(-0.0696467 -0.992468 -0.0980406)
(-0.0210416 -0.970721 0.239049)
(-0.00236984 -0.93675 0.349957)
(-0.00170062 -0.940604 0.339485)
(-0.00511799 -0.994416 0.105355)
(-0.00539455 -0.737737 -0.675058)
(-0.00133699 -0.292159 -0.956363)
(0.000137783 -0.27466 -0.961536)
(-0.0254123 -0.335251 -0.941773)
(-0.426389 -0.904052 -0.0285739)
(-0.504941 -0.700991 0.50362)
(-0.551775 -0.514543 0.656344)
(-0.454462 -0.583307 0.673213)
(-0.204369 -0.884965 0.418414)
(-0.0619794 -0.998002 0.012301)
(0.0806285 -0.939798 -0.332083)
(0.213184 -0.766816 -0.605431)
(0.368189 -0.541227 -0.755982)
(0.477049 -0.665323 -0.574252)
(0.0231505 -0.937929 0.34604)
(0.00064414 -0.924891 0.380222)
(-0.0029183 -0.923689 0.383123)
(-0.012174 -0.92415 0.381828)
(-0.0162102 -0.92422 0.381506)
(-0.00320262 -0.929369 0.369124)
(0.0472196 -0.943464 0.328054)
(0.198438 -0.940527 0.275481)
(-0.519067 -0.679763 0.517459)
(-0.824915 -0.110523 0.554231)
(-0.750702 0.0372162 0.659512)
(0.174028 -0.909978 0.37627)
(0.27079 -0.937248 0.219551)
(0.14197 -0.974911 0.17134)
(0.0245864 -0.985692 0.166643)
(-0.00375863 -0.975107 0.221616)
(-0.146067 -0.719188 0.679267)
(-0.411366 -0.508791 0.756227)
(-0.198435 -0.453479 0.868868)
(0.569358 -0.78709 0.237215)
(0.334441 -0.936348 0.106601)
(0.0564114 -0.963861 0.26029)
(-0.105233 -0.957192 0.269566)
(-0.489152 -0.828907 -0.271264)
(-0.23894 -0.407917 -0.881173)
(0.20683 -0.580732 -0.787347)
(0.149942 -0.744715 -0.650278)
(0.199976 -0.656072 -0.727676)
(0.349514 -0.633681 -0.690085)
(0.347821 -0.935597 -0.0588882)
(-0.991709 -0.00645172 -0.12764)
(-0.998711 -0.00568325 -0.0504194)
(-0.990971 -0.0122953 -0.133512)
(-0.759507 -0.413651 0.502038)
(0.399913 -0.566147 0.720796)
(0.754232 -0.500726 0.424744)
(0.876178 -0.447803 0.178284)
(-0.000107424 -0.982561 0.185928)
(-0.000177507 -0.982503 0.186232)
(-0.00094542 -0.98266 0.185403)
(-0.00183628 -0.983451 0.181155)
(-0.00269811 -0.984934 0.172898)
(-0.00396472 -0.986094 0.16613)
(-0.00492857 -0.986199 0.165485)
(-0.00631188 -0.986999 0.160599)
(-0.00853526 -0.991097 0.132866)
(-0.0077385 -0.999599 0.0272304)
(-0.00103959 -0.998035 -0.0626438)
(0.0151912 -0.973721 -0.227236)
(0.0845835 -0.663342 -0.743519)
(0.236211 -0.302224 -0.923497)
(-0.0477721 0.0364009 0.998122)
(-0.51862 0.392611 0.759525)
(-0.80534 0.276459 0.524401)
(-0.805271 -0.328925 0.493302)
(-0.173459 -0.941811 0.287929)
(0.0041498 -0.98899 0.147927)
(0.126004 -0.99189 0.0166544)
(0.24388 -0.954374 -0.172317)
(0.254289 -0.949531 -0.183653)
(0.026957 -0.986943 0.158795)
(-0.000136265 -0.982025 0.188751)
(-0.000562697 -0.981885 0.189479)
(-0.000298355 -0.981741 0.19022)
(9.93816e-05 -0.98145 0.191718)
(0.000590095 -0.981252 0.192726)
(0.00112587 -0.981236 0.192806)
(0.00103035 -0.981514 0.191387)
(-0.000196164 -0.983023 0.183482)
(-0.0102126 -0.990576 0.136568)
(-0.0837444 -0.985001 0.15077)
(-0.0294618 -0.900271 0.434294)
(0.00827782 -0.955119 0.296081)
(0.0015846 -0.981462 0.191636)
(-0.000332691 -0.98201 0.188824)
(-0.000592416 -0.981552 0.191193)
(-0.000769315 -0.981476 0.191579)
(-0.00105773 -0.981254 0.192713)
(-0.000767878 -0.98054 0.196317)
(9.82545e-07 -0.98117 0.193147)
(0.000538517 -0.981793 0.189952)
(0.000319424 -0.981558 0.191165)
(-0.00150727 -0.981439 0.191769)
(-0.00377343 -0.981177 0.193072)
(-0.00133046 -0.980175 0.198125)
(0.00343846 -0.980477 0.196601)
(-0.00385426 -0.98411 0.177512)
(-0.00340993 -0.991491 0.13011)
(0.118639 -0.992293 0.0355937)
(0.143246 -0.97119 0.190404)
(-0.324702 -0.926206 0.191565)
(-0.983889 -0.178763 -0.00246231)
(-0.857549 -0.396836 -0.327309)
(-0.305867 -0.817532 0.487941)
(0.289633 -0.701494 0.651167)
(0.447499 -0.784228 0.429803)
(0.497718 -0.839106 0.219495)
(-0.000181122 -0.975753 0.21877)
(-0.0105259 -0.975702 0.218678)
(-0.168201 -0.961312 0.21757)
(-0.824427 -0.390548 -0.408961)
(-0.116389 -0.991682 0.0545687)
(-0.0404957 -0.988138 0.14811)
(-0.035309 -0.986138 0.162123)
(-0.0546934 -0.987404 0.148465)
(-0.0727058 -0.982938 0.168955)
(-0.0294069 -0.979114 0.201175)
(-0.00175581 -0.97729 0.211899)
(0.0159043 -0.976862 0.213276)
(0.0273189 -0.976661 0.21304)
(0.0297559 -0.97652 0.213359)
(0.015942 -0.976484 0.215)
(-0.0635413 -0.986078 0.153653)
(-0.378221 -0.925374 -0.0250742)
(-0.564261 -0.133441 0.81474)
(-0.350608 0.0180619 0.936348)
(-0.192594 -0.655676 0.730066)
(-0.00108451 -0.93044 0.366442)
(0.104109 -0.966436 0.234868)
(0.256759 -0.948878 0.183588)
(0.363024 -0.913111 0.185586)
(0.0383972 -0.976775 0.210795)
(0.000640746 -0.9773 0.211855)
(0.000772311 -0.977168 0.212463)
(0.000886332 -0.977511 0.210882)
(0.000192799 -0.978769 0.204966)
(-0.00112953 -0.981502 0.191445)
(-0.00723349 -0.985187 0.171325)
(-0.033418 -0.992515 0.117436)
(-0.126872 -0.991713 -0.0190909)
(0.627781 0.159755 0.761684)
(0.6819 0.0436048 0.730072)
(0.44247 -0.711843 0.545308)
(-0.0146974 -0.645342 -0.763735)