/*--------------------------------*- C++ -*----------------------------------*\
| =========                 |                                                 |
| \\      /  F ield         | OpenFOAM: The Open Source CFD Toolbox           |
|  \\    /   O peration     | Version:  2.1.1                                 |
|   \\  /    A nd           | Web:      www.OpenFOAM.org                      |
|    \\/     M anipulation  |                                                 |
\*---------------------------------------------------------------------------*/
FoamFile
{
    version     2.0;
    format      ascii;
    class       volVectorField;
    location    "0.00135";
    object      grad1Alpha;
}
// * * * * * * * * * * * * * * * * * * * * * * * * * * * * * * * * * * * * * //

dimensions      [0 -1 0 0 0 0 0];

internalField   nonuniform List<vector> 
36520
(
(2.80035e-09 -2.3724e-09 -5.23451e-09)
(2.71455e-09 -1.39998e-09 -6.65474e-09)
(-1.6043e-10 -2.01705e-09 -7.0488e-09)
(-2.02241e-10 -2.66573e-09 -7.91778e-09)
(-2.71684e-10 -3.53115e-09 -8.98707e-09)
(-2.98914e-10 -4.45239e-09 -9.93829e-09)
(-3.18577e-10 -5.38962e-09 -1.0985e-08)
(-3.39711e-10 -6.38108e-09 -1.22091e-08)
(-3.73423e-10 -7.4273e-09 -1.36366e-08)
(-4.44062e-10 -8.57052e-09 -1.53391e-08)
(-5.69658e-10 -9.94873e-09 -1.75233e-08)
(-7.84301e-10 -1.17098e-08 -2.04009e-08)
(-1.12651e-09 -1.42167e-08 -2.45917e-08)
(-1.61964e-09 -1.78033e-08 -3.06464e-08)
(-2.25903e-09 -2.28969e-08 -3.92133e-08)
(-2.99327e-09 -2.96416e-08 -5.02941e-08)
(-3.70592e-09 -3.79973e-08 -6.31863e-08)
(-4.27717e-09 -4.7453e-08 -7.56474e-08)
(-3.87591e-09 -5.72575e-08 -8.46253e-08)
(-2.16704e-09 -6.30954e-08 -8.96359e-08)
(-3.15265e-10 -6.42701e-08 -9.37372e-08)
(5.41281e-10 -6.20891e-08 -9.5815e-08)
(2.58793e-10 -5.96553e-08 -9.36095e-08)
(-4.72368e-10 -5.92417e-08 -8.69681e-08)
(-1.10381e-09 -6.09605e-08 -7.6698e-08)
(-1.4561e-09 -6.35866e-08 -6.41862e-08)
(-1.87531e-09 -6.67022e-08 -5.06481e-08)
(-2.87292e-09 -7.07105e-08 -3.60742e-08)
(-4.64926e-09 -7.67385e-08 -2.20673e-08)
(-7.16834e-09 -8.69269e-08 -9.64168e-09)
(-1.00874e-08 -1.03393e-07 1.22272e-09)
(-1.27338e-08 -1.27069e-07 1.14576e-08)
(-1.42391e-08 -1.56903e-07 2.2128e-08)
(-1.38477e-08 -1.89774e-07 3.33037e-08)
(-1.11975e-08 -2.20863e-07 4.40199e-08)
(-6.39562e-09 -2.44502e-07 5.29109e-08)
(6.97393e-11 -2.5505e-07 5.88191e-08)
(7.39876e-09 -2.47634e-07 6.11555e-08)
(1.4732e-08 -2.19589e-07 6.01978e-08)
(2.10153e-08 -1.70853e-07 5.70888e-08)
(2.46008e-08 -1.05464e-07 5.522e-08)
(2.35165e-08 -3.1369e-08 7.31351e-08)
(1.67025e-08 8.69607e-08 6.05939e-07)
(2.38922e-08 5.09222e-07 2.27201e-06)
(5.76296e-08 1.30933e-06 4.62327e-06)
(6.56146e-08 2.62727e-06 6.57493e-06)
(8.43575e-08 1.00337e-05 7.276e-06)
(1.60372e-07 3.72739e-05 5.54405e-06)
(4.71607e-08 6.26484e-05 1.43868e-06)
(-1.80159e-07 5.79217e-05 -2.14572e-07)
(-1.89677e-07 3.22149e-05 -4.68072e-08)
(-4.0021e-07 1.18048e-05 1.95578e-08)
(-6.41603e-07 7.47852e-07 2.90989e-07)
(-5.15598e-07 -4.52939e-08 -1.23256e-06)
(-2.97292e-07 -1.24322e-06 -4.37036e-06)
(-1.79929e-07 -1.70693e-06 -6.956e-06)
(-2.66669e-07 -2.07197e-06 -1.01513e-05)
(-1.31428e-06 -2.43361e-06 -1.15636e-05)
(-5.14662e-06 -5.82033e-06 -2.05204e-05)
(-4.00682e-06 -1.89558e-05 -4.28437e-05)
(2.12519e-09 -1.01231e-08 -1.45584e-08)
(1.85219e-09 -1.32068e-08 -1.65454e-08)
(-7.61576e-10 -1.50151e-08 -1.64723e-08)
(-1.12547e-09 -1.76482e-08 -1.67943e-08)
(-1.23376e-09 -2.0413e-08 -1.6954e-08)
(-1.25005e-09 -2.3172e-08 -1.66636e-08)
(-1.39989e-09 -2.62023e-08 -1.63075e-08)
(-1.60268e-09 -2.97242e-08 -1.5964e-08)
(-1.86457e-09 -3.37812e-08 -1.57278e-08)
(-2.29605e-09 -3.8343e-08 -1.57298e-08)
(-2.98187e-09 -4.38471e-08 -1.64345e-08)
(-4.15307e-09 -5.09627e-08 -1.78932e-08)
(-6.00987e-09 -6.12987e-08 -2.03789e-08)
(-8.58896e-09 -7.64915e-08 -2.36286e-08)
(-1.16238e-08 -9.83644e-08 -2.73328e-08)
(-1.44186e-08 -1.26779e-07 -2.9828e-08)
(-1.57861e-08 -1.59668e-07 -2.80147e-08)
(-1.44857e-08 -1.9159e-07 -1.79931e-08)
(-1.05309e-08 -2.16155e-07 4.90414e-09)
(-6.50368e-09 -2.27575e-07 3.36108e-08)
(-3.26101e-09 -2.37659e-07 3.50391e-08)
(6.02952e-10 -2.49992e-07 3.48755e-08)
(4.48607e-09 -2.62578e-07 3.45629e-08)
(7.61044e-09 -2.69755e-07 3.48278e-08)
(9.78485e-09 -2.73008e-07 3.57749e-08)
(1.09936e-08 -2.72404e-07 3.71482e-08)
(1.15594e-08 -2.67436e-07 3.86176e-08)
(1.07875e-08 -2.61737e-07 4.07494e-08)
(7.99155e-09 -2.59292e-07 4.44006e-08)
(3.98377e-09 -2.62187e-07 5.04993e-08)
(3.43563e-11 -2.69425e-07 5.96824e-08)
(-2.68908e-09 -2.77326e-07 7.20079e-08)
(-3.73488e-09 -2.81906e-07 8.66307e-08)
(-3.32064e-09 -2.80246e-07 1.01816e-07)
(-1.77256e-09 -2.70848e-07 1.15214e-07)
(7.09138e-10 -2.52773e-07 1.24388e-07)
(4.00812e-09 -2.24527e-07 1.2721e-07)
(8.01328e-09 -1.85202e-07 1.22261e-07)
(1.26978e-08 -1.34797e-07 1.12649e-07)
(1.85026e-08 -6.89693e-08 1.42623e-07)
(3.20939e-08 2.40507e-08 3.19493e-07)
(2.86084e-07 6.6256e-08 7.39177e-07)
(1.06524e-06 3.05729e-07 1.60886e-06)
(1.9392e-06 2.23567e-06 6.32973e-06)
(2.1083e-06 1.15995e-05 3.49265e-05)
(1.32175e-06 4.55487e-05 0.0001655)
(-4.4597e-07 0.000140551 0.000560531)
(-2.67525e-06 0.000322376 0.00130939)
(-2.69475e-06 0.000542807 0.00218455)
(-8.04256e-07 0.000752194 0.00300554)
(3.60922e-08 0.000888527 0.00364716)
(-1.44291e-07 0.000761347 0.00358146)
(-1.21163e-06 0.000168365 0.000833918)
(-2.73521e-06 2.91365e-05 0.000139482)
(-3.0258e-06 4.17868e-06 1.05917e-07)
(-2.93648e-06 -3.74201e-06 1.17554e-06)
(-2.46391e-06 -1.05782e-05 -2.27411e-05)
(-6.25718e-06 -1.32459e-05 -2.63637e-05)
(-2.00529e-05 -3.23055e-05 -4.32909e-05)
(-1.46422e-05 -9.59807e-05 -3.64034e-05)
(1.78358e-09 -2.81672e-08 -1.42126e-08)
(1.70495e-09 -2.88841e-08 -1.18599e-08)
(-3.42215e-10 -3.21687e-08 -9.76703e-09)
(-5.04491e-10 -3.6264e-08 -7.31283e-09)
(-2.8416e-10 -4.01185e-08 -4.63112e-09)
(-6.9955e-11 -4.45032e-08 -1.68429e-09)
(-7.39482e-11 -4.99291e-08 2.18999e-09)
(-1.6499e-10 -5.60691e-08 8.50691e-09)
(-3.75706e-10 -6.27581e-08 1.67836e-08)
(-9.10003e-10 -7.02355e-08 2.30208e-08)
(-1.75752e-09 -7.90946e-08 2.6294e-08)
(-2.87701e-09 -8.85291e-08 3.04674e-08)
(-4.17064e-09 -1.01778e-07 3.65041e-08)
(-5.38883e-09 -1.2176e-07 4.52847e-08)
(-5.84148e-09 -1.51623e-07 5.78569e-08)
(-4.10813e-09 -1.90626e-07 7.4305e-08)
(1.05276e-09 -2.3488e-07 9.37449e-08)
(1.05574e-08 -2.52381e-07 1.98302e-07)
(2.00579e-08 -2.36616e-07 3.73574e-07)
(1.18195e-08 -1.16785e-07 7.38043e-07)
(2.55779e-11 1.39147e-07 1.42941e-06)
(3.24491e-11 3.70312e-07 2.04485e-06)
(3.60842e-11 3.69203e-07 2.20354e-06)
(3.88431e-11 3.93633e-07 2.3667e-06)
(4.94442e-11 6.56615e-07 3.28272e-06)
(7.07588e-11 1.13928e-06 5.0088e-06)
(9.26127e-11 1.6131e-06 6.74042e-06)
(1.16361e-10 2.09971e-06 8.58031e-06)
(1.46151e-10 2.69655e-06 1.08638e-05)
(1.78924e-10 3.34738e-06 1.33674e-05)
(2.14182e-10 4.03973e-06 1.60538e-05)
(2.59148e-10 4.9233e-06 1.94803e-05)
(3.09369e-10 5.90933e-06 2.33139e-05)
(3.50637e-10 6.7058e-06 2.64703e-05)
(3.76449e-10 7.18105e-06 2.84553e-05)
(3.8848e-10 7.37775e-06 2.94005e-05)
(3.80043e-10 7.17256e-06 2.88006e-05)
(2.00214e-09 6.28202e-06 2.55873e-05)
(2.60251e-08 4.98157e-06 2.08412e-05)
(1.20782e-07 3.47105e-06 1.54656e-05)
(3.09194e-07 2.05796e-06 1.10136e-05)
(6.42916e-07 1.00389e-06 8.27556e-06)
(2.70354e-06 1.28574e-06 6.71171e-06)
(1.59335e-05 1.12399e-05 1.19621e-05)
(7.58042e-05 7.24175e-05 5.56586e-05)
(0.000249922 0.00026633 0.000257895)
(0.000543778 0.000778968 0.000997211)
(0.000772177 0.00235922 0.00311599)
(0.000806415 0.00701726 0.00718402)
(0.000694506 0.0203402 0.0125383)
(0.000271112 0.0500635 0.0433079)
(-0.0013364 0.121256 0.249512)
(-0.00162565 0.302736 0.876602)
(-0.000386354 0.270445 0.852603)
(-6.32619e-05 0.0602828 0.216126)
(-1.10393e-05 0.00266821 0.00981925)
(-1.33907e-05 -1.42923e-05 -3.56708e-07)
(-1.13019e-05 -2.38813e-05 5.65936e-06)
(-1.09965e-05 -6.4694e-05 -6.84471e-06)
(-1.58369e-06 0.000222778 0.00181541)
(3.14667e-09 -3.66395e-08 1.29631e-09)
(3.73177e-09 -4.48091e-08 8.92628e-09)
(1.11646e-09 -5.58693e-08 1.75431e-08)
(1.04179e-09 -7.05922e-08 2.51387e-08)
(1.17305e-09 -8.67297e-08 2.72975e-08)
(1.67132e-09 -1.02847e-07 2.90621e-08)
(3.04382e-09 -1.13174e-07 4.77611e-08)
(4.85916e-09 -1.21393e-07 8.1926e-08)
(4.52731e-09 -1.30907e-07 1.15184e-07)
(1.70682e-09 -1.36584e-07 1.5582e-07)
(8.56516e-12 -1.42031e-07 2.14887e-07)
(9.23997e-12 -1.55064e-07 2.8309e-07)
(9.89972e-12 -2.09884e-07 3.00053e-07)
(9.91407e-12 -3.70567e-07 1.27319e-07)
(1.15248e-11 -5.59265e-07 6.3301e-08)
(2.72823e-11 -1.69476e-07 2.04186e-06)
(4.04483e-08 4.00248e-06 1.61671e-05)
(1.16331e-07 1.2424e-05 4.38603e-05)
(2.45798e-07 2.06766e-05 7.10397e-05)
(4.97912e-07 2.61729e-05 8.96942e-05)
(6.21788e-07 3.78843e-05 0.000128085)
(3.69659e-07 6.06067e-05 0.000200023)
(1.56852e-07 8.61591e-05 0.000282617)
(5.21759e-07 0.000113068 0.000373484)
(1.26664e-06 0.000137034 0.000454423)
(1.65457e-06 0.000151041 0.000504006)
(1.70848e-06 0.00015511 0.000521931)
(1.96857e-06 0.000153795 0.00052312)
(2.28029e-06 0.000160641 0.000551021)
(2.46777e-06 0.000183982 0.000631845)
(2.90216e-06 0.000224074 0.000766128)
(3.44439e-06 0.000268801 0.000915531)
(3.31657e-06 0.000309156 0.00105032)
(2.44181e-06 0.000335077 0.00113706)
(1.396e-06 0.000341538 0.00115854)
(1.73221e-07 0.000307291 0.00104762)
(-1.79465e-06 0.000267291 0.000910012)
(-3.75649e-06 0.00021767 0.000738155)
(-4.77856e-06 0.000168524 0.000566303)
(-4.63804e-06 0.000123997 0.000416508)
(-3.37625e-06 8.48486e-05 0.000292712)
(-1.71326e-06 5.86364e-05 0.000208959)
(3.17588e-06 4.44077e-05 0.000167162)
(2.74666e-05 4.86064e-05 0.000151514)
(0.000127406 0.000195944 0.000203901)
(0.000469759 0.00129176 0.000199026)
(0.00140532 0.00631336 -0.000194825)
(0.00308269 0.0232931 -0.00130383)
(0.00498497 0.0643973 -0.00269212)
(0.0182588 0.145889 0.00134638)
(0.113562 0.411903 0.0550464)
(0.395797 1.87384 0.483208)
(0.28515 5.75465 2.17088)
(-0.315426 8.03828 5.72733)
(-0.400835 4.62711 6.68541)
(-0.102476 1.46696 3.6964)
(-0.00464967 0.222328 0.699958)
(-9.61708e-06 0.0548565 0.172921)
(0.000830554 0.015956 0.0504946)
(0.000844102 0.0673354 0.215853)
(4.90085e-09 -6.62793e-08 2.38358e-08)
(8.27957e-09 -1.20055e-07 3.56152e-08)
(5.94419e-09 -1.6558e-07 1.36523e-07)
(2.57143e-09 -1.76883e-07 4.28964e-07)
(1.43763e-11 -1.78709e-07 8.09446e-07)
(8.1341e-09 -1.94234e-07 1.28499e-06)
(2.36397e-08 -1.62463e-07 1.97914e-06)
(3.06499e-08 -1.86921e-07 2.54735e-06)
(3.3939e-08 -3.45312e-07 2.80568e-06)
(4.61752e-08 -4.28113e-07 3.69914e-06)
(5.86751e-08 -2.10675e-07 5.93996e-06)
(3.71041e-08 1.15969e-06 1.25976e-05)
(-8.0382e-08 8.24767e-06 3.80413e-05)
(-1.21949e-07 3.67665e-05 0.000130991)
(9.0431e-07 0.000136357 0.00044288)
(7.68853e-06 0.000440171 0.00137947)
(1.99867e-05 0.00108093 0.00334931)
(2.62382e-05 0.00188257 0.00581893)
(2.19285e-05 0.00238226 0.00737434)
(2.72826e-05 0.00165343 0.00520645)
(5.27759e-05 0.00083641 0.00279039)
(7.39229e-05 0.000740211 0.00227945)
(8.29055e-05 0.00106973 0.00303931)
(8.20714e-05 0.0013876 0.00396429)
(6.23454e-05 0.00158499 0.00475971)
(3.22322e-05 0.00170111 0.00530163)
(9.11238e-06 0.00180207 0.00577008)
(1.3873e-05 0.00196153 0.00632104)
(5.1929e-05 0.00210549 0.00680225)
(0.000102788 0.00223391 0.00726117)
(0.000135576 0.00247052 0.00805712)
(0.000135821 0.0028943 0.00939375)
(0.000105895 0.00339403 0.0109422)
(5.17757e-05 0.0037988 0.012197)
(-4.26614e-05 0.00404988 0.0129704)
(-0.000118662 0.00410231 0.0130878)
(-0.000147737 0.00380151 0.0120319)
(-0.000164075 0.00324259 0.0102438)
(-0.000153574 0.00269802 0.00851982)
(-0.000130642 0.00224055 0.00710459)
(-9.88996e-05 0.00187597 0.00600694)
(-5.91583e-05 0.0016581 0.00534532)
(-2.38534e-05 0.00156915 0.00512061)
(4.06011e-05 0.0012837 0.00438896)
(0.000157848 0.00115365 0.00383916)
(0.000361204 0.00173283 0.00456843)
(0.000916752 0.0037419 0.00619306)
(0.0024682 0.00926657 0.00880955)
(0.00814569 0.0221821 0.0162252)
(0.0447167 0.0558186 0.0502731)
(0.308138 0.202754 0.161257)
(1.23834 0.78281 0.699289)
(2.72648 7.20652 3.47329)
(2.03315 40.5291 12.2267)
(-1.2641 57.5629 26.3441)
(-2.98731 43.172 46.0918)
(-1.6997 18.8715 43.3284)
(-0.310575 7.86894 23.443)
(0.0204632 1.81833 5.54205)
(0.0790121 0.804038 2.3476)
(5.25035e-09 3.53997e-08 4.94328e-07)
(5.06357e-08 6.32553e-07 3.27196e-06)
(1.84431e-07 1.40731e-06 7.61718e-06)
(3.23075e-07 2.07186e-06 1.41304e-05)
(4.16218e-07 2.36444e-06 2.1238e-05)
(5.72704e-07 3.83022e-06 3.3719e-05)
(6.22219e-07 7.78872e-06 5.60291e-05)
(4.13568e-07 1.83636e-05 0.000101319)
(5.69515e-07 3.06181e-05 0.000152445)
(1.52714e-06 5.05334e-05 0.000231351)
(4.32704e-06 8.33962e-05 0.000354788)
(1.56139e-05 0.000149744 0.000572335)
(5.75929e-05 0.000343943 0.0010937)
(0.000196934 0.000998032 0.00278543)
(0.000607259 0.0028961 0.00681211)
(0.00141331 0.00800873 0.0140995)
(0.00215791 0.0231506 0.0250269)
(0.00195442 0.0621757 0.0419822)
(-0.00030312 0.104586 0.0592228)
(-0.00223496 0.0954179 0.0535428)
(-0.00142162 0.0370029 0.0266654)
(0.000130211 0.00509119 0.0106429)
(0.000825052 0.00400647 0.0102318)
(0.000834079 0.00534527 0.011845)
(0.000644403 0.00628819 0.0127592)
(0.000487272 0.00688494 0.0131211)
(0.000495026 0.00743968 0.0133062)
(0.000504391 0.00817023 0.0151284)
(0.000459994 0.0085116 0.0183065)
(0.000612235 0.00922096 0.0220607)
(0.00103927 0.0104089 0.026671)
(0.00140619 0.0118501 0.0320262)
(0.00136644 0.0135324 0.0374352)
(0.000988774 0.0148891 0.0408557)
(0.000435378 0.0160246 0.0426395)
(-0.000454866 0.0194405 0.0475854)
(-0.00138376 0.022353 0.0548145)
(-0.00171139 0.0266118 0.0623008)
(-0.00153221 0.0282514 0.0622195)
(-0.00122793 0.0244348 0.0502036)
(-0.000859067 0.0212359 0.0394097)
(-0.000431913 0.0211148 0.0404782)
(-0.000461063 0.0215889 0.0538632)
(-0.000592095 0.0232123 0.0689879)
(0.000234309 0.0179422 0.0548683)
(0.00170666 0.0120947 0.036013)
(0.00378282 0.0121783 0.0303604)
(0.00875495 0.0199248 0.0449336)
(0.0269287 0.0542982 0.138768)
(0.0953752 0.169526 0.462328)
(0.447839 0.354958 1.13014)
(2.32035 0.245552 1.31445)
(8.02539 -0.700675 0.122589)
(13.4169 6.91739 -1.70906)
(15.6024 121.767 14.3716)
(5.50708 259.826 287.75)
(-12.7036 246.602 454.832)
(-18.6654 123.293 309.033)
(-10.2716 26.6377 77.3909)
(-1.5526 4.40148 10.1842)
(1.39091e-06 1.59958e-07 1.15946e-06)
(3.56449e-06 -2.2353e-09 5.55328e-06)
(5.42928e-06 -4.12261e-06 1.25865e-05)
(6.80607e-06 -1.82559e-05 2.02964e-05)
(9.78889e-06 -4.10941e-05 4.18026e-06)
(1.73934e-05 -5.7949e-05 2.60742e-06)
(3.38273e-05 -7.3594e-05 4.44722e-06)
(4.8279e-05 -9.29148e-05 8.9489e-06)
(6.51034e-05 4.37039e-05 0.000657026)
(0.000101231 0.00209844 0.0092797)
(0.00017091 0.00584939 0.0115117)
(0.00037304 0.0071762 0.0124085)
(0.00112016 0.00911774 0.0185815)
(0.00291688 0.0175079 0.0371513)
(0.00590535 0.046033 0.0761629)
(0.0101566 0.148722 0.110212)
(0.0172687 0.578748 0.075292)
(0.0222859 1.85137 -0.133302)
(0.00791401 3.40617 -0.401376)
(-0.0205958 3.46051 -0.386236)
(-0.027195 2.13181 -0.215971)
(-0.0102552 0.395029 -0.0117381)
(0.000640502 0.0152929 0.0262728)
(0.00142357 0.00593242 0.0302915)
(0.000760793 0.00865818 0.0371833)
(0.000361808 0.0118492 0.0406886)
(0.00104607 0.0192543 0.039722)
(0.00246455 0.0304007 0.0381719)
(0.00343103 0.030306 0.0398132)
(0.00423695 0.028009 0.0443867)
(0.00509355 0.0242194 0.0524662)
(0.00551469 0.0202452 0.063704)
(0.0045533 0.0178376 0.0768455)
(0.00271866 0.0226433 0.0872077)
(0.00350356 0.0832357 0.0921173)
(0.00616823 0.198784 0.13099)
(0.00745084 0.237467 0.314475)
(0.00387266 0.189877 0.470311)
(-0.00605505 0.0889755 0.41832)
(-0.0115353 0.0576104 0.309511)
(-0.00498866 0.0765837 0.296051)
(0.00687764 0.0841817 0.314498)
(0.0137981 0.0756562 0.342651)
(0.000325514 0.0617188 0.34547)
(-0.0164022 0.0607592 0.325386)
(-0.011838 0.0947821 0.289395)
(0.00565013 0.101189 0.288131)
(0.0572038 0.0946221 0.288203)
(0.218 0.171195 0.281028)
(0.537211 0.206225 0.382371)
(0.696689 -0.171419 0.54021)
(0.545115 -1.12925 -0.11298)
(1.34339 -3.63787 -3.87821)
(17.3557 -14.0225 -14.9674)
(155.341 -31.4375 -24.5653)
(216.68 202.22 132.181)
(-1.15554 795.589 1145.08)
(-196.322 600.838 1050.56)
(-151.226 139.833 256.489)
(-33.6251 16.5565 23.5162)
(2.19566e-06 -3.80983e-07 -3.2428e-07)
(5.72533e-06 -4.47372e-06 -2.45143e-06)
(7.37389e-06 -2.22687e-05 -5.75904e-06)
(-4.96644e-06 -6.90835e-05 -1.08922e-05)
(-1.21136e-05 0.00527026 -0.0013439)
(-2.46427e-05 0.0637578 -0.0158263)
(-9.97207e-05 0.273377 -0.0679463)
(-3.7404e-06 0.946808 -0.236148)
(0.00420287 1.96559 -0.492227)
(0.00526159 2.2258 -0.55152)
(0.00133605 2.03442 -0.461762)
(0.00346187 1.20918 -0.191334)
(0.0134359 0.297944 0.223462)
(0.0327271 0.145502 0.899452)
(0.0497329 0.392372 2.7749)
(0.0509906 1.1029 6.20018)
(0.0397222 3.0679 8.00326)
(0.0264543 9.6423 5.6617)
(0.017949 20.4844 -0.489715)
(-0.0367363 21.9157 -3.7902)
(-0.109391 15.5608 -2.96502)
(-0.0813096 4.78958 -0.374134)
(-0.0154445 0.450304 0.589451)
(0.00561107 0.0454024 0.502379)
(0.00641024 0.0174035 0.336171)
(0.00274089 0.00895317 0.236929)
(0.000900933 0.00552422 0.193316)
(0.00139572 0.00821494 0.166616)
(0.00309849 0.017933 0.152944)
(0.00614053 0.0354523 0.154704)
(0.00978371 0.0507429 0.174947)
(0.0128934 0.0586751 0.204859)
(0.0134577 0.0514735 0.229011)
(0.0153535 0.0286297 0.257628)
(0.0402333 0.0321981 0.301907)
(0.128202 0.0553218 0.367256)
(0.170918 0.0711235 0.461762)
(0.0370249 0.0572343 0.568665)
(-0.095538 0.0298368 0.686163)
(-0.0634802 0.0215629 0.846678)
(0.00480968 0.0205798 1.04845)
(0.0223077 0.0314423 1.25673)
(0.0117945 0.0655164 1.43868)
(-0.0102747 0.0595891 1.58376)
(-0.0233596 -0.0117814 1.68994)
(-0.0128135 -0.0721207 1.67897)
(0.00292481 -0.181463 1.46633)
(0.00956149 -0.332569 1.03228)
(0.0756269 -0.498162 0.443912)
(0.17954 -0.640052 -0.148419)
(0.082008 -0.696803 -0.820103)
(-0.149926 -0.740489 -1.40906)
(-0.145101 -0.934791 -1.79313)
(0.743851 -2.20016 -3.69244)
(97.9472 -22.5842 -30.9464)
(661.535 -121.94 -218.274)
(494.019 665.571 611.141)
(-518.84 995.298 932.07)
(-577.946 430.626 328.572)
(-129.38 46.009 40.3922)
(-0.00432574 5.44992 2.30954)
(-0.00559315 7.04682 2.98446)
(-0.00901369 11.3565 4.80681)
(-0.0100633 12.6791 5.36339)
(-0.00731578 9.21749 3.89677)
(-0.00720925 9.08147 3.853)
(-0.0152644 19.2241 8.19636)
(-0.0381587 48.0584 20.4814)
(-0.034712 48.7625 20.7917)
(0.00664943 24.9187 10.6478)
(0.0504255 5.70133 2.53884)
(0.123275 4.4668 2.07578)
(0.414452 7.89566 3.66332)
(1.29822 26.5737 11.8512)
(2.76347 98.3156 42.8818)
(2.83039 260.244 113.518)
(0.619782 324.235 144.816)
(-2.21541 280.718 127.416)
(-3.31396 182.932 84.1803)
(-2.0096 110.352 49.7063)
(-0.633326 88.9539 38.8966)
(-0.286326 83.0437 36.1824)
(-0.253087 78.6164 34.2871)
(-0.246003 74.75 32.6563)
(-0.1969 71.3504 31.203)
(-0.128609 68.0158 29.7282)
(-0.0848582 62.5762 27.257)
(-0.0581887 52.351 22.6085)
(-0.0268605 34.992 14.9131)
(0.007387 15.7403 6.67587)
(0.0296981 5.70291 2.48775)
(0.0316204 4.27399 1.93087)
(0.0286599 4.38117 2.05987)
(0.0374205 4.73646 2.29623)
(0.0570384 5.84303 2.8443)
(0.0781926 8.59942 4.06783)
(0.0899816 14.0739 6.3244)
(0.0935567 24.784 10.7908)
(0.105278 44.1138 19.0016)
(0.124798 71.9056 30.6969)
(0.136965 94.6461 40.141)
(0.132971 99.9585 42.3352)
(0.101917 99.738 42.2158)
(0.0426519 100.023 42.3313)
(-0.0495618 99.7638 42.2321)
(-0.202682 96.3031 40.723)
(-0.402225 88.0057 37.0368)
(-0.543888 76.3296 31.7972)
(-0.472584 65.3728 26.9744)
(-0.215546 57.226 23.5134)
(-0.0539334 51.0166 20.8228)
(-0.0346911 43.6319 17.9402)
(-0.023781 29.9429 12.4903)
(0.143821 14.4743 5.88323)
(24.2156 12.6774 5.56451)
(601.024 -4.5374 -112.151)
(715.854 508.662 -206.443)
(-340.148 966.29 227.738)
(-708.861 793.254 403.498)
(-229.57 99.5359 63.4448)
(-0.00587508 8.47499 1.98647)
(-0.00784869 11.3209 2.66041)
(-0.0136287 19.6561 4.63113)
(-0.0226966 32.7315 7.73162)
(-0.016202 37.4534 8.86966)
(0.0205808 39.9274 9.47724)
(0.076242 53.3937 12.6969)
(0.0216049 99.8777 23.8027)
(-0.11921 131.018 31.3092)
(-0.124377 113.187 27.1212)
(-0.00334016 58.3791 14.0039)
(0.127904 15.7439 3.72675)
(0.335543 10.264 2.37278)
(0.878279 15.8371 3.63462)
(2.41128 48.7951 12.1993)
(4.54635 176.232 48.4565)
(3.17283 376.697 109.885)
(-1.15269 397.758 117.762)
(-4.22271 328.883 96.1855)
(-3.89563 217.104 57.8179)
(-1.52276 166.068 40.7375)
(-0.369922 164.362 40.1362)
(-0.162215 171.831 42.2581)
(-0.143331 186.928 46.3235)
(-0.183865 190.407 47.5169)
(-0.283835 185.957 46.6563)
(-0.461351 175.255 44.1232)
(-0.610571 160.479 40.4661)
(-0.496556 138.801 34.9981)
(-0.19976 106.268 26.7845)
(-0.0135197 65.922 16.6253)
(0.0708936 31.1127 7.87867)
(0.113112 15.7488 4.11064)
(0.119451 14.7169 3.83545)
(0.144192 15.794 4.01752)
(0.184483 19.6855 4.90565)
(0.198715 30.308 7.52212)
(0.162728 56.4924 14.144)
(0.0773515 112.029 28.3581)
(-0.0238404 178.108 45.3594)
(-0.0652618 194.047 49.4594)
(-0.0777706 188.928 48.1053)
(-0.0874105 183.494 46.6706)
(-0.0967267 185.124 47.0901)
(-0.177824 194.618 49.6321)
(-0.359866 205.951 52.7845)
(-0.577785 203.357 52.4456)
(-0.601965 179.049 46.4618)
(-0.298813 133.138 34.7475)
(-0.0287677 110.088 29.0275)
(0.056503 110.609 29.4549)
(-0.0107373 107.123 28.7196)
(-0.280409 80.1415 21.3962)
(0.0698988 35.3766 9.36452)
(29.8094 30.1292 9.04228)
(525.761 94.5418 69.3433)
(585.802 779.388 84.1488)
(-298.496 1181.72 -92.5829)
(-584.895 906.319 39.1458)
(-196.54 107.836 9.97732)
(-0.00434959 17.7665 3.41679)
(-0.00516272 21.0743 4.07622)
(-0.0061674 25.1586 4.89442)
(-0.00530744 21.638 4.23444)
(-0.00401247 16.3464 3.21758)
(-0.00495301 20.1698 3.96983)
(-0.013052 53.1323 10.4688)
(-0.0336581 136.931 27.1335)
(-0.035567 155.825 31.0533)
(-0.00518668 107.145 21.4807)
(0.0305237 28.9638 5.705)
(0.106762 0.717531 -0.115507)
(0.399464 0.235011 -0.417532)
(1.69614 6.73556 0.457067)
(6.27346 53.167 9.14354)
(13.0634 297.655 63.3181)
(9.1479 753.319 190.485)
(-3.63501 791.652 230)
(-12.4773 586.598 176.951)
(-10.9529 290.172 87.608)
(-3.43984 177.744 40.5996)
(-0.356564 164.188 33.3997)
(-0.032819 165.124 33.8389)
(-0.00491362 175.33 36.2431)
(-0.00705764 182.013 37.9749)
(-0.0526727 179.438 37.7902)
(-0.140348 171.766 36.6578)
(-0.220262 160.138 34.7998)
(-0.207262 143.124 31.7409)
(-0.0982711 113.94 25.4958)
(0.0166225 71.5696 15.9858)
(0.114311 28.694 6.31711)
(0.0952421 5.80464 1.31014)
(-0.0088472 2.15917 0.752287)
(-0.035367 2.72899 0.46618)
(-0.0147053 5.59615 0.631697)
(0.000422671 14.3975 2.30185)
(0.00736976 34.5713 6.78093)
(0.0248435 72.1985 15.5482)
(0.0412852 120.581 28.0651)
(0.043709 145.334 34.2217)
(0.0339263 146.059 34.3433)
(0.0137442 144.108 33.0744)
(-0.000196501 143.386 32.7555)
(-0.00330108 143.372 33.0843)
(-0.042313 142.648 33.1892)
(-0.167238 135.136 31.6614)
(-0.291846 111.758 26.5075)
(-0.181522 74.9827 18.0735)
(0.0797402 40.9873 9.83272)
(0.154242 20.7917 5.28208)
(-0.0432355 10.5787 2.40085)
(-0.207971 5.81452 0.91968)
(0.249849 5.55735 1.316)
(43.4026 12.4045 3.84281)
(602.601 44.3449 93.1482)
(565.95 634.914 474.83)
(-417.905 1084.41 479.309)
(-583.951 920.204 145.15)
(-159.51 142.489 -4.3209)
(-3.19397e-05 -0.000329685 9.00078e-05)
(9.41828e-05 0.000284056 0.000596009)
(0.000575495 -0.00019838 0.00191015)
(0.00060723 0.0107177 0.0102363)
(-0.000579096 0.0874644 0.0533055)
(-0.000742407 0.443631 0.236298)
(-2.88723e-05 1.97825 1.00592)
(0.000778923 4.65614 2.3305)
(0.00457048 4.47044 2.25538)
(0.00636492 2.17342 1.14034)
(0.00634043 0.0943489 0.0762364)
(0.0171551 0.0254492 -0.0101098)
(0.0695124 0.24514 -0.135775)
(0.410264 1.0342 -0.490591)
(4.21636 4.27584 -2.12308)
(22.6573 14.6019 -6.68489)
(34.1333 58.912 14.5031)
(8.35773 375.673 233.943)
(-23.309 686.953 488.229)
(-29.0241 570.079 435.7)
(-15.0942 239.661 191.261)
(-2.414 36.3369 27.1429)
(-0.0150689 5.42304 2.0893)
(0.0292933 5.55144 1.88736)
(0.0765849 6.80131 2.43987)
(0.104313 7.59967 2.81261)
(0.0752311 7.39055 2.82902)
(-0.00282563 6.39965 2.68468)
(-0.090039 4.32954 2.01391)
(-0.110243 1.86482 0.917392)
(-0.0235155 0.432968 0.084218)
(0.170965 0.144749 -0.16968)
(0.347371 0.0572177 -0.327079)
(0.0575035 0.0101756 0.195725)
(-0.289642 0.813705 0.758364)
(-0.222955 1.44877 0.696093)
(-0.0704734 1.50212 0.382351)
(0.0572041 1.41507 0.284379)
(0.617667 1.26297 0.227378)
(0.668139 0.593088 0.0560797)
(0.0628434 0.166944 0.406407)
(-0.463591 0.115232 1.09092)
(-0.543998 0.879136 0.69384)
(-0.0717108 1.283 -0.0271911)
(0.0651577 1.15524 -0.269134)
(-0.0623105 1.03793 -0.331254)
(-0.166462 1.05071 -0.102181)
(-0.10076 1.03088 0.735357)
(0.00842591 0.896521 1.0162)
(0.254373 0.757112 0.712947)
(0.132664 0.157772 0.412925)
(-0.267066 0.487765 -0.0659778)
(-0.161593 0.380289 -0.101214)
(0.30453 -0.00927465 0.00367867)
(63.2616 -0.625573 0.0109357)
(739.949 -48.0569 15.2488)
(725.618 385.992 294.477)
(-530.534 799.505 441.989)
(-773.565 500.207 180.001)
(-194.437 95.4013 8.36532)
(0.000224872 -0.000394442 -9.69217e-05)
(0.0010267 -0.000202923 -0.000117166)
(0.00221951 -0.00122155 0.00140938)
(0.00412383 0.0159094 0.018439)
(0.00694333 0.0989427 0.00977402)
(0.0100525 0.463755 -0.114204)
(0.00513579 2.03007 -0.758406)
(0.00871685 4.82125 -1.7401)
(0.025531 4.96062 -0.52556)
(0.02474 3.38334 3.09589)
(0.00730668 1.59665 5.22653)
(-0.000650205 1.29613 4.53752)
(0.0559275 0.737822 2.07266)
(0.348294 0.738471 0.0233405)
(1.93893 2.69174 -1.93386)
(11.2483 10.4893 -13.38)
(44.8777 57.601 -66.4792)
(87.1745 377.487 -178.477)
(45.2954 729.353 -8.98973)
(-56.1219 654.152 231.149)
(-86.3217 310.496 245.149)
(-42.4624 62.4185 87.1857)
(-5.79265 8.07881 6.97296)
(-0.137899 5.58691 -2.06123)
(-0.00477593 6.85754 -2.81912)
(0.024506 7.75656 -3.21723)
(0.100496 7.62883 -3.15198)
(0.115797 6.60216 -2.72529)
(0.0153722 4.46086 -1.77175)
(-0.093578 1.86972 -0.650125)
(-0.0758246 0.359383 -0.105263)
(0.038684 0.05066 -0.0385641)
(0.349858 0.0468743 -0.235057)
(0.389669 -0.0193179 -0.342334)
(-0.126806 0.663054 -0.274169)
(-0.394374 1.36499 -0.31975)
(-0.219287 1.50585 -0.264652)
(-0.0364096 1.45969 -0.246778)
(0.00535898 1.39029 -0.315976)
(0.268543 1.32222 -1.24883)
(0.712001 0.880625 -1.30889)
(0.223114 0.509879 -0.976932)
(-0.619963 0.857048 -0.258299)
(-0.484635 1.35685 -0.154474)
(-0.0789108 1.34829 -0.364106)
(0.129686 1.17962 -0.332207)
(0.449047 0.760947 0.249024)
(0.288233 0.492071 1.06296)
(-0.202292 0.56799 0.770072)
(-0.146036 0.725316 0.633339)
(-0.16474 0.540472 0.59946)
(-0.268299 0.486435 0.529733)
(-0.0898076 0.241572 0.015205)
(0.301609 0.00196217 0.0388192)
(51.2651 0.291728 2.58809)
(726.344 9.01199 97.8595)
(684.234 372.655 -452.282)
(-533.47 755.22 -961.517)
(-720.765 478.508 -405.897)
(-178.469 91.2132 -36.3147)
(0.00119868 10.9638 -2.07465)
(0.00162102 8.97236 -1.7007)
(0.0115769 12.0329 -2.27031)
(0.0230284 12.3333 -2.27183)
(0.0334594 12.2142 -2.14412)
(0.0676763 16.8322 -2.83577)
(0.18893 37.8047 -6.34366)
(0.609777 95.3517 -15.5151)
(1.5009 174.281 -23.364)
(1.49227 192.76 -5.25102)
(0.170532 163.715 10.2759)
(-1.25548 80.4737 18.7801)
(-1.64023 12.8635 14.4182)
(-0.71552 0.915484 2.79742)
(0.0178007 -0.0135636 -0.371917)
(2.35031 -1.77925 -3.44205)
(31.5291 -10.8234 -20.5303)
(152.263 62.1941 -93.2751)
(184.944 1004.17 -306.992)
(-6.46955 1541.84 -230.619)
(-173.717 1367.48 -22.9608)
(-144.17 564.18 101.865)
(-42.4774 158.613 30.6781)
(-3.70062 135.486 -21.7991)
(0.0205949 148.423 -28.5278)
(0.0953825 166.439 -32.1184)
(0.0530648 174.61 -33.8321)
(-0.017723 175.024 -34.1896)
(-0.102395 170.27 -33.4424)
(-0.168899 147.202 -28.9243)
(-0.105912 100.892 -19.6732)
(0.00949816 47.5974 -8.88409)
(0.121697 11.804 -1.6274)
(0.157845 1.85657 -0.284177)
(0.0488455 1.49258 -0.720029)
(-0.0291552 3.36401 -1.04282)
(-0.0162719 10.0784 -1.96786)
(0.00840661 24.8139 -4.77129)
(0.0304878 50.5141 -9.83946)
(0.0653739 83.4027 -16.2798)
(0.113518 105.311 -20.6824)
(0.0858156 109.582 -21.9398)
(-0.000111461 111.305 -21.9109)
(-0.0626379 114.198 -22.0944)
(-0.0376281 115.627 -22.5192)
(0.174988 113.941 -22.2635)
(0.40187 104.495 -20.5622)
(0.110137 81.1399 -16.401)
(-0.174928 49.8808 -10.0019)
(0.0959165 24.4904 -4.41752)
(0.0360228 10.4742 -1.3745)
(-0.493617 4.12861 -0.148094)
(-0.437765 2.96799 -0.581882)
(1.36692 3.89912 -0.806443)
(100.006 18.1702 0.250279)
(546.753 253.014 208.685)
(336.314 898.913 -536.513)
(-444.002 1075.38 -998.228)
(-421.677 738.975 -405.002)
(-89.5349 150.947 -39.4852)
(0.000212899 1.14694 -0.257151)
(0.00756208 0.700967 -0.157103)
(0.0363144 0.207546 -0.0469731)
(0.0823905 0.0390301 0.0408702)
(0.147799 1.25931 -0.0692951)
(0.333766 8.14425 -1.22072)
(1.09903 30.6947 -5.04627)
(4.29434 77.5276 -11.6569)
(13.7214 185.505 -31.886)
(15.0864 502.308 -103.207)
(1.34712 749.813 -162.577)
(-11.561 710.089 -155.032)
(-14.586 521.455 -113.745)
(-7.74961 254.324 -55.5672)
(-1.1752 71.9834 -15.8491)
(0.991465 15.3862 -2.39752)
(5.46587 13.3731 0.362361)
(27.1303 6.41597 -39.1736)
(94.922 -4.89 -253.503)
(113.454 386.249 -430.071)
(1.35458 1162.13 -457.692)
(-112.508 1044.4 -253.816)
(-99.6179 368.148 -71.2287)
(-28.8471 72.5589 -14.7473)
(-2.0099 51.1292 -11.034)
(-0.0355283 54.1897 -11.747)
(-0.0452409 57.2412 -12.4458)
(-0.051467 56.7615 -12.2454)
(-0.0106526 54.0794 -11.3249)
(0.0527273 45.8174 -8.93685)
(0.20743 28.2516 -4.91297)
(0.317121 9.4185 -1.11441)
(0.152835 1.19466 0.0229977)
(-0.164425 -0.0418424 -0.199497)
(-0.350237 -0.0223963 -0.37498)
(-0.173699 0.279447 -0.21407)
(0.0296459 1.30171 1.54053)
(0.030578 3.42197 1.41528)
(0.0792307 6.69623 0.727029)
(0.300534 8.40991 -1.22994)
(0.478918 8.35079 -1.64197)
(0.203125 7.97416 -1.41043)
(-0.23376 7.26777 -1.37873)
(-0.32678 5.90887 -1.3728)
(-0.129459 5.19142 -1.16524)
(0.0455406 5.67443 -0.625336)
(0.0981333 8.53654 -1.40081)
(0.0910595 12.6603 -2.64747)
(0.135548 13.0539 -2.47514)
(0.253843 11.7912 -2.12614)
(-0.0176724 8.97512 -2.26794)
(-0.574776 6.61216 -2.05601)
(-0.391511 5.12452 -1.33481)
(2.82287 0.807496 -1.28048)
(175.826 -46.1648 -1.89366)
(503.794 191.435 184.54)
(142.306 1121.18 30.4779)
(-446.176 1297.76 -349.421)
(-308.91 660.041 -210.354)
(-51.2809 114.328 -30.6553)
(0.000106775 0.403482 -0.154739)
(0.000346237 1.30834 -0.501975)