/*--------------------------------*- C++ -*----------------------------------*\
| =========                 |                                                 |
| \\      /  F ield         | OpenFOAM: The Open Source CFD Toolbox           |
|  \\    /   O peration     | Version:  2.1.1                                 |
|   \\  /    A nd           | Web:      www.OpenFOAM.org                      |
|    \\/     M anipulation  |                                                 |
\*---------------------------------------------------------------------------*/
FoamFile
{
    version     2.0;
    format      ascii;
    class       volScalarField;
    location    "0.00135";
    object      k;
}
// * * * * * * * * * * * * * * * * * * * * * * * * * * * * * * * * * * * * * //

dimensions      [0 2 -2 0 0 0 0];

internalField   nonuniform List<scalar> 
36520
(
0.128079
0.230349
0.441702
0.551358
0.648334
0.721116
0.782699
0.831424
0.871189
0.905464
0.936127
0.967086
0.994196
1.01407
1.01807
1.003
0.966353
0.910355
0.83977
0.769492
0.706451
0.652968
0.60794
0.567141
0.526852
0.487996
0.449788
0.41343
0.378812
0.346038
0.31518
0.286182
0.258651
0.232884
0.209204
0.188053
0.169719
0.154385
0.142247
0.13389
0.130387
0.133542
0.145865
0.169062
0.202192
0.240984
0.278344
0.304732
0.291104
0.247242
0.18911
0.131283
0.0842794
0.0509232
0.0297708
0.0176733
0.0111134
0.00817821
0.0101837
0.0226752
0.0868373
0.126484
0.161136
0.162817
0.167385
0.167144
0.167634
0.164984
0.163934
0.163622
0.165969
0.167693
0.165502
0.154803
0.134891
0.10837
0.0814042
0.0617592
0.0550486
0.0518052
0.0477059
0.0444098
0.0415464
0.0386818
0.0359317
0.0335816
0.0316589
0.0299831
0.0285548
0.0273267
0.0256548
0.023467
0.0210553
0.0188216
0.0170561
0.0158551
0.0152702
0.0152889
0.015942
0.0174509
0.0202491
0.0250475
0.0328546
0.0445526
0.0603331
0.0794724
0.100598
0.122462
0.133845
0.137706
0.134773
0.123765
0.105986
0.0820948
0.0570303
0.0391668
0.0272562
0.0219464
0.0305095
0.0743937
0.0437701
0.0410098
0.0444681
0.0392473
0.0369195
0.0337359
0.031815
0.0292035
0.0278448
0.0271181
0.0275442
0.0282093
0.0281908
0.0266911
0.0246049
0.0241408
0.0279148
0.0373622
0.053527
0.049392
0.0258236
0.00986441
0.0052041
0.00412239
0.00376296
0.00360866
0.00353932
0.00351946
0.00354862
0.00363659
0.00372844
0.00376285
0.00379615
0.00390345
0.0041305
0.00449459
0.00501726
0.00574446
0.00675795
0.00822394
0.0104441
0.0139323
0.0194954
0.0282117
0.0414509
0.0611904
0.0909167
0.136293
0.206793
0.29317
0.373206
0.423746
0.4046
0.300144
0.187191
0.117093
0.075983
0.0572803
0.0668892
0.148998
0.0226402
0.0134866
0.0121192
0.00953592
0.00854124
0.00772642
0.00768058
0.0080241
0.00944429
0.0120442
0.0164847
0.0235878
0.0354205
0.0557241
0.0910373
0.149767
0.238837
0.35457
0.491209
0.447549
0.246178
0.0869705
0.0297527
0.0161908
0.0130741
0.011922
0.0105024
0.00909275
0.00797291
0.00752624
0.00805316
0.00892238
0.0097543
0.0104087
0.0107993
0.0110157
0.0112604
0.0116659
0.0122878
0.0131579
0.0145342
0.0168814
0.0207795
0.0271667
0.0373032
0.0532488
0.0788036
0.121212
0.195446
0.340497
0.549691
0.77715
0.934727
0.815747
0.526931
0.292386
0.177608
0.122561
0.108557
0.205603
0.0133489
0.00498843
0.00441071
0.00451903
0.00615417
0.00944342
0.0154027
0.0254302
0.0414797
0.0663213
0.104608
0.166576
0.273046
0.460095
0.778993
1.27593
1.94859
2.662
3.24397
2.88103
1.78898
0.798193
0.341577
0.205827
0.174379
0.166239
0.153302
0.137178
0.121191
0.111141
0.112538
0.127859
0.147545
0.163844
0.171718
0.170381
0.165386
0.161845
0.159272
0.14031
0.105328
0.0731652
0.0454301
0.0392733
0.0438566
0.0538226
0.0709234
0.0994587
0.146806
0.225036
0.359449
0.54223
0.681861
0.776893
0.8211
0.660465
0.392065
0.243514
0.151922
0.229745
0.010871
0.00537374
0.00937981
0.0173582
0.0313733
0.0566974
0.100319
0.171936
0.280484
0.437331
0.659984
1.00231
1.56282
2.5073
4.03271
6.2376
8.99752
11.5422
12.7631
11.6364
8.44947
4.90577
2.76835
1.90941
1.62695
1.52522
1.43759
1.34601
1.25436
1.19647
1.2028
1.29213
1.47912
1.72023
1.91835
2.0055
2.00879
1.95166
1.8621
1.70559
1.41005
1.09838
0.71985
0.328335
0.189047
0.158547
0.155813
0.161783
0.179488
0.216917
0.298851
0.401163
0.489162
0.545293
0.584464
0.582786
0.528267
0.432417
0.243273
0.229651
0.022181
0.0264851
0.0552561
0.106621
0.189898
0.335297
0.575403
0.938038
1.40838
1.96263
2.62816
3.45781
4.78815
6.91607
10.0605
14.1644
18.8306
22.4465
23.905
23.2793
20.7081
16.4916
12.1895
9.48453
8.01595
7.10659
6.4346
5.89843
5.4276
5.05934
4.84625
4.80028
4.96283
5.3591
5.95629
6.56223
7.09043
7.23525
7.02005
6.67167
5.99188
5.18457
4.32285
3.06212
2.14198
1.64445
1.2934
0.92712
0.584704
0.404836
0.375653
0.401373
0.44274
0.467014
0.450907
0.426662
0.390971
0.349357
0.286366
0.227607
0.0786358
0.115422
0.238905
0.462669
0.80785
1.39241
2.22442
3.32225
4.42885
5.65533
6.76101
7.76188
9.0739
11.2285
13.7402
16.1512
18.6444
21.2682
23.5745
24.8174
24.5704
23.3423
22.0136
20.6684
19.1055
17.2923
15.3616
13.5581
12.1004
10.9667
10.1831
9.67208
9.41046
9.40433
9.63113
10.0216
10.5005
10.8961
10.95
10.668
10.0975
9.21293
8.24142
6.96391
5.48772
4.25199
3.30623
2.58806
1.99326
1.45485
1.06143
0.866142
0.772961
0.753989
0.667013
0.538826
0.421484
0.334482
0.286964
0.221291
0.143979
0.341035
0.892637
1.59025
2.26021
3.19743
3.81852
4.31885
4.71153
5.11339
5.63999
6.24213
6.99934
7.95044
9.08031
10.3494
11.5657
12.7295
13.6843
14.4481
15.1205
15.584
15.8621
16.1071
16.2864
16.3909
16.3861
16.0468
15.0906
13.739
12.5142
11.5632
10.8337
10.2859
9.91801
9.70138
9.56142
9.45911
9.32146
9.1284
8.84173
8.3842
7.75225
6.96924
6.00699
4.96842
3.97762
3.14869
2.53879
2.08881
1.76263
1.58819
1.45168
1.1839
0.910438
0.686531
0.488889
0.345201
0.276211
0.206066
0.10976
0.232216
0.70308
1.11835
1.50041
1.83237
2.11703
2.44789
2.76636
2.97255
3.12984
3.3669
3.70439
4.15024
4.73936
5.53469
6.37747
7.18651
7.90284
8.43979
8.80178
9.05817
9.32697
9.73387
10.3106
10.9641
11.6171
12.2474
12.8541
13.1944
12.7943
11.6894
10.3984
9.29055
8.48042
7.97581
7.70457
7.57338
7.51662
7.45566
7.28913
6.98666
6.54228
5.94666
5.24502
4.47133
3.63102
2.78333
2.01109
1.39827
1.00149
0.78162
0.65347
0.559232
0.478639
0.392622
0.30238
0.238347
0.224502
0.195794
0.0799238
0.194715
0.855695
1.57713
1.88
2.2156
2.63517
3.1602
3.51871
3.57829
3.51562
3.6104
3.95829
4.57848
5.50405
6.56503
7.60274
8.63301
9.58961
10.361
10.9012
11.3407
11.6608
11.9962
12.4292
13.0141
13.7234
14.5416
15.4152
16.1793
16.4271
15.6567
14.1214
12.6562
11.594
11.0346
10.9021
11.0377
11.272
11.4364
11.362
10.994
10.4194
9.64568
8.66725
7.44701
6.03282
4.5426
3.11421
1.96875
1.27202
0.937023
0.776908
0.658727
0.555671
0.451309
0.350904
0.279223
0.25856
0.205572
0.0935145
0.189504
0.420891
0.776089
1.25419
2.1032
2.91456
3.66906
4.05251
4.04247
3.88896
4.01155
4.50281
5.36789
6.46272
7.51316
8.41647
9.36852
10.4887
11.8812
13.3322
14.0619
14.4769
15.35
16.2727
17.0992
17.8994
18.7074
19.3714
19.621
19.1072
17.6989
15.8058
13.9908
12.9105
12.646
12.943
13.5021
14.0547
14.4275
14.4411
13.9964
13.1521
11.9794
10.493
8.7249
6.70998
4.6291
2.80787
1.50539
0.883147
0.72049
0.775972
0.780541
0.696795
0.607218
0.49648
0.401656
0.360972
0.237673
0.103233
0.202742
0.362514
0.610162
0.945029
1.69104
2.61996
3.82368
4.67343
4.8288
4.48463
4.19867
4.24541
4.66786
5.22332
5.58943
5.84097
6.36912
7.28281
8.76106
11.067
13.8412
15.764
16.7813
17.5701
18.1241
18.6781
19.2862
19.8273
20.0482
19.5818
18.1193
15.992
13.9822
12.8859
12.672
13.004
13.6153
14.2121
14.5323
14.4213
13.8817
13.0824
11.9493
10.3979
8.24602
5.54241
3.23669
1.76066
0.976896
0.688738
0.732048
0.894823
0.928948
0.86217
0.744405
0.595206
0.466866
0.401949
0.250466
0.0889373
0.223251
1.03216
1.51814
1.65593
2.11875
2.78491
3.65344
4.51853
5.04192
5.19605
4.81062
4.13946
3.69903
3.63942
3.85886
4.1365
4.43583
4.93489
5.80101
7.27695
9.62621
12.3223
14.1668
15.1259
15.7762
16.2165
16.557
16.9037
17.285
17.5347
16.8868
15.0012
13.1041
11.8425
11.1742
10.9815
11.0472
11.1587
11.1916
10.9732
10.4758
9.78131
8.94829
7.99176
6.86646
5.26354
3.37282
1.89793
1.07102
0.715695
0.626732
0.609552
0.578295
0.537074
0.46915
0.399722
0.342665
0.314883
0.221589
0.0935802
0.113141
0.475768
0.923033
1.1341
1.3376
1.48527
1.55827
1.61609
1.876
2.33863
2.87347
3.43028
3.98928
4.65861
5.45523
6.09083
6.25783
6.23526
6.29733
6.94268
8.69538
11.4552
14.0406
15.5963
16.2967
16.7707
17.2009
17.4889
17.2251
15.918
13.9576
12.2397
11.1184
10.5439
10.3464
10.2963
10.252
10.1304
9.74933
8.95785
7.98323
6.98282
6.01564
5.14052
4.23709
3.26
2.27848
1.47942
0.95497
0.677302
0.556016
0.485941
0.426191
0.375432
0.335068
0.30165
0.282174
0.267166
0.208158
0.106661
0.177774
0.489619
0.984766
1.45963
2.01566
2.71369
3.63196
4.94126
6.76402
8.50989
9.15346
9.1729
9.57207
10.5132
11.8432
13.0634
13.9548
14.6485
15.2066
16.1883
18.1684
20.1365
20.0477
18.7079
17.9196
17.6429
17.3303
16.4143
14.8427
13.1531
11.8153
10.9761
10.5434
10.2634
9.87896
9.36793
8.79526
8.14983
7.36244
6.49616
5.63974
4.8602
4.11301
3.41831
2.80927
2.25518
1.71362
1.24646
0.908121
0.708048
0.614823
0.571381
0.509483
0.43057
0.367448
0.317273
0.290138
0.273457
0.210526
0.07928
0.125223
0.285711
0.609233
1.18774
2.07252
3.36379
4.97723
6.05838
6.39238
6.57095
7.05402
8.27088
10.3889
13.4373
17.2851
21.1933
23.9306
25.153
25.3448
24.5214
22.8417
20.7382
19.0882
18.3045
17.7694
16.8533
15.431
13.7547
12.2001
11.0852
10.3998
9.99858
9.77093
9.6718
9.72383
9.73645
9.5708
9.14181
8.43632
7.5183
6.45772
5.33587
4.2205
3.21807
2.47106
1.93531
1.53505
1.25496
1.12207
1.18633
1.36809
1.3808
1.1623
0.877454
0.63404
0.459736
0.354299
0.306987
0.227315
0.0206319
0.0203819
0.0438929
0.086113
0.157597
0.277293
0.470338
0.759389
1.12445
1.45889
1.61297
1.94082
2.55084
3.57699
5.19571
7.34509
9.46828
10.9546
11.817
12.4342
12.7234
12.2857
11.3466
10.3444
9.39806
8.55866
7.60942
6.54743
5.51693
4.70997
4.04733
3.46897
3.0597
2.92779
3.01006
3.21893
3.57636
3.82934
3.88369
3.69632
3.30052
2.93353
2.54727
2.18283
1.87564
1.71952
1.7238
1.85894
2.1077
2.39606
2.57253
2.53314
2.14109
1.62742
1.16693
0.828199
0.591483
0.433087
0.320864
0.237885
0.0145377
0.00412624
0.00674348
0.012127
0.021347
0.0359654
0.0576844
0.0868919
0.121108
0.155172
0.192705
0.243734
0.324452
0.457416
0.666916
0.966098
1.33225
1.73473
2.1804
2.71269
3.26317
3.35713
2.99572
2.45655
2.00095
1.65856
1.33196
1.00202
0.714009
0.503881
0.340432
0.232269
0.210107
0.213976
0.225589
0.24099
0.257741
0.266309
0.265389
0.258075
0.253732
0.27554
0.299388
0.347507
0.448972
0.607514
0.847722
1.12544
1.42575
1.79346
2.18578
2.40744
2.23092
1.87815
1.56902
1.24416
0.896716
0.600777
0.340451
0.244342
0.0198581
0.00442117
0.00285676
0.0025388
0.0032628
0.00462335
0.00673097
0.00938577
0.0123062
0.0151548
0.0182464
0.0222309
0.0286765
0.0393495
0.0566266
0.0829433
0.120727
0.172969
0.244838
0.344803
0.47272
0.497975
0.418783
0.314122
0.238036
0.183333
0.134031
0.0891656
0.0561213
0.0365687
0.0251169
0.0204896
0.0210029
0.0223348
0.0244476
0.0274496
0.0315031
0.0365929
0.0430075
0.0514672
0.0638432
0.0837845
0.116188
0.169283
0.255757
0.389928
0.592967
0.890485
1.31218
1.8614
2.29973
2.31705
1.98768
1.49754
1.12978
0.900151
0.670643
0.462563
0.238068
0.243428
0.0316441
0.0134064
0.00881981
0.00571818
0.00459073
0.00362915
0.00322348
0.0030126
0.00314819
0.00343679
0.00384683
0.00416591
0.00441984
0.00479225
0.00565479
0.00737262
0.0102884
0.0147931
0.0215912
0.0320888
0.043917
0.0449027
0.0363746
0.0270955
0.0207252
0.0160621
0.0121301
0.00909568
0.00732371
0.00661198
0.00650458
0.00684587
0.00755774
0.00854382
0.00989571
0.0117637
0.0143731
0.0180674
0.0234378
0.0315934
0.0446483
0.066264
0.102362
0.162131
0.259787
0.414518
0.658133
1.00916
1.46394
1.81338
1.93201
1.7454
1.31921
0.875658
0.600758
0.463305
0.367438
0.282888
0.171275
0.239574
0.0494408
0.0412934
0.035303
0.0265958
0.0229011
0.0189458
0.0167771
0.0148366
0.0144207
0.0146713
0.015311
0.0151896
0.0138308
0.01136
0.00844402
0.0059111
0.00422195
0.00347385
0.00351074
0.00422833
0.00487193
0.00491687
0.00453865
0.00419815
0.0040135
0.00393866
0.00394858
0.0040579
0.00426909
0.00457982
0.0049894
0.00551696
0.00611328
0.00683723
0.00781797
0.00924695
0.0114228
0.0148092
0.0201245
0.0285768
0.0422941
0.0650033
0.103021
0.166941
0.275623
0.455801
0.740065
1.15175
1.54816
1.71639
1.61043
1.29512
0.890263
0.54333
0.328208
0.211375
0.141035
0.0991566
0.0895326
0.18622
0.100492
0.127758
0.142316
0.131982
0.128927
0.122131
0.118716
0.114365
0.113866
0.115175
0.117096
0.1163
0.110597
0.0996205
0.0847907
0.0690335
0.0548139
0.0442432
0.0376691
0.0346259
0.0323277
0.0304704
0.0289194
0.0275846
0.0263881
0.0253707
0.0245028
0.0237854
0.0231746
0.0227302
0.0225005
0.0224259
0.0220469
0.0214644
0.0209347
0.0208119
0.0214876
0.0233338
0.0266441
0.0317974
0.0394454
0.0507722
0.0678379
0.0937031
0.134663
0.20568
0.302326
0.393463
0.421061
0.376787
0.289738
0.199325
0.130222
0.0836324
0.0566551
0.0410772
0.0314344
0.025963
0.0341794
0.0886102
0.184632
0.282336
0.466386
0.552085
0.625109
0.676228
0.717697
0.750322
0.777857
0.80295
0.826165
0.84664
0.861232
0.866886
0.861068
0.843346
0.814536
0.776924
0.732561
0.684278
0.636115
0.58962
0.54442
0.500584
0.459032
0.421231
0.386478
0.354657
0.324965
0.297547
0.272447
0.249795
0.229537
0.211391
0.195138
0.18104
0.169485
0.16117
0.156645
0.156327
0.16052
0.168967
0.180446
0.191363
0.196928
0.192739
0.178869
0.158715
0.134489
0.109323
0.0856804
0.0651025
0.0482754
0.0348923
0.0250612
0.0179919
0.0132195
0.0105801
0.01286
0.0287284
0.15447
0.263993
0.444796
0.535239
0.613756
0.663491
0.707735
0.739802
0.766093
0.788111
0.804272
0.817593
0.82359
0.825103
0.817911
0.804791
0.783418
0.756281
0.723305
0.685776
0.644533
0.60062
0.554842
0.508069
0.462372
0.419726
0.379877
0.343396
0.310181
0.280482
0.253807
0.22992
0.208472
0.189444
0.172719
0.158263
0.146346
0.137559
0.132598
0.132215
0.137236
0.148132
0.163932
0.180195
0.189742
0.183949
0.16552
0.141525
0.116981
0.0946134
0.0752092
0.0588503
0.0455223
0.0347074
0.0262911
0.0197425
0.0150777
0.0125353
0.0153394
0.0323385
0.0818273
0.101739
0.118805
0.109552
0.103608
0.0956465
0.0923446
0.0871024
0.0848899
0.082429
0.0811006
0.0789539
0.0771874
0.0736181
0.0699832
0.0649221
0.0596589
0.054459
0.0495692
0.0453293
0.0414105
0.0379751
0.0349033
0.0321136
0.0296976
0.0275998
0.0257999
0.0244092
0.023431
0.0227978
0.0222879
0.0217701
0.0212337
0.0207245
0.0202887
0.0200969
0.0205425
0.0219399
0.0246492
0.0291731
0.0362076
0.0465426
0.060965
0.0799616
0.10279
0.117921
0.124729
0.122749
0.114015
0.103025
0.0924578
0.0825119
0.0735789
0.0654427
0.057577
0.0495935
0.0417864
0.0366412
0.0460005
0.0978016
0.0371938
0.0277064
0.0242156
0.0172999
0.0135333
0.0103677
0.00890778
0.00737923
0.00676188
0.00621797
0.00599996
0.00578977
0.0056476
0.00534676
0.00507161
0.0046625
0.00427757
0.00396489
0.00374323
0.00363841
0.00359686
0.00361281
0.00367638
0.00377954
0.00392911
0.00415075
0.00438614
0.00464502
0.00489193
0.00516685
0.00550579
0.00598183
0.0065608
0.0072877
0.00823897
0.00954852
0.0114049
0.0140682
0.0179505
0.0237265
0.0326729
0.0470576
0.0707151
0.109589
0.171762
0.266211
0.409115
0.52099
0.553895
0.530336
0.478601
0.40907
0.340057
0.281828
0.234333
0.192796
0.153291
0.119838
0.108431
0.184592
0.0218527
0.00801341
0.00501877
0.00277764
0.00189274
0.00129483
0.00108567
0.00092188
0.00092043
0.000958119
0.00108289
0.00126558
0.00153943
0.00191975
0.00246318
0.00319925
0.00416118
0.00534076
0.00669859
0.00817892
0.00971954
0.011177
0.0124149
0.0134499
0.0144491
0.0155274
0.0163946
0.016365
0.0157547
0.0146543
0.0141249
0.0142243
0.0148537
0.0162659
0.0187527
0.0226804
0.028565
0.0372047
0.04989
0.0678023
0.0947848
0.137906
0.210517
0.335252
0.550256
0.914173
1.51015
2.37454
3.39633
3.99408
3.92363
3.19095
2.29982
1.54928
1.04059
0.721506
0.501031
0.344852
0.202954
0.237871
0.0139111
0.00260613
0.00126787
0.000723321
0.000662134
0.000754089
0.00101818
0.00144639
0.00213583
0.00320032
0.00490362
0.00764849
0.0122362
0.0198592
0.0323718
0.0521158
0.081203
0.119658
0.165002
0.213233
0.263683
0.308242
0.335722
0.346556
0.348281
0.341387
0.32226
0.284037
0.232419
0.180664
0.138873
0.110874
0.0915622
0.0766894
0.0670751
0.0628763
0.0645455
0.0729501
0.0881143
0.105127
0.130147
0.170498
0.241482
0.365254
0.573319
0.916448
1.51204
2.6202
4.72474
6.8422
7.46353
6.69423
4.99799
3.04724
1.72767
1.18945
0.926447
0.668014
0.367375
0.259347
0.00961595
0.00126237
0.00102909
0.0013605
0.00207226
0.00320942
0.00500622
0.00791421
0.0127804
0.0210598
0.03565
0.06186
0.110125
0.197764
0.350956
0.601448
0.972725
1.45501
1.99033
2.51299
3.00678
3.42989
3.68935
3.80228
3.80034
3.71311
3.51066
3.16288
2.69388
2.21514
1.8372
1.60463
1.41638
1.23714
1.06671
0.892424
0.722409
0.565959
0.453601
0.389183
0.345747
0.279322
0.245806
0.313082
0.454848
0.705314
1.15627
2.00727
3.69824
6.01589
8.37384
9.06339
7.71848
5.02767
2.83102
1.78436
1.24919
0.804754
0.459234
0.273097
0.00921372
0.0035611
0.00650406
0.0111742
0.0170629
0.0254675
0.0379943
0.0581981
0.0934861
0.156923
0.268353
0.459986
0.7866
1.32573
2.16607
3.36659
4.91793
6.77884
8.74793
10.5092
12.023
13.2078
14.0263
14.5318
14.7605
14.7642
14.4792
13.8399
12.7973
11.5573
10.4501
9.71849
9.37747
9.24039
9.26742
9.24218
9.03384
8.38134
7.47155
6.00878
4.88448
3.60943
2.22277
1.26271
0.8649
0.843984
1.0083
1.47014
2.38595
3.67109
5.31412
6.27336
6.03376
4.87197
3.37026
2.17068
1.34225
0.78842
0.470298
0.274009
0.0231362
0.0293766
0.0663825
0.126319
0.203673
0.312678
0.466101
0.683704
0.971486
1.35846
1.98289
2.83947
3.99316
5.61273
7.77417
10.3979
13.3874
16.6194
19.6062
22.1103
24.1043
25.6546
26.7069
27.352
27.6487
27.6897
27.4195
26.8556
25.9379
24.6398
23.1547
21.7379
20.8422
20.5941
20.9846
21.8448
23.0039
24.02
24.6919
24.4962
22.7147
19.8719
16.144
12.0398
8.37615
5.64442
3.74428
2.82942
2.62663
2.81304
3.26827
3.64904
3.3457
2.7467
2.07321
1.4033
0.897412
0.569715
0.423989
0.26301
0.132493
0.264963
0.640974
1.17566
1.86839
2.85589
4.22974
5.75993
7.06456
8.16056
8.88759
9.79041
10.5988
11.3979
12.6365
14.4674
16.8397
19.4764
22.1164
24.4977
26.4177
27.8571
28.8011
29.2855
29.3943
29.2808
29.0236
28.6894
28.2374
27.4819
26.379
25.1058
23.8545
22.8189
22.2022
22.008
22.0237
21.96
21.4629
20.4556
18.9189
17.1097
15.2589
13.41
11.4331
9.35354
7.33265
5.54396
4.2126
3.30567
2.64593
2.23165
1.93701
1.56087
1.1774
0.841811
0.58632
0.423457
0.382242
0.245719
0.219663
0.71908
1.87268
3.52011
5.92502
8.05721
9.55143
10.8653
12.65
15.4052
18.4028
20.0022
18.983
16.2901
14.2343
13.2324
13.0512
13.4262
14.1129
15.0146
16.0103
16.9581
17.7117
18.1759
18.3419
18.292
18.1693
18.0748
18.0956
18.1753
18.0343
17.4183
16.5609
15.7458
14.9777
14.2716
13.6393
13.0047
12.286
11.4864
10.5105
9.36479
8.11518
6.83506
5.57112
4.372
3.28394
2.35522
1.6609
1.23972
1.0178
0.876903
0.749509
0.615035
0.490729
0.386435
0.303971
0.25505
0.258708
0.207388
0.143773
0.31148
1.8014
3.29012
5.44983
8.13091
10.1573
11.1117
11.4346
11.7822
12.2887
12.7552
13.2522
14.0387
14.5947
13.8299
12.7025
12.1722
12.0854
12.083
12.0906
12.2044
12.4137
12.587
12.6121
12.4479
12.113
11.6467
11.1186
10.6123
10.1198
9.57304
8.9739
8.35647
7.75308
7.24001
6.85481
6.62351
6.51757
6.42043
6.24961
5.96942
5.49951
4.81224
4.00836
3.19706
2.41022
1.6864
1.11492
0.75312
0.556284
0.44119
0.359701
0.301324
0.258775
0.229512
0.209342
0.204569
0.222718
0.192856
0.103513
0.149919
0.789723
1.24552
1.58371
1.85353
1.86882
1.80306
1.85671
2.08164
2.41599
2.911
3.82383
5.6733
8.85139
12.1786
13.9224
14.4292
14.7076
15.0421
15.423
15.8652
16.1424
16.0473
15.6176
14.9378
14.0692
13.0637
11.9493
10.8357
9.83482
8.9783
8.24486
7.63001
7.20105
6.99545
6.97736
7.0819
7.2226
7.31228
7.25643
6.98748
6.3705
5.37998
4.18252
2.93304
1.87896
1.13827
0.682408
0.443248
0.330894
0.27254
0.234202
0.212931
0.207537
0.206728
0.205704
0.212141
0.208695
0.183139
0.10733
0.202013
1.1827
2.1204
2.70594
3.34043
3.86517
4.15771
4.11362
3.90943
3.72818
3.8647
4.65994
6.35157
8.4071
9.87611
11.0825
12.6154
14.3921
15.8927
16.4715
16.2888
16.0291
15.8642
15.743
15.574
15.2122
14.5152
13.4609
12.2121
10.9825
9.937
9.1078
8.44387
8.00354
7.83029
7.8667
8.02497
8.22769
8.37799
8.33646
8.029
7.274
5.9953
4.48967
3.1022
2.0059
1.22465
0.730979
0.455034
0.329589
0.268877
0.227206
0.204041
0.202077
0.204543
0.203887
0.209048
0.208904
0.185046
0.108494
0.27219
0.873904
1.6709
2.21721
3.07891
3.8059
4.32019
4.55305
4.7002
4.82689
4.97058
5.35928
6.10894
7.04044
7.80246
8.71629
9.86562
10.9665
11.6462
12.0053
12.3362
12.7089
13.1083
13.4816
13.7901
14.0449
14.1998
14.0652
13.4167
12.3515
11.2656
10.3458
9.58225
9.06138
8.86174
8.92624
9.16365
9.41923
9.54535
9.40185
8.91029
8.03847
6.79828
5.35217
3.93942
2.70539
1.72178
1.07031
0.722068
0.554116
0.454364
0.381451
0.328799
0.29532
0.268521
0.242656
0.224822
0.233257
0.196595
0.175596
0.454787
0.871753
1.21865
1.51792
2.10079
2.71314
3.33758
3.8447
4.29365
4.78733
5.27751
5.88149
6.99878
8.70437
10.7778
13.0254
15.3258
16.891
17.2794
17.2613
17.3843
17.6983
18.094
18.4445
18.7407
19.0273
19.348
19.5364
19.2187
18.246
16.9311
15.7203
14.7406
14.1013
13.9815
14.2938
14.7955
15.0588
14.7751
13.8438
12.444
10.6388
8.50144
6.24545
4.30717
2.85462
1.84256
1.19998
0.804325
0.559427
0.432759
0.413551
0.425754
0.401181
0.351508
0.305013
0.267415
0.264672
0.215133
0.221635
0.290822
0.381259
0.597521
0.909046
1.32384
1.84376
2.41436
3.06757
3.7651
4.63962
5.76999
7.3086
9.48477
12.4325
15.9445
19.299
21.4238
21.8715
21.9872
22.5058
23.2516
23.974
24.4664
24.6975
24.7368
24.537
23.922
22.7868
21.241
19.4627
17.5813
15.9709
15.116
15.0922
15.5858
16.2151
16.5715
16.2084
15.0881
13.3094
10.9213
8.359
5.915
3.8851
2.53735
1.67906
1.12098
0.759763
0.551116
0.46315
0.517998
0.692038
0.791277
0.756573
0.642174
0.510786
0.401284
0.329768
0.245495
0.110489
0.203968
0.439581
0.835109
1.31728
1.97209
2.71577
3.54658
4.44218
5.61452
7.26664
9.37966
12.2002
15.5172
19.0718
22.5945
25.4658
26.7011
26.4913
26.2261
26.377
26.7334
27.1782
27.5094
27.6081
27.4102
26.7909
25.7
24.303
22.6734
20.8559
19.1269
18.065
17.6388
17.5332
17.6324
17.7346
17.5018
16.7081
15.3318
13.4371
11.2015
8.71743
6.13396
3.80543
2.2483
1.34386
0.904308
0.708769
0.660219
0.736823
0.96943
1.17963
1.21357
1.09902
0.899717
0.692253
0.524008
0.390263
0.262438
0.0468703
0.0645741
0.148412
0.29762
0.528035
0.851258
1.27403
1.8417
2.5771
3.62021
5.06107
6.92626
9.29537
12.1382
14.8155
16.633
17.3206
17.1069
16.8158
16.9388
17.4637
18.1125
18.5585
18.7589
18.6586
18.2839
17.7174
17.0461
16.2807
15.4194
14.6245
14.1195
13.9273
13.9192
14.1281
14.4224
14.3832
13.6293
12.2248
10.2588
8.14023
6.15764
4.49574
3.05488
2.0096
1.40726
1.08991
0.97049
1.02252
1.24472
1.60161
1.85908
1.81547
1.61246
1.30035
0.964882
0.709234
0.527442
0.365483
0.24833
0.0176639
0.00607258
0.0119141
0.0238763
0.0450605
0.0804832
0.138596
0.231885
0.375191
0.589082
0.889678
1.28886
1.82555
2.53276
3.42643
4.02733
4.06903
3.77611
3.51159
3.52843
3.8362
4.16512
4.45867
4.71072
4.93732
5.17288
5.26118
5.20693
5.00773
4.70729
4.40139
4.15575
4.03242
4.02863
4.09519
4.20228
4.27017
4.01765
3.55876
2.88742
2.33624
1.78947
1.34326
1.01446
0.925032
0.99005
1.2112
1.65431
2.32311
3.0566
3.48742
3.49344
3.35088
2.97404
2.36072
1.74055
1.17647
0.721323
0.335607
0.245607
0.0238923
0.0041757
0.00244972
0.00233742
0.00315084
0.00462332
0.00708891
0.0109391
0.0168697
0.0256586
0.0381317
0.0555253
0.0815206
0.120936
0.177945
0.249473
0.251416
0.2067
0.168919
0.173249
0.205352
0.237056
0.267111
0.296075
0.325889
0.357953
0.387481
0.38936
0.360809
0.3192
0.282152
0.266346
0.269802
0.280564
0.300481
0.331225
0.370143
0.415603
0.406859
0.339102
0.289335
0.244929
0.229048
0.273863
0.395325
0.611846
1.0084
1.68293
2.76926
3.9633
4.13461
3.74075
3.08254
2.39358
1.7945
1.28082
0.809914
0.467893
0.216524
0.253471
0.0303753
0.0118944
0.00707973
0.00420988
0.00311626
0.00239791
0.00218887
0.0020342
0.00207819
0.00211986
0.00223485
0.00240471
0.00270981
0.00327119
0.00421859
0.00573891
0.00666099
0.00595648
0.00552652
0.00622361
0.00716051
0.00798061
0.00868025
0.0093377
0.00999284
0.0106563
0.0112433
0.0119563
0.0120941
0.0121108
0.0125649
0.0132789
0.0142392
0.0155517
0.0173599
0.0197735
0.0228668
0.0268058
0.0322139
0.0382135
0.0499274
0.0711493
0.110455
0.185549
0.329436
0.605853
1.12485
2.02823
3.25985
3.75638
3.51091
2.76236
1.89107
1.23738
0.837059
0.568138
0.361317
0.22978
0.158056
0.252934
0.0476891
0.0382368
0.0308211
0.0222102
0.018148
0.0147675
0.0133201
0.0117653
0.0109558
0.00978093
0.00876771
0.007701
0.00666404
0.00585945
0.00533431
0.00512584
0.00520604
0.00547877
0.00575787
0.00596638
0.00592629
0.00570232
0.00536535
0.00502048
0.00471398
0.00450396
0.00438515
0.00435709
0.00441184
0.00454389
0.00475251
0.00502733
0.00536559
0.00578624
0.0063491
0.00713991
0.0082952
0.0100256
0.0127243
0.0171265
0.024798
0.038916
0.0665126
0.12276
0.240637
0.489716
0.992785
1.89783
2.54194
2.63969
2.26328
1.57842
0.932638
0.528914
0.314918
0.205544
0.135131
0.0982263
0.106355
0.218907
0.0999842
0.12361
0.136539
0.123679
0.118446
0.111495
0.108871
0.104739
0.102344
0.0978185
0.0933843
0.0877157
0.0815317
0.0754843
0.0702176
0.0661158
0.0632717
0.0615333
0.0597861
0.0575345
0.0543106
0.0504165
0.0461899
0.0420069
0.0379368
0.0342535
0.0309418
0.028053
0.0256525
0.0237284
0.0222587
0.0210408
0.0198689
0.0187602
0.0177922
0.0171014
0.0169147
0.0174702
0.0190307
0.0219478
0.0268727
0.0353556
0.0504724
0.0783798
0.132596
0.243036
0.476625
0.7224
0.837701
0.775277
0.574336
0.336219
0.178648
0.0984979
0.0635408
0.0443779
0.0334286
0.0299799
0.049652
0.131063
0.172062
0.286232
0.474628
0.564966
0.641784
0.695794
0.742367
0.778336
0.807769
0.831656
0.848833
0.861665
0.867074
0.865666
0.855399
0.837802
0.812389
0.781337
0.745563
0.706226
0.664032
0.620607
0.576271
0.532339
0.489247
0.448163
0.408585
0.371193
0.33602
0.303735
0.274188
0.247587
0.223553
0.201921
0.182614
0.165752
0.151378
0.139755
0.131455
0.127314
0.128478
0.136424
0.152975
0.177774
0.20809
0.239841
0.259533
0.247369
0.212333
0.165236
0.119054
0.081792
0.0555269
0.0376494
0.025673
0.0172807
0.012101
0.0100528
0.0157721
0.043727
0.161224
0.254311
0.430724
0.516012
0.587389
0.63773
0.676607
0.707344
0.732847
0.756396
0.778385
0.797857
0.81152
0.816431
0.810284
0.793047
0.765696
0.730524
0.689525
0.644767
0.599238
0.555478
0.51311
0.473246
0.436512
0.403839
0.374527
0.348287
0.324109
0.30235
0.28318
0.266662
0.252303
0.23974
0.22887
0.220169
0.214215
0.211727
0.213065
0.217794
0.224724
0.232575
0.24111
0.249253
0.25174
0.248822
0.240679
0.220088
0.186318
0.148768
0.115163
0.0881465
0.0669529
0.0501754
0.0375346
0.0281243
0.0215824
0.0180169
0.0226062
0.049219
0.125018
0.213624
0.372381
0.450198
0.512164
0.556943
0.589593
0.615687
0.63675
0.656295
0.674425
0.690233
0.700798
0.703728
0.697251
0.681735
0.658153
0.628579
0.594786
0.558721
0.521411
0.485903
0.452385
0.423107
0.396747
0.373652
0.353281
0.335487
0.319067
0.303591
0.289033
0.275584
0.262772
0.250284
0.238564
0.228716
0.22136
0.216336
0.214184
0.217477
0.228908
0.251402
0.286412
0.334891
0.385531
0.422296
0.435988
0.40539
0.33177
0.244972
0.171999
0.12159
0.0888518
0.0666095
0.0514742
0.0405642
0.032933
0.0288872
0.037116
0.0792145
0.120527
0.189324
0.304074
0.360643
0.408894
0.445393
0.470962
0.491849
0.508478
0.523807
0.537848
0.549842
0.557485
0.558849
0.552674
0.53931
0.519527
0.494929
0.466864
0.437143
0.406816
0.379235
0.354222
0.331562
0.310425
0.291259
0.273752
0.257464
0.241943
0.227907
0.217369
0.210194
0.205328
0.204285
0.206953
0.209655
0.214035
0.227194
0.255427
0.305658
0.379118
0.469941
0.568784
0.688614
0.812813
0.912568
0.963161
0.911429
0.758569
0.552627
0.36421
0.227963
0.145552
0.0968842
0.0707347
0.0564166
0.0477149
0.0431483
0.0552164
0.114502
0.11749
0.160179
0.228614
0.257863
0.290608
0.317717
0.337395
0.35537
0.370813
0.385224
0.395236
0.402584
0.406017
0.404127
0.395928
0.381556
0.361469
0.339002
0.31612
0.294665
0.275581
0.258321
0.242873
0.231628
0.226347
0.226478
0.231413
0.244251
0.268694
0.311253
0.362769
0.403821
0.42895
0.469378
0.526804
0.565111
0.593466
0.640545
0.700806
0.783417
0.885882
0.993117
1.0742
1.18229
1.31435
1.46346
1.61162
1.6293
1.47324
1.18787
0.862874
0.55103
0.32999
0.189027
0.112747
0.0828339
0.069434
0.0611036
0.0743893
0.14451
0.111593
0.11173
0.134355
0.152862
0.171381
0.189556
0.201108
0.21315
0.222758
0.232052
0.239329
0.244107
0.244805
0.241012
0.232577
0.221079
0.208182
0.195893
0.185801
0.179263
0.176382
0.174645
0.177645
0.188316
0.207768
0.237314
0.277034
0.324375
0.382249
0.450181
0.515745
0.572716
0.624282
0.690634
0.77606
0.870549
0.949521
1.00831
1.05858
1.11106
1.1958
1.28449
1.32008
1.32729
1.34698
1.39767
1.45064
1.45489
1.36091
1.18598
0.938125
0.652526
0.391607
0.248802
0.175182
0.138106
0.111185
0.0864209
0.0875013
0.157471
0.0995805
0.0766786
0.0945504
0.110198
0.128286
0.140399
0.152127
0.160905
0.169573
0.177053
0.183526
0.187511
0.188368
0.185374
0.179151
0.170886
0.16251
0.155634
0.151739
0.152291
0.156464
0.162459
0.172032
0.186478
0.204572
0.226356
0.25285
0.281322
0.31407
0.355269
0.402831
0.459384
0.521194
0.593486
0.673843
0.772942
0.874577
0.952238
1.00958
1.05773
1.11434
1.16162
1.18104
1.18268
1.17343
1.17259
1.1825
1.21713
1.24676
1.19302
1.07298
0.8977
0.679711
0.482923
0.337552
0.234362
0.164737
0.10957
0.0942573
0.159322
0.101215
0.107488
0.140484
0.159442
0.180961
0.196113
0.211874
0.224219
0.236791
0.247718
0.256744
0.26167
0.261994
0.256953
0.247114
0.234167
0.220311
0.207215
0.195824
0.186985
0.181981
0.180217
0.182396
0.188567
0.197391
0.208313
0.220306
0.233138
0.249739
0.2738
0.302024
0.342819
0.403719
0.482206
0.573925
0.676448
0.778759
0.876973
0.949469
0.979537
1.00927
1.03501
1.01471
0.940821
0.81475
0.653807
0.524213
0.426504
0.378128
0.357556
0.349047
0.337562
0.325925
0.304916
0.273726
0.228337
0.17913
0.135326
0.128517
0.220489
0.0796331
0.126913
0.21209
0.256776
0.29949
0.328496
0.356448
0.377998
0.397703
0.414584
0.426999
0.431266
0.425677
0.410168
0.38508
0.354182
0.321509
0.290919
0.265857
0.24562
0.230875
0.222588
0.222984
0.235165