/*--------------------------------*- C++ -*----------------------------------*\
| =========                 |                                                 |
| \\      /  F ield         | OpenFOAM: The Open Source CFD Toolbox           |
|  \\    /   O peration     | Version:  2.1.1                                 |
|   \\  /    A nd           | Web:      www.OpenFOAM.org                      |
|    \\/     M anipulation  |                                                 |
\*---------------------------------------------------------------------------*/
FoamFile
{
    version     2.0;
    format      ascii;
    class       volScalarField;
    location    "0.00135";
    object      Lzero;
}
// * * * * * * * * * * * * * * * * * * * * * * * * * * * * * * * * * * * * * //

dimensions      [0 1 0 0 0 0 0];

internalField   nonuniform List<scalar> 
36520
(
9.25431e-05
9.241e-05
9.24353e-05
9.24476e-05
9.2458e-05
9.24757e-05
9.25e-05
9.25244e-05
9.2538e-05
9.25346e-05
9.25221e-05
9.25188e-05
9.25469e-05
9.26196e-05
9.2734e-05
9.28794e-05
9.30398e-05
9.31939e-05
9.3294e-05
9.32671e-05
9.3199e-05
9.31092e-05
9.30335e-05
9.3026e-05
9.30425e-05
9.30647e-05
9.30956e-05
9.31184e-05
9.31459e-05
9.31759e-05
9.32005e-05
9.32303e-05
9.32636e-05
9.32994e-05
9.3336e-05
9.33722e-05
9.34058e-05
9.34366e-05
9.34696e-05
9.35134e-05
9.35735e-05
9.3646e-05
9.37114e-05
9.3752e-05
9.37802e-05
9.38335e-05
9.39538e-05
9.41655e-05
9.4542e-05
9.48721e-05
9.52416e-05
9.56193e-05
9.60355e-05
9.65397e-05
9.71632e-05
9.80676e-05
9.96055e-05
0.000103977
0.000113445
0.000121941
0.000194644
6.84389e-05
6.70618e-05
6.28659e-05
6.0159e-05
5.78214e-05
5.60852e-05
5.44367e-05
5.30774e-05
5.17401e-05
5.05092e-05
4.91649e-05
4.75973e-05
4.55362e-05
4.30074e-05
4.02002e-05
3.76722e-05
3.58571e-05
3.37532e-05
3.41399e-05
3.7468e-05
3.99835e-05
4.08929e-05
4.12554e-05
4.13879e-05
4.13854e-05
4.12733e-05
4.10602e-05
4.0744e-05
4.02581e-05
3.96674e-05
3.90381e-05
3.84637e-05
3.81022e-05
3.80742e-05
3.83747e-05
3.89075e-05
3.95407e-05
4.01956e-05
4.0928e-05
4.19273e-05
4.33985e-05
4.53773e-05
4.74318e-05
4.87312e-05
4.84867e-05
4.62704e-05
4.19683e-05
3.61964e-05
3.06259e-05
2.63293e-05
2.36132e-05
2.19497e-05
2.04556e-05
1.88573e-05
1.7332e-05
1.62855e-05
1.83082e-05
4.26614e-05
0.000239639
0.000194737
4.40723e-05
4.08508e-05
3.61699e-05
3.32787e-05
3.06255e-05
2.87069e-05
2.66925e-05
2.50687e-05
2.35173e-05
2.22022e-05
2.0804e-05
1.89644e-05
1.63104e-05
1.30635e-05
1.02359e-05
8.88907e-06
8.96718e-06
1.00026e-05
9.7187e-06
8.14227e-06
7.57759e-06
1.0489e-05
1.35302e-05
1.46303e-05
1.51333e-05
1.56917e-05
1.61156e-05
1.63089e-05
1.62526e-05
1.5955e-05
1.55319e-05
1.51108e-05
1.48543e-05
1.48494e-05
1.50696e-05
1.54685e-05
1.60364e-05
1.67757e-05
1.77473e-05
1.90285e-05
2.06809e-05
2.2679e-05
2.4791e-05
2.664e-05
2.7977e-05
2.88975e-05
2.97139e-05
3.08059e-05
3.22815e-05
3.37761e-05
3.49427e-05
3.46513e-05
3.24768e-05
2.98483e-05
2.79e-05
2.66872e-05
2.99638e-05
5.97448e-05
0.000223933
0.000194812
2.7669e-05
2.31985e-05
1.86079e-05
1.56396e-05
1.28594e-05
1.08807e-05
9.26018e-06
8.54645e-06
8.416e-06
8.86144e-06
9.64053e-06
1.08289e-05
1.25772e-05
1.5089e-05
1.83546e-05
2.20545e-05
2.54765e-05
2.81434e-05
2.65832e-05
2.12967e-05
1.49575e-05
1.11522e-05
1.02883e-05
1.03514e-05
1.04788e-05
1.05231e-05
1.06318e-05
1.08809e-05
1.12208e-05
1.15057e-05
1.17676e-05
1.20338e-05
1.22945e-05
1.25652e-05
1.29116e-05
1.33876e-05
1.40069e-05
1.47927e-05
1.57931e-05
1.69793e-05
1.82359e-05
1.96293e-05
2.11615e-05
2.28336e-05
2.45547e-05
2.63661e-05
2.85257e-05
3.14621e-05
3.58369e-05
4.17421e-05
4.67555e-05
4.9157e-05
4.68674e-05
4.24135e-05
3.84712e-05
3.6481e-05
3.82722e-05
6.22603e-05
0.000210548
0.000194998
1.32947e-05
9.25092e-06
7.00964e-06
6.85402e-06
7.51671e-06
8.8642e-06
1.07053e-05
1.29783e-05
1.56902e-05
1.87616e-05
2.24404e-05
2.71694e-05
3.33105e-05
4.09612e-05
4.96246e-05
5.8071e-05
6.42152e-05
6.64297e-05
6.23427e-05
5.28476e-05
4.10299e-05
3.23828e-05
2.94569e-05
2.94898e-05
2.9893e-05
2.96414e-05
2.91064e-05
2.85842e-05
2.84371e-05
2.89418e-05
3.01524e-05
3.13591e-05
3.19932e-05
3.17463e-05
3.07017e-05
2.93076e-05
2.79315e-05
2.65961e-05
2.44559e-05
2.16937e-05
1.95392e-05
1.95101e-05
2.1675e-05
2.31334e-05
2.46243e-05
2.6288e-05
2.82736e-05
3.08571e-05
3.4391e-05
4.05793e-05
4.75502e-05
5.25912e-05
5.54565e-05
5.61069e-05
5.27035e-05
4.74591e-05
4.50815e-05
5.36687e-05
0.000202632
0.000195347
6.80911e-06
7.89167e-06
9.97906e-06
1.27295e-05
1.6262e-05
2.057e-05
2.56304e-05
3.11744e-05
3.70395e-05
4.3128e-05
5.00444e-05
5.85081e-05
6.91709e-05
8.19038e-05
9.55822e-05
0.000108372
0.000116889
0.000118041
0.000112995
0.000103473
9.10224e-05
8.02689e-05
7.54955e-05
7.50313e-05
7.55411e-05
7.5276e-05
7.47011e-05
7.41129e-05
7.41943e-05
7.53903e-05
7.78145e-05
8.13254e-05
8.47249e-05
8.63368e-05
8.55138e-05
8.30683e-05
7.95361e-05
7.53653e-05
7.01015e-05
6.28987e-05
5.51122e-05
4.50734e-05
3.35333e-05
2.94226e-05
2.93842e-05
3.06708e-05
3.25994e-05
3.49765e-05
3.80841e-05
4.37953e-05
5.02656e-05
5.59983e-05
5.9122e-05
6.10221e-05
6.19468e-05
6.01498e-05
5.58322e-05
4.98759e-05
0.00019818
0.000195172
1.26765e-05
1.71904e-05
2.24926e-05
2.82427e-05
3.51426e-05
4.29843e-05
5.14862e-05
5.96799e-05
6.73529e-05
7.4313e-05
8.21129e-05
9.1507e-05
0.000103434
0.000117367
0.000132066
0.000146164
0.000155775
0.000158861
0.000157409
0.00015326
0.00014784
0.000142544
0.000138679
0.00013621
0.000134282
0.000132112
0.000129904
0.000127632
0.000125892
0.000125293
0.000126187
0.000128575
0.000131998
0.000135747
0.000138501
0.000139481
0.000137223
0.000132331
0.000125854
0.000117279
0.000107847
9.74795e-05
8.36507e-05
7.24978e-05
6.51431e-05
5.87828e-05
5.15441e-05
4.53458e-05
4.50439e-05
4.94514e-05
5.50053e-05
5.97567e-05
6.23841e-05
6.37894e-05
6.43342e-05
6.33397e-05
6.0914e-05
5.77079e-05
0.000197296
0.000194481
2.4266e-05
3.13409e-05
4.00189e-05
4.88798e-05
5.91884e-05
6.92648e-05
7.92443e-05
8.72153e-05
9.41894e-05
9.96655e-05
0.000105865
0.000113541
0.000123446
0.000134577
0.000145827
0.000157233
0.000167801
0.000176252
0.000181558
0.00018405
0.000184103
0.000182414
0.000179794
0.000176962
0.000173979
0.000170831
0.000167635
0.000164284
0.00016075
0.000157594
0.000155293
0.000154353
0.000154861
0.000156384
0.000158359
0.000160081
0.000160551
0.000159051
0.0001554
0.000149686
0.000142094
0.000133064
0.000122284
0.000110994
0.000100594
9.10344e-05
8.18936e-05
7.27431e-05
6.38635e-05
5.77396e-05
5.67153e-05
5.94374e-05
6.31803e-05
6.41469e-05
6.31007e-05
6.16204e-05
6.03486e-05
6.01433e-05
0.000196709
0.000194773
3.00141e-05
4.14911e-05
5.1622e-05
6.01447e-05
6.9552e-05
7.55747e-05
8.07145e-05
8.5489e-05
9.03071e-05
9.53442e-05
0.000100518
0.000106327
0.00011306
0.00012097
0.000129862
0.000138871
0.000147319
0.000154287
0.000159809
0.000163881
0.000166504
0.000168137
0.000169345
0.000170274
0.000170962
0.000171375
0.000171314
0.000170477
0.000169049
0.000166708
0.000163331
0.000159852
0.000157301
0.000156232
0.000156477
0.000157344
0.000158128
0.000158183
0.000157161
0.000154772
0.000150601
0.000144675
0.000137117
0.000128041
0.000117992
0.000107428
9.69827e-05
8.73886e-05
7.94842e-05
7.45518e-05
7.32365e-05
7.33948e-05
7.17045e-05
6.88474e-05
6.5331e-05
6.13877e-05
5.91717e-05
6.23872e-05
0.000196052
0.000194745
2.58191e-05
3.77858e-05
4.47442e-05
5.2749e-05
5.8553e-05
6.36964e-05
6.89232e-05
7.38984e-05
7.83037e-05
8.25647e-05
8.72936e-05
9.32239e-05
0.00010118
0.000111268
0.00012189
0.000131384
0.00013958
0.000146739
0.000152959
0.000158215
0.000162467
0.000165916
0.000169056
0.00017237
0.000176116
0.000180046
0.000183835
0.000186541
0.000186798
0.000184186
0.000179575
0.000174666
0.000170851
0.000168827
0.000168692
0.000169813
0.000171616
0.000173411
0.000174362
0.00017385
0.000171526
0.000167018
0.000160374
0.000151297
0.000139649
0.000125979
0.000111081
9.64255e-05
8.40494e-05
7.60999e-05
7.23317e-05
7.05407e-05
6.89355e-05
6.71585e-05
6.48855e-05
6.31526e-05
6.41393e-05
7.17655e-05
0.000195381
0.000194529
2.52799e-05
4.04471e-05
5.01331e-05
5.52721e-05
6.02762e-05
6.58945e-05
7.21207e-05
7.78755e-05
8.30574e-05
8.84451e-05
9.46759e-05
0.000102119
0.000110989
0.000121334
0.000131647
0.000140727
0.000148571
0.000155389
0.000161668
0.000167564
0.000173061
0.000178043
0.000182535
0.000186598
0.000190196
0.000193421
0.000196174
0.000198077
0.000198558
0.000197091
0.000193424
0.000188101
0.000183394
0.000180522
0.000179873
0.000180822
0.000182503
0.000184177
0.000185116
0.000184918
0.000183239
0.000179914
0.000174856
0.000167447
0.000156971
0.000143028
0.000125639
0.000105943
8.72286e-05
7.47751e-05
6.98509e-05
6.88889e-05
6.82091e-05
6.69736e-05
6.5206e-05
6.35881e-05
6.35277e-05
6.78805e-05
0.000195718
0.000194817
2.77884e-05
3.58049e-05
4.33112e-05
4.98928e-05
5.88656e-05
6.71228e-05
7.51166e-05
8.12471e-05
8.57857e-05
9.10902e-05
9.83089e-05
0.000106663
0.000116035
0.00012549
0.000133865
0.000140765
0.000146991
0.000153365
0.000160188
0.000167711
0.000175271
0.000181993
0.000187186
0.000190745
0.000193382
0.000195644
0.00019769
0.000199412
0.000200452
0.000200114
0.000197629
0.000192579
0.000186183
0.000181828
0.000180118
0.000180502
0.000181763
0.000183233
0.000184109
0.000183683
0.000181348
0.000176899
0.000170927
0.000162813
0.000151222
0.000135231
0.00011451
9.10281e-05
6.93859e-05
5.76858e-05
5.74882e-05
6.36715e-05
6.78166e-05
6.90178e-05
6.92754e-05
6.80876e-05
6.61867e-05
6.49296e-05
0.000196543
0.000194628
2.80835e-05
3.25806e-05
3.8856e-05
4.52963e-05
5.49624e-05
6.42866e-05
7.38394e-05
8.16591e-05
8.66873e-05
8.97728e-05
9.35156e-05
9.99908e-05
0.000108813
0.000117738
0.00012516
0.000131932
0.000138796
0.000146262
0.000154319
0.000163045
0.000172572
0.000181805
0.000188677
0.000193016
0.000195888
0.000198039
0.000199626
0.000200622
0.000200872
0.000199822
0.000196717
0.0001914
0.00018526
0.000181336
0.000179748
0.000179945
0.000180966
0.000181914
0.000181676
0.000179735
0.000176421
0.000171351
0.000163917
0.000152992
0.000136917
0.000115252
9.23428e-05
7.23426e-05
5.86943e-05
5.489e-05
6.12925e-05
6.9932e-05
7.43594e-05
7.60756e-05
7.56835e-05
7.32216e-05
6.98237e-05
6.66685e-05
0.000196968
0.000194467
2.64595e-05
3.81626e-05
4.43732e-05
4.88325e-05
5.66519e-05
6.47622e-05
7.24352e-05
7.83256e-05
8.14045e-05
8.30488e-05
8.32436e-05
8.38636e-05
8.7421e-05
9.36801e-05
0.000101078
0.000109035
0.000118175
0.00012834
0.000139214
0.000150859
0.000163476
0.000176642
0.0001881
0.000195798
0.000200342
0.000203062
0.000204534
0.000204666
0.00020311
0.000199843
0.000194947
0.000188751
0.000184051
0.000181919
0.000181724
0.000182734
0.000184012
0.000184849
0.000184476
0.000182215
0.000178014
0.000171958
0.000164081
0.000153732
0.000139689
0.000120426
9.7673e-05
7.66677e-05
6.25827e-05
5.76532e-05
6.04035e-05
6.50885e-05
6.87543e-05
7.08799e-05
7.13694e-05
7.11e-05
7.05268e-05
7.07284e-05
0.000196192
0.00019471
2.02653e-05
3.23625e-05
4.01437e-05
4.51524e-05
5.00225e-05
5.38343e-05
5.63733e-05
5.83067e-05
6.13944e-05
6.61938e-05
7.21624e-05
7.82549e-05
8.43024e-05
9.14453e-05
9.99428e-05
0.000108005
0.000114371
0.000120484
0.000127636
0.000137365
0.000149592
0.000163799
0.00017787
0.000189024
0.000195405
0.000197909
0.000197742
0.000195706
0.000192165
0.000187027
0.000181362
0.000176733
0.000173795
0.000172342
0.000171935
0.000171769
0.000171141
0.000169572
0.000166184
0.000160797
0.000154053
0.000146127
0.000137171
0.000126877
0.000114521
0.000100278
8.52261e-05
7.18489e-05
6.26072e-05
5.89704e-05
5.95857e-05
6.13839e-05
6.29708e-05
6.4576e-05
6.65193e-05
6.86419e-05
7.05136e-05
7.22413e-05
0.000196457
0.000195037
2.39594e-05
3.42552e-05
4.41346e-05
5.22114e-05
5.90807e-05
6.50878e-05
6.99943e-05
7.53755e-05
8.26603e-05
9.05244e-05
9.66137e-05
0.000101775
0.000108662
0.000117099
0.000126165
0.000134635
0.000142092
0.000148976
0.000154703
0.000159224
0.000164742
0.00017272
0.000180584
0.000185997
0.00018882
0.000189123
0.000187278
0.000183708
0.000179104
0.000174508
0.000170636
0.000167823
0.000165973
0.000164701
0.000163519
0.000162013
0.000159569
0.000155705
0.000150081
0.000143203
0.000135451
0.000127064
0.000118198
0.000109121
9.98115e-05
9.00436e-05
8.02382e-05
7.15837e-05
6.5608e-05
6.31118e-05
6.35316e-05
6.48317e-05
6.53164e-05
6.61916e-05
6.75658e-05
6.91629e-05
7.07787e-05
7.26356e-05
0.000196679
0.000194923
2.34384e-05
3.15429e-05
4.14357e-05
5.20651e-05
6.28504e-05
7.4145e-05
8.55428e-05
9.22258e-05
9.43167e-05
9.60816e-05
9.85338e-05
0.000103826
0.000113138
0.000125634
0.000139292
0.000151366
0.00015994
0.000165714
0.000169527
0.000171775
0.000174089
0.000177748
0.000181963
0.000184339
0.000184414
0.000182215
0.000178134
0.000173181
0.000168515
0.000164943
0.000162465
0.000160893
0.000160353
0.000160922
0.000162033
0.00016199
0.000160233
0.000156568
0.000150884
0.00014327
0.000133809
0.000122963
0.000111478
0.000100441
9.10574e-05
8.30108e-05
7.59301e-05
7.04079e-05
6.72307e-05
6.67098e-05
6.94106e-05
7.13779e-05
7.05149e-05
6.79633e-05
6.51055e-05
6.32306e-05
6.27539e-05
6.33799e-05
0.000197192
0.0001954
1.14761e-05
1.57405e-05
2.08122e-05
2.67496e-05
3.3606e-05
4.11991e-05
4.89984e-05
5.56036e-05
5.9707e-05
6.2239e-05
6.5799e-05
7.18704e-05
8.10591e-05
9.32942e-05
0.000106826
0.000118804
0.000127918
0.00013449
0.000139671
0.000143836
0.000147131
0.000148839
0.000147615
0.000144069
0.000139688
0.000133957
0.000127019
0.000119758
0.000113278
0.000106773
0.000100307
9.53085e-05
9.35946e-05
9.44064e-05
9.67515e-05
0.000100759
0.000103028
0.00010274
9.94185e-05
9.37885e-05
8.82597e-05
8.20466e-05
7.59758e-05
7.02447e-05
6.59574e-05
6.3265e-05
6.17547e-05
6.25718e-05
6.59068e-05
7.01541e-05
7.31014e-05
7.31086e-05
7.09028e-05
6.77221e-05
6.44954e-05
6.13657e-05
5.85684e-05
5.61194e-05
0.000197903
0.000195046
6.98289e-06
7.48836e-06
9.3965e-06
1.19493e-05
1.49032e-05
1.81338e-05
2.13377e-05
2.42652e-05
2.62487e-05
2.80693e-05
3.0352e-05
3.38973e-05
3.91128e-05
4.59474e-05
5.38121e-05
6.1656e-05
6.88313e-05
7.53798e-05
8.16585e-05
8.72463e-05
8.95761e-05
8.75177e-05
8.21001e-05
7.6134e-05
7.03778e-05
6.38519e-05
5.63503e-05
4.87722e-05
4.21798e-05
3.61448e-05
3.17312e-05
3.07244e-05
3.10136e-05
3.17995e-05
3.28204e-05
3.3838e-05
3.42849e-05
3.41001e-05
3.34508e-05
3.28393e-05
3.30567e-05
3.33064e-05
3.42308e-05
3.65003e-05
3.97193e-05
4.38614e-05
4.81722e-05
5.26686e-05
5.78907e-05
6.32317e-05
6.71401e-05
6.7034e-05
6.50233e-05
6.31635e-05
6.0557e-05
5.62049e-05
5.12809e-05
4.65813e-05
0.000198936
0.000194576
1.52945e-05
9.0044e-06
6.23942e-06
5.90099e-06
6.27025e-06
7.06608e-06
7.9492e-06
8.79375e-06
9.42121e-06
1.00272e-05
1.07941e-05
1.20016e-05
1.37919e-05
1.62235e-05
1.91887e-05
2.25158e-05
2.60789e-05
2.98681e-05
3.39772e-05
3.81286e-05
3.91352e-05
3.69397e-05
3.32558e-05
2.98036e-05
2.65867e-05
2.31362e-05
1.95659e-05
1.66565e-05
1.5028e-05
1.47295e-05
1.54562e-05
1.59335e-05
1.65406e-05
1.72872e-05
1.81204e-05
1.8956e-05
1.97078e-05
2.03608e-05
2.09839e-05
2.1753e-05
2.29126e-05
2.46583e-05
2.71643e-05
3.05112e-05
3.45305e-05
3.91498e-05
4.4325e-05
4.99406e-05
5.57194e-05
5.89857e-05
5.77932e-05
5.44245e-05
5.06915e-05
4.92473e-05
4.88451e-05
4.70213e-05
4.36091e-05
4.19111e-05
0.000200777
0.000194513
2.8376e-05
2.11507e-05
1.62107e-05
1.34889e-05
1.09425e-05
9.22344e-06
7.95067e-06
7.46661e-06
7.36306e-06
7.44917e-06
7.32554e-06
6.94545e-06
6.50403e-06
6.34558e-06
6.65367e-06
7.38419e-06
8.43473e-06
9.7715e-06
1.14507e-05
1.30469e-05
1.33947e-05
1.26192e-05
1.15875e-05
1.07346e-05
1.00679e-05
9.67564e-06
9.92118e-06
1.10331e-05
1.24571e-05
1.35125e-05
1.39617e-05
1.41413e-05
1.42994e-05
1.44689e-05
1.46841e-05
1.4984e-05
1.54079e-05
1.60104e-05
1.68881e-05
1.81874e-05
2.0053e-05
2.25892e-05
2.58356e-05
2.98037e-05
3.43814e-05
3.96264e-05
4.4988e-05
4.97823e-05
5.15327e-05
5.06024e-05
4.71468e-05
4.22603e-05
3.80449e-05
3.64622e-05
3.6506e-05
3.64713e-05
3.62687e-05
4.08637e-05
0.000204274
0.000194662
4.47878e-05
3.78383e-05
3.18809e-05
2.8678e-05
2.58042e-05
2.39554e-05
2.23154e-05
2.14223e-05
2.08168e-05
2.03947e-05
1.96784e-05
1.85162e-05
1.69147e-05
1.50289e-05
1.3039e-05
1.09625e-05
8.99165e-06
7.69565e-06
7.27332e-06
7.34327e-06
7.79662e-06
8.67279e-06
9.9168e-06
1.13781e-05
1.3083e-05
1.49058e-05
1.63847e-05
1.71475e-05
1.7373e-05
1.73382e-05
1.7158e-05
1.67312e-05
1.61353e-05
1.54996e-05
1.498e-05
1.47374e-05
1.48857e-05
1.54624e-05
1.64704e-05
1.7939e-05
1.99376e-05
2.25644e-05
2.58944e-05
3.00189e-05
3.48997e-05
4.03829e-05
4.59163e-05
4.91746e-05
4.87309e-05
4.54176e-05
4.02627e-05
3.42566e-05
2.88751e-05
2.53042e-05
2.32211e-05
2.22708e-05
2.40338e-05
4.44549e-05
0.000214002
0.000194702
7.00869e-05
6.53493e-05
6.01855e-05
5.7186e-05
5.45922e-05
5.28449e-05
5.12192e-05
4.99815e-05
4.8818e-05
4.76738e-05
4.63171e-05
4.46151e-05
4.25753e-05
4.03958e-05
3.84811e-05
3.72806e-05
3.70632e-05
3.74154e-05
3.74846e-05
3.77391e-05
3.82665e-05
3.8986e-05
3.9774e-05
4.05554e-05
4.12948e-05
4.19563e-05
4.25036e-05
4.29016e-05
4.31498e-05
4.32226e-05
4.30512e-05
4.26633e-05
4.19903e-05
4.0961e-05
3.95877e-05
3.80254e-05
3.65089e-05
3.51399e-05
3.38675e-05
3.25745e-05
3.12087e-05
2.98768e-05
2.85615e-05
2.76038e-05
2.76867e-05
2.84702e-05
2.89227e-05
2.78999e-05
2.56118e-05
2.2664e-05
1.97926e-05
1.7509e-05
1.59569e-05
1.50289e-05
1.43036e-05
1.39276e-05
1.63195e-05
3.76196e-05
0.000231379
9.6786e-05
9.67381e-05
9.67513e-05
9.67746e-05
9.67928e-05
9.68147e-05
9.6834e-05
9.68447e-05
9.68433e-05
9.6837e-05
9.68395e-05
9.68638e-05
9.69151e-05
9.69896e-05
9.70798e-05
9.71769e-05
9.7273e-05
9.73608e-05
9.74365e-05
9.74644e-05
9.74588e-05
9.7453e-05
9.74657e-05
9.74849e-05
9.74881e-05
9.75019e-05
9.75154e-05
9.75259e-05
9.75349e-05
9.75473e-05
9.75681e-05
9.75918e-05
9.76165e-05
9.76483e-05
9.76844e-05
9.77213e-05
9.77579e-05
9.7794e-05
9.78302e-05
9.7868e-05
9.79082e-05
9.79499e-05
9.79918e-05
9.80419e-05
9.81296e-05
9.83188e-05
9.85798e-05
9.88463e-05
9.91441e-05
9.94578e-05
9.97971e-05
0.000100214
0.000100728
0.0001014
0.000102287
0.00010362
0.000105989
0.000111451
0.000121954
0.000127262
9.71718e-05
9.71194e-05
9.71478e-05
9.71765e-05
9.71876e-05
9.72e-05
9.72113e-05
9.72208e-05
9.72318e-05
9.72439e-05
9.72639e-05
9.72917e-05
9.73292e-05
9.73729e-05
9.74227e-05
9.74758e-05
9.7531e-05
9.75862e-05
9.76397e-05
9.76927e-05
9.77465e-05
9.78036e-05
9.78662e-05
9.7928e-05
9.79346e-05
9.79408e-05
9.79468e-05
9.7952e-05
9.79563e-05
9.79613e-05
9.79698e-05
9.7985e-05
9.80078e-05
9.8035e-05
9.80625e-05
9.80886e-05
9.81134e-05
9.81388e-05
9.81666e-05
9.82005e-05
9.82404e-05
9.82827e-05
9.83208e-05
9.83606e-05
9.84474e-05
9.86184e-05
9.88509e-05
9.90672e-05
9.93138e-05
9.95993e-05
9.99259e-05
0.000100309
0.000100756
0.000101309
0.000101998
0.000102953
0.000104532
0.000107916
0.000114268
0.000121503
0.000194702
6.70954e-05
6.33161e-05
5.80684e-05
5.46042e-05
5.1926e-05
5.02492e-05
4.8788e-05
4.77856e-05
4.68444e-05
4.60334e-05
4.51695e-05
4.43656e-05
4.3481e-05
4.2677e-05
4.1907e-05
4.1309e-05
4.09073e-05
4.06954e-05
4.06326e-05
4.06831e-05
4.07955e-05
4.09362e-05
4.10863e-05
4.12482e-05
4.14426e-05
4.16572e-05
4.18898e-05
4.21241e-05
4.23431e-05
4.25213e-05
4.26196e-05
4.26003e-05
4.24155e-05
4.19705e-05
4.12323e-05
4.03578e-05
3.9471e-05
3.86686e-05
3.80135e-05
3.74044e-05
3.65067e-05
3.49108e-05
3.25386e-05
2.98092e-05
2.73346e-05
2.50313e-05
2.29646e-05
2.11191e-05
1.95703e-05
1.83473e-05
1.74106e-05
1.66605e-05
1.6028e-05
1.54612e-05
1.49846e-05
1.48853e-05
1.70909e-05
3.28776e-05
0.000227506
0.0001947
4.05177e-05
3.43257e-05
2.84208e-05
2.47863e-05
2.19347e-05
2.0325e-05
1.89024e-05
1.81522e-05
1.75067e-05
1.71023e-05
1.67318e-05
1.64375e-05
1.61149e-05
1.58701e-05
1.56365e-05
1.5489e-05
1.5409e-05
1.53478e-05
1.52671e-05
1.51206e-05
1.49116e-05
1.4658e-05
1.43579e-05
1.40147e-05
1.36237e-05
1.34285e-05
1.34838e-05
1.38082e-05
1.42466e-05
1.4586e-05
1.46766e-05
1.46441e-05
1.45504e-05
1.44346e-05
1.43839e-05
1.4483e-05
1.4789e-05
1.53287e-05
1.61139e-05
1.71748e-05
1.85342e-05
2.02031e-05
2.22207e-05
2.46188e-05
2.73008e-05
3.03537e-05
3.19127e-05
3.17531e-05
3.06024e-05
2.90097e-05
2.73211e-05
2.59367e-05
2.50063e-05
2.44699e-05
2.41251e-05
2.40558e-05
2.57916e-05
3.95356e-05
0.000213526
0.000194712
2.4855e-05
1.82694e-05
1.36213e-05
1.11922e-05
9.35897e-06
8.36297e-06
7.40137e-06
6.82934e-06
6.29597e-06
5.98148e-06
5.75275e-06
5.64615e-06
5.64502e-06
5.80419e-06
6.09845e-06
6.52979e-06
7.07046e-06
7.67862e-06
8.32073e-06
8.96481e-06
9.57036e-06
1.01096e-05
1.05795e-05
1.09947e-05
1.1366e-05
1.16408e-05
1.1764e-05
1.18374e-05
1.19126e-05
1.21137e-05
1.24372e-05
1.29197e-05
1.35441e-05
1.42605e-05
1.50534e-05
1.59505e-05
1.70069e-05
1.8268e-05
1.96906e-05
2.14203e-05
2.36642e-05
2.6698e-05
3.07317e-05
3.59313e-05
4.23637e-05
5.00195e-05
5.80744e-05
6.49932e-05
6.73513e-05
6.47108e-05
5.78814e-05
5.04923e-05
4.45189e-05
4.06418e-05
3.8379e-05
3.66008e-05
3.52655e-05
3.68797e-05
0.000204804
0.000194974
1.52994e-05
9.24243e-06
5.72045e-06
4.38281e-06
3.86759e-06
3.96955e-06
4.28951e-06
4.84157e-06
5.55578e-06
6.48461e-06
7.68525e-06
9.28461e-06
1.13721e-05
1.40474e-05
1.7337e-05
2.11399e-05
2.51535e-05
2.90558e-05
3.26133e-05
3.58274e-05
3.83521e-05
3.98054e-05
4.03477e-05
4.03074e-05
3.96581e-05
3.82288e-05
3.57647e-05
3.24923e-05
2.89447e-05
2.56287e-05
2.29663e-05
2.09113e-05
1.94243e-05
1.87014e-05
1.87683e-05
1.94703e-05
2.05316e-05
2.16983e-05
2.28849e-05
2.43964e-05
2.64077e-05
2.91743e-05
3.30475e-05
3.81703e-05
4.46757e-05
5.32213e-05
6.47982e-05
7.86211e-05
8.76904e-05
8.808e-05
8.23204e-05
7.25809e-05
6.09275e-05
5.21367e-05
4.90906e-05
4.79233e-05
4.51015e-05
4.12897e-05
0.000201204
0.00019504
6.05487e-06
3.46705e-06
3.34216e-06
3.95503e-06
4.84866e-06
6.01132e-06
7.47558e-06
9.3411e-06
1.1692e-05
1.47736e-05
1.8882e-05
2.44242e-05
3.16896e-05
4.07975e-05
5.15229e-05
6.31932e-05
7.46774e-05
8.48075e-05
9.31353e-05
9.99272e-05
0.000105043
0.000108
0.000109195
0.000108899
0.000107287
0.00010403
9.88131e-05
9.18465e-05
8.42534e-05
7.73181e-05
7.16968e-05
6.64798e-05
6.13854e-05
5.64232e-05
5.12725e-05
4.598e-05
4.07216e-05
3.6222e-05
3.2683e-05
3.01753e-05
2.82259e-05
2.87628e-05
3.14016e-05
3.54502e-05
4.10869e-05
4.8893e-05
5.98286e-05
7.40469e-05
8.65064e-05
9.41605e-05
9.27242e-05
8.50104e-05
7.3403e-05
6.25552e-05
5.67692e-05
5.31951e-05
4.84826e-05
4.45821e-05
0.00019994
0.000195291
4.37717e-06
5.22403e-06
6.52506e-06
8.0974e-06
1.01413e-05
1.28998e-05
1.66484e-05
2.16227e-05
2.79452e-05
3.56641e-05
4.5063e-05
5.64493e-05
6.98821e-05
8.50349e-05
0.000101011
0.000116855
0.000131771
0.000144469
0.000154429
0.000162158
0.000167732
0.000171594
0.000174034
0.000175168
0.000175046
0.00017348
0.000170179
0.000164953
0.000158422
0.000151659
0.000145662
0.000141228
0.00013797
0.000135613
0.000133049
0.000129376
0.000123214
0.000114466
0.000101226
8.85749e-05
7.45385e-05
5.91156e-05
4.68524e-05
4.14062e-05
4.17916e-05
4.60829e-05
5.42212e-05
6.54014e-05
7.62314e-05
8.54655e-05
8.92527e-05
8.72398e-05
8.19366e-05
7.42438e-05
6.67325e-05
5.94015e-05
5.2513e-05
4.89252e-05
0.00019802
0.000195856
1.01869e-05
1.38114e-05
1.83037e-05
2.30735e-05
2.84929e-05
3.48456e-05
4.25459e-05
5.20177e-05
6.34989e-05
7.55559e-05
8.77609e-05
0.000100387
0.000113922
0.00012805
0.000141703
0.000154757
0.000167128
0.000177316
0.000185496
0.000191965
0.000196982
0.000200719
0.000203407
0.000205199
0.00020617
0.000206095
0.000204959
0.000202693
0.000199221
0.000194676
0.000189386
0.000184837
0.000181909
0.000180404
0.000179793
0.000179544
0.000178874
0.000177043
0.000172463
0.000163975
0.00015171
0.000135835
0.00011766
9.86548e-05
8.07506e-05
6.62344e-05
6.02284e-05
6.24866e-05
6.86937e-05
7.5719e-05
8.04933e-05
8.01901e-05
7.76252e-05
7.3549e-05
6.76416e-05
6.12583e-05
5.61528e-05
5.54937e-05
0.000195769
0.000194856
2.66192e-05
3.63894e-05
4.63741e-05
5.62806e-05
6.59239e-05
7.5304e-05
8.39239e-05
9.29015e-05
0.000105064
0.000114549
0.00012216
0.000128405
0.000134995
0.000142715
0.000151261
0.000160271
0.000169371
0.000177984
0.000185698
0.000192367
0.000197948
0.000202378
0.000205703
0.000208039
0.000209564
0.000210357
0.00021066
0.000210503
0.000209752
0.000208345
0.000206343
0.000203825
0.000201417
0.000199801
0.000199041
0.000198752
0.000198349
0.000197157
0.000194296
0.000189103
0.000181469
0.000171986
0.000160877
0.000147744
0.00013265
0.000116372
0.000100872
8.81515e-05
7.94799e-05
7.50609e-05
7.42969e-05
7.48665e-05
7.34786e-05
7.05018e-05
6.63229e-05
6.20131e-05
5.94273e-05
6.14786e-05
0.000195175
0.000195626
3.37655e-05
4.76515e-05
6.0545e-05
7.45325e-05
8.5083e-05
9.28007e-05
9.97209e-05
0.000107375
0.000116223
0.000124182
0.000129749
0.000132228
0.000133327
0.000136554
0.000141855
0.000148112
0.000154684
0.000161209
0.000167495
0.000173388
0.000178787
0.000183471
0.000187241
0.000190002
0.000191809
0.000192823
0.000193214
0.000193252
0.000193004
0.000192288
0.000190765
0.000188869
0.0001872
0.000185937
0.000185191
0.000184898
0.000184455
0.000183142
0.000180292
0.000175497
0.000168491
0.000159442
0.000148588
0.000135967
0.000122107
0.000107723
9.3699e-05
8.17145e-05
7.36825e-05
6.98384e-05
6.86223e-05
6.75359e-05
6.59283e-05
6.42556e-05
6.29347e-05
6.29969e-05
6.60748e-05
7.4692e-05
0.000195243
0.00019513
2.71851e-05
4.75577e-05
5.94976e-05
7.09056e-05
8.12034e-05
8.9438e-05
9.5929e-05
0.000102033
0.000108619
0.000115022
0.00012065
0.000126091
0.000131731
0.000136777
0.00014056
0.000145106
0.000150326
0.000155526
0.000160185
0.000164305
0.000168195
0.000171781
0.00017462
0.000176392
0.000177014
0.000176605
0.000175344
0.000173523
0.000171355
0.000168729
0.000165643
0.000162602
0.000160018
0.000158171
0.000157533
0.000158041
0.00015926
0.000160389
0.000160376
0.000158507
0.000154412
0.0001476
0.000138023
0.000126268
0.000113056
9.89085e-05
8.44359e-05
7.16559e-05
6.2938e-05
5.83422e-05
5.6316e-05
5.53548e-05
5.54731e-05
5.68476e-05
5.98648e-05
6.48942e-05
7.21037e-05
8.18042e-05
0.000195054
0.000194688
2.35387e-05
3.52523e-05
4.18548e-05
4.67977e-05
5.00867e-05
5.1689e-05
5.36727e-05
5.70133e-05
6.1836e-05
6.83653e-05
7.71918e-05
8.88675e-05
0.000103095
0.000118654
0.000133162
0.000144424
0.000152245
0.000158067
0.000163116
0.000167255
0.000170433
0.000172757
0.000174233
0.00017483
0.000174485
0.000173092
0.000170612
0.000167185
0.000163181
0.00015913
0.000155363
0.000151984
0.000149285
0.000147831
0.000147923
0.000149336
0.000151585
0.000153727
0.000154867
0.000154026
0.000150261
0.000142545
0.000130786
0.000115656
9.82815e-05
8.12072e-05
6.6369e-05
5.5457e-05
4.9774e-05
4.78593e-05
4.76618e-05
4.84668e-05
5.07015e-05
5.45529e-05
5.96734e-05
6.56496e-05
7.20225e-05
7.83822e-05
0.000195484
0.000194425
2.44217e-05
4.03473e-05
4.94293e-05
5.57823e-05
6.16628e-05
6.63462e-05
7.00912e-05
7.30661e-05
7.5593e-05
7.83896e-05
8.3737e-05
9.3215e-05
0.000106049
0.00011931
0.000130294
0.000139661
0.000148138
0.000155542
0.000161764
0.000166855
0.000170839
0.00017389
0.000176208
0.000177897
0.000178822
0.000178722
0.000177392
0.000174673
0.000170627
0.000165885
0.000161383
0.000157638
0.000154866
0.000153555
0.000153888
0.000155421
0.00015744
0.000159218
0.000159712
0.000158034
0.000153205
0.000144235
0.000131134
0.000115
9.763e-05
8.08076e-05
6.57045e-05
5.41106e-05
4.7346e-05
4.53893e-05
4.52307e-05
4.42331e-05
4.61745e-05
5.10665e-05
5.69171e-05
6.31233e-05
6.93103e-05
7.51101e-05
0.000195447
0.000194465
2.57582e-05
4.08867e-05
5.09653e-05
5.81875e-05
6.61894e-05
7.21744e-05
7.68196e-05
8.05069e-05
8.3964e-05
8.73095e-05
9.1026e-05
9.73221e-05
0.000107177
0.000118422
0.000127878
0.000136995
0.000146448
0.000155607
0.000163629
0.000170649
0.000176834
0.000182338
0.000187129
0.000190922
0.000193574
0.000195001
0.000195076
0.000193632
0.000190644
0.000186682
0.000182747
0.000179161
0.00017597
0.000174022
0.000173916
0.000175132
0.000176674
0.000177426
0.00017663
0.000173542
0.000167387
0.000157787
0.000144767
0.000128743
0.000110937
9.27068e-05
7.56108e-05
6.24258e-05
5.4923e-05
5.22644e-05
5.22018e-05
5.3169e-05
5.44681e-05
5.67414e-05
5.96092e-05
6.30424e-05
6.71564e-05
7.29663e-05
0.000195329
0.000194305
3.80101e-05
4.64892e-05
5.23468e-05
5.91779e-05
6.74339e-05
7.49941e-05
8.14481e-05
8.69086e-05
9.15677e-05
9.62182e-05
0.000101227
0.00010777
0.000118003
0.000130314
0.000142538
0.000154086
0.000165282
0.000175638
0.000184822
0.000193042
0.000200098
0.000205733
0.000209994
0.000213138
0.000215224
0.000216108
0.000215655
0.000213865
0.000210809
0.000206638
0.000201588
0.000196534
0.000192407
0.000189902
0.000189189
0.000189323
0.000189021
0.000187202
0.000183181
0.000176632
0.00016746
0.000155312
0.000140074
0.000122321
0.000104254
8.73098e-05
7.2333e-05
6.07404e-05
5.35313e-05
5.13363e-05
5.43725e-05
6.09994e-05
6.64906e-05
6.86854e-05
6.91956e-05
6.92222e-05
6.90035e-05
6.96467e-05
0.000195857
0.000194893
4.12264e-05
4.45302e-05
5.19717e-05
6.03278e-05
6.90503e-05
7.82729e-05
8.68089e-05
9.51396e-05
0.000102429
0.000109668
0.000117901
0.000127826
0.000139208
0.000152158
0.000165896
0.000179043
0.000190246
0.000198943
0.000206098
0.00021169
0.000216118
0.000219867
0.000222944
0.000225409
0.000227162
0.000228049
0.000227811
0.000226111
0.00022277
0.000217628
0.000210768
0.000203764
0.000198994
0.000196503
0.000195345
0.000194914
0.000193803
0.000190463
0.000183757
0.000173327
0.000158788
0.000141154
0.00012125
0.000101175
8.42483e-05
7.07941e-05
6.02023e-05
5.28696e-05
5.00536e-05
5.2859e-05
6.15049e-05
7.21558e-05
7.85878e-05
8.05492e-05
7.94534e-05
7.64509e-05
7.24263e-05
6.79721e-05
0.000197181
0.000195063
3.4702e-05
4.6221e-05
5.86688e-05
6.92121e-05
8.04095e-05
9.07812e-05
0.000100698
0.000109874
0.00011975
0.000130199
0.000140062
0.000150173
0.000160082
0.000170071
0.000180167
0.000189784
0.000197898
0.000203946
0.000208544
0.000212372
0.000215957
0.000219217
0.000222122
0.000224623
0.000226746
0.000228216
0.000228496
0.000227306
0.000224287
0.000219494
0.000213744
0.000208875
0.000205621
0.000203413
0.000202017
0.000200946
0.000199023
0.000195224
0.000188485
0.000178577
0.000165668
0.000148747
0.000127489
0.00010357
8.24254e-05
6.62698e-05
5.72056e-05
5.39926e-05
5.5722e-05
6.20218e-05