/*--------------------------------*- C++ -*----------------------------------*\
| =========                 |                                                 |
| \\      /  F ield         | OpenFOAM: The Open Source CFD Toolbox           |
|  \\    /   O peration     | Version:  2.1.1                                 |
|   \\  /    A nd           | Web:      www.OpenFOAM.org                      |
|    \\/     M anipulation  |                                                 |
\*---------------------------------------------------------------------------*/
FoamFile
{
    version     2.0;
    format      ascii;
    class       volScalarField;
    location    "0.00135";
    object      nut;
}
// * * * * * * * * * * * * * * * * * * * * * * * * * * * * * * * * * * * * * //

dimensions      [0 2 -1 0 0 0 0];

internalField   nonuniform List<scalar> 
36520
(
9.59794e-06
1.28531e-05
1.78032e-05
1.98933e-05
2.15744e-05
2.27575e-05
2.37156e-05
2.44491e-05
2.50306e-05
2.55173e-05
2.59423e-05
2.63668e-05
2.6742e-05
2.70292e-05
2.71159e-05
2.69566e-05
2.65053e-05
2.57684e-05
2.47759e-05
2.37097e-05
2.27011e-05
2.18039e-05
2.10215e-05
2.03023e-05
1.95713e-05
1.88403e-05
1.80937e-05
1.73513e-05
1.66139e-05
1.5884e-05
1.51633e-05
1.44535e-05
1.37456e-05
1.3048e-05
1.23717e-05
1.17342e-05
1.11515e-05
1.06393e-05
1.02162e-05
9.91616e-06
9.79185e-06
9.91731e-06
1.0372e-05
1.11712e-05
1.22205e-05
1.3349e-05
1.43648e-05
1.50642e-05
1.47824e-05
1.36708e-05
1.20027e-05
1.00403e-05
8.07956e-06
6.31334e-06
4.85839e-06
3.77816e-06
3.043e-06
2.72496e-06
3.31767e-06
5.32135e-06
1.66222e-05
7.05369e-06
7.80129e-06
7.35123e-06
7.1327e-06
6.85062e-06
6.65463e-06
6.40778e-06
6.22786e-06
6.06518e-06
5.9632e-06
5.83455e-06
5.6115e-06
5.19208e-06
4.57752e-06
3.8351e-06
3.11486e-06
2.58238e-06
2.295e-06
2.25187e-06
2.3716e-06
2.44183e-06
2.41552e-06
2.35142e-06
2.27357e-06
2.19782e-06
2.1282e-06
2.06041e-06
1.99526e-06
1.9286e-06
1.84125e-06
1.73306e-06
1.61744e-06
1.51486e-06
1.44101e-06
1.40031e-06
1.39332e-06
1.41686e-06
1.47077e-06
1.56684e-06
1.729e-06
1.99045e-06
2.38359e-06
2.90136e-06
3.4688e-06
3.96119e-06
4.25298e-06
4.25615e-06
3.83762e-06
3.29352e-06
2.80114e-06
2.40741e-06
2.07084e-06
1.6985e-06
1.30505e-06
9.94039e-07
7.79163e-07
7.86e-07
2.15947e-06
1.89418e-05
1.18068e-05
2.58646e-06
2.49643e-06
2.07657e-06
1.85306e-06
1.63014e-06
1.48388e-06
1.32191e-06
1.21227e-06
1.12231e-06
1.06784e-06
1.0126e-06
9.22756e-07
7.72221e-07
5.93835e-07
4.6089e-07
4.30397e-07
5.02304e-07
6.70648e-07
6.25938e-07
3.79183e-07
2.18103e-07
2.19281e-07
2.51753e-07
2.60084e-07
2.63452e-07
2.70536e-07
2.77064e-07
2.81546e-07
2.8403e-07
2.8233e-07
2.76107e-07
2.69808e-07
2.68951e-07
2.76571e-07
2.92781e-07
3.17523e-07
3.5223e-07
3.99652e-07
4.66408e-07
5.63553e-07
7.07419e-07
9.17668e-07
1.20671e-06
1.5718e-06
2.00557e-06
2.52509e-06
3.17901e-06
4.05974e-06
5.06533e-06
5.9797e-06
6.59181e-06
6.38746e-06
5.15623e-06
3.74246e-06
2.76672e-06
2.13185e-06
2.07824e-06
4.47789e-06
2.50498e-05
8.49473e-06
9.31194e-07
7.40103e-07
5.26591e-07
4.18871e-07
3.27571e-07
2.76343e-07
2.40388e-07
2.40694e-07
2.67663e-07
3.29715e-07
4.29081e-07
5.90619e-07
8.60401e-07
1.31936e-06
2.05848e-06
3.12351e-06
4.39628e-06
5.71617e-06
5.15373e-06
3.06219e-06
1.27832e-06
5.57466e-07
3.79377e-07
3.43005e-07
3.31575e-07
3.12525e-07
2.93798e-07
2.81559e-07
2.82102e-07
2.99221e-07
3.22124e-07
3.44427e-07
3.635e-07
3.78411e-07
3.9272e-07
4.11693e-07
4.38425e-07
4.75202e-07
5.24996e-07
5.93213e-07
6.86634e-07
8.20007e-07
1.01079e-06
1.27803e-06
1.64204e-06
2.14493e-06
2.87809e-06
4.03085e-06
6.06014e-06
8.96869e-06
1.19449e-05
1.37728e-05
1.22671e-05
8.92229e-06
6.02851e-06
4.45547e-06
3.88288e-06
5.94477e-06
2.76669e-05
6.52904e-06
2.72117e-07
1.78047e-07
1.36557e-07
1.55821e-07
2.11684e-07
3.18812e-07
4.94728e-07
7.66004e-07
1.17098e-06
1.75852e-06
2.6542e-06
4.11427e-06
6.54787e-06
1.04769e-05
1.62445e-05
2.34917e-05
3.03625e-05
3.46734e-05
3.06658e-05
2.04844e-05
1.06231e-05
5.48471e-06
3.87288e-06
3.56873e-06
3.53209e-06
3.36331e-06
3.12411e-06
2.88375e-06
2.74737e-06
2.81366e-06
3.12452e-06
3.49077e-06
3.75291e-06
3.81238e-06
3.67256e-06
3.45402e-06
3.2564e-06
3.07597e-06
2.65474e-06
2.04033e-06
1.53163e-06
1.20511e-06
1.24481e-06
1.40395e-06
1.65555e-06
2.02884e-06
2.58403e-06
3.42628e-06
4.72787e-06
7.05048e-06
1.0147e-05
1.25851e-05
1.41654e-05
1.47336e-05
1.24125e-05
8.61179e-06
6.44697e-06
6.06216e-06
2.81467e-05
5.90252e-06
1.44652e-07
2.21494e-07
3.81011e-07
6.53413e-07
1.12215e-06
1.88808e-06
3.07988e-06
4.78461e-06
7.09847e-06
1.01536e-05
1.45195e-05
2.11966e-05
3.1741e-05
4.76648e-05
6.918e-05
9.42046e-05
0.000115084
0.00012221
0.000111702
8.71637e-05
5.84248e-05
3.87038e-05
3.02319e-05
2.77348e-05
2.70361e-05
2.61559e-05
2.51158e-05
2.40547e-05
2.35188e-05
2.39612e-05
2.56336e-05
2.86631e-05
3.22032e-05
3.46542e-05
3.50948e-05
3.41191e-05
3.22005e-05
2.98036e-05
2.65314e-05
2.16448e-05
1.67386e-05
1.10825e-05
5.5684e-06
3.70734e-06
3.39069e-06
3.50851e-06
3.79989e-06
4.29426e-06
5.14027e-06
6.93825e-06
9.22627e-06
1.135e-05
1.2652e-05
1.35195e-05
1.37047e-05
1.26694e-05
1.06398e-05
7.12907e-06
2.75225e-05
8.42371e-06
5.97853e-07
1.17104e-06
2.12842e-06
3.56667e-06
5.89718e-06
9.44912e-06
1.44509e-05
2.0525e-05
2.73446e-05
3.49129e-05
4.42494e-05
5.80274e-05
7.88294e-05
0.000107882
0.000144041
0.00018381
0.000213878
0.000225091
0.000220094
0.000202113
0.000173988
0.000144224
0.000123769
0.000111759
0.000103739
9.71173e-05
9.14291e-05
8.61705e-05
8.2062e-05
7.99326e-05
8.01204e-05
8.30075e-05
8.85544e-05
9.6009e-05
0.000102819
0.000107633
0.000106967
0.000101608
9.42061e-05
8.31946e-05
7.1164e-05
5.87345e-05
4.24205e-05
3.07488e-05
2.42089e-05
1.93737e-05
1.43827e-05
1.00485e-05
8.30559e-06
8.78349e-06
1.00989e-05
1.15228e-05
1.23547e-05
1.24133e-05
1.21781e-05
1.14774e-05
1.04339e-05
8.94935e-06
2.72776e-05
1.58045e-05
2.38911e-06
4.43936e-06
7.88853e-06
1.27318e-05
2.02402e-05
2.99376e-05
4.18581e-05
5.31904e-05
6.49122e-05
7.5101e-05
8.54731e-05
9.91159e-05
0.000119876
0.000144564
0.000169838
0.000196749
0.000224261
0.000248
0.000262113
0.000264386
0.000257768
0.000248026
0.000236878
0.000224158
0.000209661
0.000194035
0.000178879
0.000165612
0.000154271
0.000145739
0.000139961
0.000137219
0.000137626
0.000140646
0.00014528
0.000150329
0.000153584
0.000152524
0.000147092
0.000137843
0.000124989
0.000110702
9.35172e-05
7.53515e-05
6.01124e-05
4.79697e-05
3.81797e-05
2.97625e-05
2.23233e-05
1.72391e-05
1.52964e-05
1.51438e-05
1.58986e-05
1.51823e-05
1.34231e-05
1.15934e-05
1.01146e-05
9.33675e-06
2.68164e-05
2.14178e-05
5.07949e-06
1.13602e-05
1.88653e-05
2.62039e-05
3.60417e-05
4.27976e-05
4.86106e-05
5.37757e-05
5.91795e-05
6.56189e-05
7.27791e-05
8.15207e-05
9.23842e-05
0.000105639
0.000121069
0.000136865
0.000152321
0.0001654
0.000176036
0.000184674
0.000190485
0.000194061
0.00019696
0.000199139
0.000200584
0.000201039
0.000198876
0.000191918
0.000181587
0.000170905
0.000160955
0.000152476
0.0001462
0.000142586
0.000141241
0.000140996
0.000140939
0.000139958
0.000137606
0.000133369
0.000126373
0.000116736
0.000104901
9.09438e-05
7.62178e-05
6.20905e-05
4.98717e-05
4.03518e-05
3.32909e-05
2.86836e-05
2.67469e-05
2.56269e-05
2.26099e-05
1.90374e-05
1.56872e-05
1.24389e-05
1.0075e-05
9.50192e-06
2.5791e-05
1.86975e-05
3.60564e-06
9.18176e-06
1.37126e-05
1.87247e-05
2.29695e-05
2.6858e-05
3.12505e-05
3.56192e-05
3.91239e-05
4.23302e-05
4.64187e-05
5.19973e-05
5.97349e-05
7.01979e-05
8.3102e-05
9.61529e-05
0.000108437
0.000119546
0.000128776
0.000136028
0.000141703
0.000146843
0.000152851
0.000160398
0.000168997
0.000177839
0.000186443
0.000193816
0.000196636
0.000190924
0.000177925
0.000163225
0.000150915
0.000142477
0.000138063
0.000136597
0.000136867
0.000137779
0.000137972
0.000136022
0.000131389
0.000123801
0.000113336
0.000100415
8.55757e-05
6.95676e-05
5.37056e-05
3.9628e-05
2.88022e-05
2.207e-05
1.8532e-05
1.65252e-05
1.49394e-05
1.34648e-05
1.17823e-05
1.00638e-05
9.07453e-06
9.85418e-06
2.5054e-05
1.59374e-05
3.23273e-06
1.08428e-05
1.82454e-05
2.19624e-05
2.60008e-05
3.0999e-05
3.71546e-05
4.23339e-05
4.55314e-05
4.80585e-05
5.21329e-05
5.88784e-05
6.88234e-05
8.24932e-05
9.77518e-05
0.00011245
0.000126506
0.000139449
0.000150806
0.000160329
0.000168894
0.000176192
0.000183217
0.000190645
0.000198839
0.000207649
0.000216791
0.000225374
0.000231453
0.000231495
0.000221797
0.000204845
0.000189074
0.000178132
0.000173157
0.000173022
0.000175713
0.000179198
0.000181419
0.000180635
0.000176072
0.000168299
0.000157377
0.000142861
0.000124139
0.000101807
7.76016e-05
5.41802e-05
3.5469e-05
2.44399e-05
1.95949e-05
1.75966e-05
1.60432e-05
1.4468e-05
1.26946e-05
1.0916e-05
9.72824e-06
1.00028e-05
2.57163e-05
1.72648e-05
3.50564e-06
6.73166e-06
1.10573e-05
1.61926e-05
2.47399e-05
3.32087e-05
4.16973e-05
4.73986e-05
4.99843e-05
5.20576e-05
5.70616e-05
6.5592e-05
7.79088e-05
9.24508e-05
0.000106334
0.000118346
0.000130383
0.000143941
0.000160013
0.000177463
0.00019047
0.000200672
0.000212532
0.000222986
0.000231739
0.000239873
0.000247791
0.000254348
0.000257315
0.000253496
0.000240946
0.000221877
0.000201816
0.000189334
0.000185621
0.000188189
0.000193554
0.000199072
0.000202659
0.000202285
0.000196615
0.000185917
0.000171445
0.000152839
0.000129447
0.000101515
7.13981e-05
4.42038e-05
2.46712e-05
1.57102e-05
1.41413e-05
1.62541e-05
1.73632e-05
1.66959e-05
1.56439e-05
1.39032e-05
1.21561e-05
1.13051e-05
2.77679e-05
1.81222e-05
3.66453e-06
5.68482e-06
8.79582e-06
1.27609e-05
2.07128e-05
3.01553e-05
4.18431e-05
5.11585e-05
5.5204e-05
5.50939e-05
5.55309e-05
5.97056e-05
6.81296e-05
7.79805e-05
8.57522e-05
9.24034e-05
0.000101511
0.000114387
0.000132371
0.000157187
0.00018606
0.000209186
0.000223989
0.000234463
0.000241674
0.000248034
0.00025406
0.000258884
0.000260647
0.00025625
0.000242665
0.000221813
0.000200754
0.000188641
0.00018543
0.000188051
0.000193511
0.000198743
0.000200706
0.000197801
0.000190488
0.000179609
0.000164206
0.000142967
0.00011394
7.8631e-05
4.81447e-05
2.7818e-05
1.68118e-05
1.32013e-05
1.51975e-05
1.91708e-05
2.07695e-05
2.04709e-05
1.89235e-05
1.63707e-05
1.38259e-05
1.2249e-05
2.85671e-05
1.68067e-05
3.62304e-06
1.12359e-05
1.58442e-05
1.82106e-05
2.38974e-05
3.132e-05
4.01233e-05
4.825e-05
5.29714e-05
5.48612e-05
5.29111e-05
4.94471e-05
4.87254e-05
5.17915e-05
5.75415e-05
6.42654e-05
7.21285e-05
8.2622e-05
9.71696e-05
0.000117935
0.000146986
0.000179694
0.000205173
0.000220681
0.000230604
0.000236976
0.000241185
0.000243855
0.000244715
0.000242512
0.000232158
0.000211859
0.000193079
0.000181424
0.000176042
0.000175487
0.000177243
0.000178945
0.000178847
0.000174923
0.000166972
0.000155853
0.000142241
0.000125945
0.000106077
8.00673e-05
5.19836e-05
3.06089e-05
1.87693e-05
1.41346e-05
1.38579e-05
1.47267e-05
1.5152e-05
1.50534e-05
1.41665e-05
1.3027e-05
1.19642e-05
1.15017e-05
2.6764e-05
1.72614e-05
1.97541e-06
6.46897e-06
1.11769e-05
1.39348e-05
1.67658e-05
1.90133e-05
2.03935e-05
2.14806e-05
2.43691e-05
2.93355e-05
3.54494e-05
4.20022e-05
4.87958e-05
5.71985e-05
6.76477e-05
7.72465e-05
8.29131e-05
8.7187e-05
9.28209e-05
0.00010489
0.000127834
0.000160661
0.000193148
0.000216333
0.000228602
0.000234875
0.000237668
0.000237181
0.000231126
0.000216244
0.000196357
0.000179184
0.00016794
0.000162176
0.000160271
0.000159728
0.000158802
0.00015641
0.000150374
0.000139468
0.00012614
0.000111903
9.74985e-05
8.33644e-05
6.83149e-05
5.24698e-05
3.72812e-05
2.53257e-05
1.77302e-05
1.40644e-05
1.2876e-05
1.24006e-05
1.19134e-05
1.14665e-05
1.11586e-05
1.09254e-05
1.08549e-05
1.08211e-05
2.59753e-05
1.84593e-05
2.92755e-06
6.94626e-06
1.26923e-05
1.82803e-05
2.4308e-05
3.10724e-05
3.8657e-05
4.85561e-05
6.23009e-05
7.65284e-05
8.47084e-05
8.93281e-05
9.74265e-05
0.000110031
0.000125825
0.00014102
0.000153825
0.000165237
0.000174828
0.000185654
0.000203497
0.00022461
0.000234319
0.000233138
0.000231637
0.00023021
0.000225935
0.000215692
0.000199967
0.00018341
0.000169976
0.000161128
0.000156179
0.00015291
0.000148942
0.000143703
0.000137142
0.000128817
0.000118013
0.000105773
9.32196e-05
8.11791e-05
6.9468e-05
5.84668e-05
4.84811e-05
3.91867e-05
3.04392e-05
2.31605e-05
1.81186e-05
1.53899e-05
1.44364e-05
1.42019e-05
1.35108e-05
1.25869e-05
1.18692e-05
1.12898e-05
1.10484e-05
1.10075e-05
2.6152e-05
1.59052e-05
2.40362e-06
4.88608e-06
9.37264e-06
1.64438e-05
2.62212e-05
3.94086e-05
5.5306e-05
6.57849e-05
6.91059e-05
7.13756e-05
7.58401e-05
8.65322e-05
0.000105679
0.000133463
0.000167825
0.000201939
0.000226741
0.000240851
0.000247331
0.000246506
0.000241119
0.000234577
0.000230388
0.000228555
0.000225282
0.000216782
0.000202787
0.000186132
0.000170575
0.000159148
0.000151834
0.000147435
0.000145258
0.000145032
0.000146426
0.000146482
0.000143655
0.000137187
0.000127003
0.000113844
9.85419e-05
8.23135e-05
6.63692e-05
5.22158e-05
4.14812e-05
3.34661e-05
2.72628e-05
2.28576e-05
2.06383e-05
2.10566e-05
2.35277e-05
2.43066e-05
2.20311e-05
1.84494e-05
1.50235e-05
1.24244e-05
1.08248e-05
1.01767e-05
2.72457e-05
8.1337e-06
4.748e-07
9.55674e-07
1.76989e-06
3.07742e-06
5.12839e-06
8.18819e-06
1.2374e-05
1.70871e-05
2.08993e-05
2.29072e-05
2.65649e-05
3.32649e-05
4.44279e-05
6.16271e-05
8.39013e-05
0.00010594
0.000122695
0.00013398
0.000142729
0.000148685
0.000149451
0.000145293
0.000137587
0.000127993
0.000118429
0.000107087
9.41888e-05
8.1517e-05
7.12445e-05
6.22505e-05
5.41412e-05
4.83132e-05
4.64104e-05
4.74662e-05
5.03047e-05
5.52202e-05
5.84266e-05
5.86756e-05
5.5392e-05
4.93783e-05
4.38079e-05
3.79484e-05
3.25298e-05
2.78794e-05
2.50647e-05
2.40715e-05
2.44004e-05
2.63256e-05
2.95647e-05
3.26084e-05
3.37171e-05
3.10013e-05
2.62125e-05
2.12006e-05
1.70095e-05
1.3677e-05
1.11698e-05
9.21232e-06
2.79725e-05
6.81521e-06
1.29989e-07
1.78207e-07
2.99874e-07
5.05946e-07
8.1906e-07
1.26216e-06
1.82277e-06
2.44718e-06
2.99647e-06
3.57086e-06
4.34251e-06
5.59545e-06
7.66601e-06
1.0874e-05
1.5328e-05
2.06236e-05
2.62722e-05
3.22566e-05
3.8976e-05
4.56733e-05
4.75632e-05
4.38977e-05
3.72908e-05
3.12099e-05
2.62662e-05
2.13558e-05
1.63467e-05
1.19432e-05
8.67687e-06
6.11162e-06
4.43177e-06
4.0813e-06
4.15747e-06
4.37698e-06
4.66916e-06
4.97842e-06
5.12732e-06
5.09088e-06
4.92465e-06
4.79376e-06
5.02859e-06
5.28129e-06
5.84781e-06
7.08764e-06
8.9717e-06
1.17032e-05
1.48099e-05
1.8225e-05
2.24672e-05
2.70915e-05
3.01894e-05
2.90157e-05
2.58243e-05
2.29285e-05
1.95748e-05
1.5424e-05
1.15188e-05
7.8765e-06
2.84975e-05
7.94609e-06
2.94713e-07
1.39472e-07
9.11074e-08
9.76822e-08
1.23554e-07
1.68001e-07
2.23179e-07
2.82703e-07
3.36107e-07
3.92522e-07
4.66401e-07
5.88976e-07
7.92844e-07
1.11879e-06
1.60152e-06
2.26717e-06
3.14317e-06
4.28294e-06
5.78188e-06
7.59711e-06
8.00325e-06
6.9276e-06
5.40146e-06
4.21391e-06
3.29899e-06
2.45465e-06
1.69314e-06
1.14352e-06
8.32822e-07
6.76496e-07
6.41157e-07
6.69185e-07
7.1637e-07
7.83319e-07
8.70021e-07
9.75033e-07
1.09253e-06
1.22366e-06
1.37958e-06
1.59284e-06
1.92199e-06
2.43579e-06
3.23892e-06
4.47164e-06
6.24872e-06
8.73655e-06
1.21215e-05
1.65785e-05
2.20304e-05
2.59227e-05
2.54941e-05
2.22363e-05
1.79771e-05
1.51696e-05
1.34299e-05
1.11593e-05
8.59522e-06
5.92618e-06
2.87074e-05
1.00274e-05
9.52142e-07
5.75639e-07
3.55244e-07
2.64858e-07
1.91035e-07
1.51758e-07
1.26465e-07
1.21408e-07
1.25092e-07
1.33892e-07
1.37022e-07
1.33813e-07
1.30481e-07
1.38285e-07
1.65565e-07
2.17056e-07
2.97301e-07
4.16097e-07
5.94433e-07
7.92355e-07
8.22556e-07
6.9747e-07
5.52755e-07
4.47848e-07
3.69772e-07
3.08822e-07
2.74205e-07
2.73626e-07
2.93547e-07
3.15821e-07
3.34772e-07
3.56272e-07
3.83035e-07
4.17113e-07
4.61547e-07
5.20594e-07
6.00186e-07
7.10325e-07
8.69912e-07
1.1137e-06
1.49593e-06
2.09443e-06
3.01472e-06
4.40224e-06
6.41492e-06
9.31615e-06
1.3097e-05
1.74555e-05
2.01105e-05
2.03831e-05
1.80507e-05
1.40665e-05
1.03171e-05
8.19007e-06
7.20101e-06
6.40675e-06
5.59028e-06
4.90094e-06
2.89753e-05
1.25435e-05
2.63752e-06
2.06031e-06
1.50672e-06
1.25769e-06
1.0293e-06
8.99202e-07
7.87709e-07
7.45514e-07
7.30709e-07
7.31331e-07
7.02842e-07
6.31062e-07
5.22455e-07
4.00217e-07
2.90519e-07
2.06424e-07
1.53582e-07
1.32142e-07
1.37061e-07
1.48537e-07
1.58433e-07
1.69324e-07
1.86207e-07
2.08895e-07
2.37944e-07
2.71437e-07
3.02472e-07
3.24687e-07
3.40717e-07
3.54914e-07
3.69328e-07
3.79106e-07
3.86645e-07
3.97158e-07
4.17452e-07
4.56462e-07
5.24965e-07
6.35674e-07
8.06877e-07
1.06914e-06
1.47311e-06
2.09885e-06
3.06607e-06
4.56717e-06
6.82817e-06
1.00676e-05
1.42804e-05
1.77314e-05
1.85015e-05
1.67028e-05
1.32787e-05
9.36695e-06
6.16808e-06
4.2011e-06
3.0939e-06
2.42379e-06
2.1932e-06
3.85483e-06
2.67624e-05
1.78867e-05
7.25982e-06
7.14437e-06
6.33642e-06
5.95055e-06
5.52891e-06
5.27659e-06
5.01965e-06
4.88766e-06
4.80126e-06
4.72766e-06
4.57747e-06
4.29979e-06
3.89428e-06
3.40883e-06
2.93003e-06
2.52943e-06
2.25923e-06
2.10445e-06
2.02138e-06
1.96641e-06
1.93577e-06
1.92132e-06
1.91438e-06
1.90919e-06
1.90615e-06
1.90327e-06
1.89966e-06
1.89267e-06
1.88528e-06
1.87889e-06
1.86833e-06
1.83579e-06
1.7828e-06
1.71751e-06
1.65505e-06
1.61533e-06
1.61617e-06
1.66225e-06
1.75015e-06
1.87487e-06
2.0379e-06
2.25509e-06
2.53369e-06
2.93555e-06
3.63883e-06
4.53652e-06
5.25758e-06
5.24651e-06
4.55599e-06
3.53537e-06
2.56082e-06
1.83105e-06
1.3373e-06
1.03668e-06
8.40122e-07
7.15606e-07
7.6204e-07
2.01554e-06
1.996e-05
1.20521e-05
1.48962e-05
1.91481e-05
2.08382e-05
2.21777e-05
2.30719e-05
2.37735e-05
2.43106e-05
2.47522e-05
2.51467e-05
2.55083e-05
2.58289e-05
2.60643e-05
2.61698e-05
2.61062e-05
2.58619e-05
2.54415e-05
2.48696e-05
2.41679e-05
2.33646e-05
2.2526e-05
2.16858e-05
2.08408e-05
1.99881e-05
1.91412e-05
1.83387e-05
1.75683e-05
1.68314e-05
1.61129e-05
1.54201e-05
1.47586e-05
1.41351e-05
1.35533e-05
1.30108e-05
1.25052e-05
1.20496e-05
1.16631e-05
1.13776e-05
1.12208e-05
1.12138e-05
1.13679e-05
1.16681e-05
1.20631e-05
1.2429e-05
1.26197e-05
1.25088e-05
1.20823e-05
1.14121e-05
1.05367e-05
9.52992e-06
8.46552e-06
7.41008e-06
6.41369e-06
5.48904e-06
4.69265e-06
4.02788e-06
3.53153e-06
3.32219e-06
4.00786e-06
6.25103e-06
1.10677e-05
1.4461e-05
1.87762e-05
2.0603e-05
2.2065e-05
2.29445e-05
2.36999e-05
2.42333e-05
2.46629e-05
2.50179e-05
2.52783e-05
2.54941e-05
2.55973e-05
2.56323e-05
2.55334e-05
2.53416e-05
2.5017e-05
2.45938e-05
2.40648e-05
2.34449e-05
2.27415e-05
2.19659e-05
2.11258e-05
2.02285e-05
1.92987e-05
1.83883e-05
1.74947e-05
1.66344e-05
1.58101e-05
1.5035e-05
1.43034e-05
1.36158e-05
1.29682e-05
1.23656e-05
1.18105e-05
1.13085e-05
1.08771e-05
1.05483e-05
1.03592e-05
1.03478e-05
1.05468e-05
1.09622e-05
1.15365e-05
1.21001e-05
1.24274e-05
1.22575e-05
1.16547e-05
1.08004e-05
9.84378e-06
8.87826e-06
7.94161e-06
7.05193e-06
6.22983e-06
5.46959e-06
4.79285e-06
4.19212e-06
3.71973e-06
3.50147e-06
4.10134e-06
6.33201e-06
1.61404e-05
6.20199e-06
6.32452e-06
5.56988e-06
5.09351e-06
4.65388e-06
4.42517e-06
4.17276e-06
4.03479e-06
3.89756e-06
3.7991e-06
3.67813e-06
3.57203e-06
3.41891e-06
3.27179e-06
3.09441e-06
2.924e-06
2.7665e-06
2.62571e-06
2.50703e-06
2.39919e-06
2.30386e-06
2.21634e-06
2.13372e-06
2.05997e-06
1.99524e-06
1.93907e-06
1.89662e-06
1.86862e-06
1.85278e-06
1.83965e-06
1.82236e-06
1.79895e-06
1.76955e-06
1.73247e-06
1.69394e-06
1.67629e-06
1.6943e-06
1.75936e-06
1.88159e-06
2.06261e-06
2.28241e-06
2.49801e-06
2.66646e-06
2.76962e-06
2.72022e-06
2.5619e-06
2.33165e-06
2.06658e-06
1.82039e-06
1.61673e-06
1.44933e-06
1.30967e-06
1.18824e-06
1.07514e-06
9.67061e-07
8.81799e-07
9.4808e-07
2.04351e-06
2.06187e-05
1.08817e-05
1.95447e-06
1.54797e-06
1.08331e-06
8.35622e-07
6.47246e-07
5.55916e-07
4.70563e-07
4.32571e-07
4.00058e-07
3.83906e-07
3.6895e-07
3.57984e-07
3.41483e-07
3.27528e-07
3.09417e-07
2.93573e-07
2.8118e-07
2.72123e-07
2.66874e-07
2.628e-07
2.59742e-07
2.57562e-07
2.55802e-07
2.5458e-07
2.54363e-07
2.5773e-07
2.66319e-07
2.79881e-07
2.9677e-07
3.13647e-07
3.28956e-07
3.43746e-07
3.5997e-07
3.79696e-07
4.07324e-07
4.48228e-07
5.0834e-07
5.95168e-07
7.19302e-07
8.99665e-07
1.16515e-06
1.55693e-06
2.13175e-06
2.95682e-06
4.0821e-06
5.62639e-06
6.67535e-06
6.84848e-06
6.45843e-06
5.816e-06
5.06399e-06
4.38314e-06
3.84713e-06
3.43277e-06
3.06983e-06
2.72944e-06
2.58744e-06
3.77276e-06
2.6586e-05
8.34144e-06
6.44789e-07
3.75075e-07
2.08042e-07
1.41109e-07
9.75955e-08
7.98557e-08
6.51245e-08
6.0044e-08
5.64765e-08
5.70421e-08
5.93083e-08
6.41988e-08
7.16776e-08
8.34804e-08
9.99629e-08
1.22068e-07
1.49742e-07
1.82125e-07
2.18074e-07
2.56129e-07
2.93214e-07
3.26437e-07
3.55566e-07
3.82999e-07
4.10441e-07
4.31943e-07
4.36121e-07
4.30583e-07
4.1791e-07
4.1722e-07
4.29865e-07
4.56316e-07
5.00593e-07
5.65927e-07
6.56982e-07
7.81243e-07
9.50645e-07
1.18248e-06
1.48586e-06
1.91113e-06
2.5467e-06
3.54991e-06
5.15665e-06
7.72415e-06
1.17382e-05
1.78133e-05
2.5934e-05
3.4711e-05
3.90076e-05
3.71463e-05
2.99636e-05
2.21905e-05
1.60585e-05
1.20146e-05
9.44733e-06
7.50788e-06
6.00152e-06
4.81483e-06
2.8947e-05
6.66426e-06
2.26343e-07
9.53715e-08
4.45852e-08
3.26829e-08
3.07785e-08
3.67071e-08
4.72766e-08
6.48433e-08
9.10828e-08
1.31594e-07
1.94778e-07
2.97634e-07
4.64424e-07
7.32442e-07
1.14698e-06
1.74575e-06
2.52153e-06
3.42036e-06
4.36432e-06
5.33152e-06
6.17064e-06
6.68386e-06
6.88335e-06
6.89358e-06
6.71508e-06
6.28912e-06
5.52379e-06
4.53954e-06
3.56533e-06
2.76778e-06
2.21615e-06
1.83373e-06
1.55886e-06
1.40362e-06
1.36384e-06
1.43351e-06
1.60706e-06
1.86657e-06
2.15031e-06
2.55057e-06
3.15998e-06
4.15468e-06
5.78804e-06
8.37566e-06
1.23942e-05
1.89654e-05
3.03966e-05
4.95249e-05
6.6473e-05
6.9734e-05
6.17238e-05
4.70235e-05
3.08221e-05
1.98595e-05
1.55155e-05
1.33676e-05
1.06826e-05
7.25257e-06
2.96942e-05
5.54262e-06
6.23438e-08
3.22315e-08
3.5725e-08
5.21756e-08
7.96031e-08
1.23259e-07
1.92728e-07
3.0603e-07
4.91713e-07
8.0837e-07
1.36097e-06
2.34886e-06
4.08399e-06
7.00414e-06
1.15796e-05
1.80618e-05
2.61046e-05
3.4673e-05
4.27863e-05
5.02146e-05
5.63769e-05
6.01166e-05
6.17047e-05
6.15218e-05
5.99119e-05
5.6487e-05
5.09274e-05
4.36865e-05
3.63399e-05
3.03707e-05
2.63198e-05
2.29285e-05
1.97866e-05
1.68879e-05
1.40367e-05
1.13254e-05
8.87795e-06
7.06975e-06
5.90873e-06
5.14192e-06
4.32311e-06
4.1326e-06
5.09184e-06
6.92862e-06
9.99976e-06
1.5236e-05
2.45644e-05
4.12667e-05
6.14885e-05
7.89634e-05
8.08972e-05
6.84436e-05
4.76972e-05
3.05021e-05
2.1976e-05
1.72299e-05
1.26041e-05
8.75533e-06
3.02798e-05
5.43245e-06
7.56973e-08
1.22094e-07
1.99889e-07
3.06526e-07
4.69008e-07
7.28679e-07
1.16392e-06
1.91592e-06
3.20807e-06
5.35401e-06
8.85702e-06
1.45088e-05
2.33179e-05
3.62685e-05
5.37103e-05
7.50992e-05
9.94241e-05
0.000123829
0.00014508
0.000162945
0.000176655
0.000186238
0.000192261
0.00019503
0.000194918
0.000191301
0.000183472
0.000171007
0.000156077
0.000142076
0.000131595
0.000125331
0.000121542
0.00011964
0.000117218
0.00011269
0.000103374
9.0673e-05
7.19085e-05
5.67303e-05
4.10388e-05
2.55414e-05
1.52573e-05
1.11595e-05
1.11263e-05
1.341e-05
1.90521e-05
2.92761e-05
4.23279e-05
5.70954e-05
6.47839e-05
6.21017e-05
5.24113e-05
3.94991e-05
2.84925e-05
1.99439e-05
1.35127e-05
9.72331e-06
3.0039e-05
8.63334e-06
5.05987e-07
1.03124e-06
1.88525e-06
3.01769e-06
4.61721e-06
6.89419e-06
1.0195e-05
1.48582e-05
2.14479e-05
3.08328e-05
4.28563e-05
5.81344e-05
7.82148e-05
0.000103467
0.000132418
0.000164094
0.000197448
0.00022753
0.000252771
0.000273127
0.000289137
0.000300605
0.000308287
0.000312685
0.000314398
0.000312747
0.000307807
0.000299159
0.000286582
0.000271473
0.000255889
0.000244543
0.000239232
0.000239493
0.000243524
0.000249555
0.000254056
0.000254948
0.000247366
0.000226479
0.000195988
0.000158166
0.000118313
8.27438e-05
5.55969e-05
3.71418e-05
2.93593e-05
2.93482e-05
3.33887e-05
3.96697e-05
4.45599e-05
4.25068e-05
3.72824e-05
3.06898e-05
2.32212e-05
1.68173e-05
1.22827e-05
1.04717e-05
2.90955e-05
2.05544e-05
3.97085e-06
8.44286e-06
1.45718e-05
2.2294e-05
3.22856e-05
4.48818e-05
5.837e-05
7.15583e-05
8.69782e-05
9.8964e-05
0.000110771
0.000121145
0.000132076
0.00014702
0.000166731
0.000190597
0.000216616
0.000242567
0.000266358
0.000286532
0.000302771
0.000314747
0.000322598
0.000326867
0.000328627
0.000328419
0.000326992
0.000324164
0.000318658
0.000310104
0.000299621
0.000288495
0.00027883
0.000272829
0.0002706
0.000270304
0.000269366
0.000264698
0.000254663
0.000238364
0.00021753
0.000194693
0.000170727
0.000144773
0.000117568
9.13215e-05
6.88294e-05
5.24324e-05
4.18777e-05
3.53833e-05
3.21647e-05
3.01959e-05
2.66036e-05
2.21696e-05
1.76346e-05
1.37609e-05
1.12069e-05
1.10151e-05
2.80375e-05
2.65705e-05
8.29767e-06
1.88975e-05
3.29194e-05
5.25758e-05
6.99891e-05
8.31152e-05
9.52583e-05
0.000110674
0.000132196
0.000154381
0.000168165
0.000166956
0.000155947
0.000149303
0.00014954
0.000155064
0.000164254
0.000175506
0.000188085
0.000201055
0.000213363
0.000223766
0.000231336
0.000235817
0.000237736
0.00023819
0.000238052
0.000238235
0.000238453
0.000236645
0.000230726
0.00022274
0.000215269
0.000208537
0.000202745
0.000197889
0.000192768
0.000186033
0.000177077
0.000164883
0.000149424
0.000131628
0.000112577
9.30039e-05
7.39902e-05
5.65717e-05
4.16721e-05
3.05187e-05
2.3775e-05
2.04184e-05
1.86224e-05
1.69441e-05
1.49836e-05
1.30445e-05
1.13377e-05
1.00654e-05
9.67038e-06
1.10097e-05
2.57669e-05
2.14416e-05
4.39684e-06
1.84978e-05
3.12753e-05
4.79698e-05
6.71026e-05
8.26049e-05
9.26692e-05
9.99876e-05
0.000108048
0.00011685
0.000124872
0.000133022
0.000143036
0.000151428
0.000151484
0.000149874
0.000151989
0.000156685
0.000161363
0.000165565
0.000170281
0.000175397
0.000179536
0.000181538
0.000180988
0.000178124
0.000173415
0.000167679
0.00016177
0.00015555
0.000148523
0.00014116
0.000134053
0.000127632
0.000122839
0.000119912
0.00011878
0.000118663
0.000117765
0.000114834
0.00010933
0.00010031
8.77446e-05
7.32606e-05
5.8582e-05
4.44997e-05
3.17762e-05
2.19265e-05
1.58285e-05
1.26103e-05
1.08403e-05
9.62102e-06
8.8246e-06
8.38047e-06
8.31131e-06
8.60458e-06
9.45088e-06
1.11879e-05
2.48237e-05
1.81523e-05
2.64123e-06
9.07862e-06
1.35368e-05
1.7067e-05
1.97614e-05
2.04775e-05
2.08859e-05
2.25136e-05
2.58547e-05
3.07949e-05
3.8167e-05
5.03602e-05
7.11624e-05
0.000102301
0.000134671
0.000156168
0.000167595
0.000175674
0.000183335
0.000190352
0.00019673
0.000201148
0.000202268
0.000200225
0.000195433
0.000188152
0.000178706
0.000167481
0.000155666
0.000144621
0.000134909
0.000126469
0.000119502
0.000114963
0.000113381
0.000114316
0.000116903
0.000119727
0.000121361
0.000120241
0.000115107
0.000104264
8.7912e-05
6.85458e-05
4.87782e-05
3.22588e-05
2.05203e-05
1.32762e-05
9.60332e-06
7.97821e-06
7.21075e-06
6.79727e-06
6.78009e-06
7.20214e-06
7.86276e-06
8.62877e-06
9.61336e-06
1.03769e-05
2.42435e-05
1.8459e-05
3.18098e-06
1.27159e-05
2.08587e-05
2.6592e-05
3.26603e-05
3.78003e-05
4.14177e-05
4.2946e-05
4.33145e-05
4.38634e-05
4.77057e-05
5.83138e-05
7.74535e-05
0.000100253
0.000118662
0.000134738
0.00015248
0.000171003
0.000186885
0.000196246
0.000199814
0.000201755
0.000203391
0.000204554
0.00020451
0.000202008
0.000195858
0.000185719
0.000172798
0.000159314
0.000147428
0.000137868
0.000130414
0.000125893
0.000124793
0.000126328
0.00012925
0.000132351
0.000133969
0.000132232
0.000125805
0.000112733
9.30497e-05
7.06155e-05
4.98326e-05
3.31667e-05
2.10716e-05
1.34069e-05
9.25551e-06
7.55154e-06
6.79681e-06
6.11016e-06
6.04444e-06
6.65257e-06
7.45985e-06
8.25999e-06
9.18366e-06
9.94871e-06
2.43648e-05
1.85626e-05
3.89446e-06
1.10767e-05
1.90917e-05
2.5109e-05
3.36575e-05
4.08044e-05
4.62721e-05
4.97828e-05
5.27529e-05
5.55892e-05
5.88118e-05
6.5292e-05
7.67681e-05
9.10596e-05
0.000103516
0.000117211
0.000133303
0.000149334
0.000161826
0.000171351
0.000179991
0.000188376
0.000196341
0.000203152
0.000208318
0.000211783
0.00021303
0.000210448
0.000202367
0.000190133
0.000177755
0.000167002
0.000157858
0.000151809
0.000150036
0.000151633
0.000154989
0.000157805
0.000158145
0.000154208
0.000144798
0.000129644
0.000109387
8.63147e-05
6.38101e-05
4.41898e-05
2.8752e-05
1.8716e-05
1.3525e-05
1.12746e-05
1.01972e-05
9.5164e-06
9.05113e-06
8.93597e-06
8.95154e-06
8.99961e-06
9.22788e-06
1.02125e-05
2.50986e-05
2.35958e-05
7.42845e-06
1.25789e-05
1.67465e-05
2.1129e-05
2.83247e-05
3.5798e-05
4.31213e-05
4.93843e-05
5.49858e-05
6.10097e-05
6.73918e-05
7.57419e-05
9.04692e-05
0.000111418
0.00013561
0.000161159
0.000187514
0.00020919
0.000222645
0.000232425
0.000241778
0.000250822
0.000258863
0.00026527
0.000270009
0.000273184
0.000274899
0.000273941
0.000267822
0.000255793
0.000240382
0.00022582
0.000214079
0.000206659
0.000205006
0.000207431
0.000210702
0.000210523
0.000204052
0.000190455
0.000171193
0.000146807
0.000118358
8.85889e-05
6.27022e-05
4.27496e-05
2.84539e-05
1.92823e-05
1.39129e-05
1.11273e-05
1.03657e-05
1.1368e-05
1.25729e-05
1.26075e-05
1.18889e-05
1.1079e-05
1.03409e-05
1.03837e-05
2.63262e-05
2.65894e-05
6.44295e-06
7.96819e-06
1.16423e-05
1.66689e-05
2.30238e-05
3.08006e-05
3.90895e-05
4.82896e-05
5.75979e-05
6.84564e-05
8.20728e-05
0.000100145
0.000124243
0.000155479
0.000191971
0.000227939
0.000255187
0.000269627
0.000280062
0.000291033
0.000302004
0.000311979
0.000319577
0.000324633
0.000327418
0.000327367
0.000322901
0.000312793
0.000297536
0.000278235
0.000256109
0.000235987
0.000224209
0.000221228
0.000223492
0.000227456
0.000228632
0.000222216
0.000206851
0.000183248
0.000152072
0.000118268
8.54586e-05
5.77919e-05
3.88908e-05
2.65843e-05
1.84718e-05
1.33549e-05
1.07684e-05
1.0425e-05
1.28283e-05
1.73953e-05
2.02588e-05
2.0304e-05
1.84516e-05
1.58342e-05
1.32959e-05
1.13118e-05
2.83127e-05
1.87901e-05
4.54182e-06
8.88084e-06
1.55372e-05
2.30206e-05
3.2724e-05
4.33549e-05
5.49569e-05
6.71099e-05
8.22296e-05
0.000101711
0.000124311
0.00015201
0.000182745
0.000215239
0.000248183
0.000277545
0.000296347
0.000304202
0.0003095
0.000316085
0.000323586
0.000331192
0.000337619
0.000342033
0.000344026
0.000342321
0.000335692
0.00032474
0.000309498
0.00029049
0.000270902
0.000257277
0.000250263
0.000246834
0.000245833
0.000245237
0.00024129
0.000231256
0.000213879
0.000189703
0.000160684
0.000127274
9.15036e-05
5.85503e-05
3.58165e-05
2.22632e-05
1.57649e-05
1.31729e-05