/*--------------------------------*- C++ -*----------------------------------*\
| =========                 |                                                 |
| \\      /  F ield         | OpenFOAM: The Open Source CFD Toolbox           |
|  \\    /   O peration     | Version:  2.1.1                                 |
|   \\  /    A nd           | Web:      www.OpenFOAM.org                      |
|    \\/     M anipulation  |                                                 |
\*---------------------------------------------------------------------------*/
FoamFile
{
    version     2.0;
    format      ascii;
    class       volScalarField;
    location    "0.00135";
    object      p;
}
// * * * * * * * * * * * * * * * * * * * * * * * * * * * * * * * * * * * * * //

dimensions      [1 -1 -2 0 0 0 0];

internalField   nonuniform List<scalar> 
36520
(
7.60843
4.00065
3.54831
2.18342
0.0665012
-3.14948
-7.39614
-11.1442
-12.3952
-10.0163
-5.90253
-4.1213
-9.17087
-24.9299
-51.9099
-85.072
-114.649
-128.197
-119.658
-90.5073
-48.3084
-4.00434
30.2248
49.4532
58.1935
61.707
63.4912
64.8265
65.9654
66.6881
66.7205
65.8809
64.1325
61.5494
58.3112
54.7352
51.25
48.2435
45.8888
43.9919
42.0564
39.5435
35.8266
30.1026
21.519
9.09771
-8.43772
-33.0458
-66.7119
-109.826
-158.262
-202.233
-233.868
-249.794
-249.418
-229.172
-188.959
-101.234
167.64
535.335
8.41511
4.59662
3.60255
2.25986
0.247325
-3.03173
-7.55831
-11.6618
-13.0507
-10.3535
-5.48639
-2.84771
-7.33186
-23.2295
-51.3719
-86.6501
-118.528
-133.315
-124.527
-94.2532
-49.8893
-2.94721
32.5781
51.5202
59.517
62.4204
63.8956
65.2776
66.4534
67.2301
67.2451
66.3613
64.5462
61.868
58.503
54.7948
51.2003
48.1385
45.8049
44.0302
42.3003
40.0527
36.6167
31.1857
22.9774
10.9555
-6.33615
-31.0859
-65.5861
-111.058
-163.305
-211.132
-245.782
-262.615
-262.703
-245.404
-211.736
-139.281
84.2532
503.726
10.1127
5.79063
3.78387
2.36719
0.526993
-2.87589
-7.94185
-12.7466
-14.3817
-10.9733
-4.69496
-0.422534
-3.74734
-19.8576
-50.2022
-89.5786
-125.961
-143.184
-133.847
-101.555
-52.9164
-0.764047
37.2372
55.4853
61.9663
63.7458
64.7117
66.0821
67.3687
68.168
68.2361
67.3058
65.3786
62.51
58.8884
54.89
51.0574
47.8888
45.6017
44.0862
42.8075
41.2107
38.6034
34.0078
26.6126
15.2963
-1.46337
-26.6044
-63.1616
-113.276
-173.133
-229.076
-268.724
-288.588
-294.255
-276.431
-252.474
-210.716
-105.255
403.678
10.9154
6.2693
3.86069
2.5865
1.00246
-2.62099
-8.50208
-14.3282
-16.2326
-11.6892
-3.55949
2.76685
1.01494
-15.2086
-48.4422
-93.3686
-136.079
-157.102
-146.234
-111.742
-57.3009
2.33287
43.8184
60.8688
65.1554
65.3872
65.7035
67.1175
68.6655
69.7102
69.8495
68.8403
66.6915
63.5036
59.4664
54.9922
50.7705
47.4405
45.2025
44.0527
43.4284
42.766
41.2748
37.7764
31.5247
21.41
5.67084
-19.7534
-59.0274
-114.966
-183.255
-247.932
-294.836
-319.779
-329.06
-316.811
-317.017
-308.871
-421.266
204.706
11.2749
6.38637
3.72369
2.85196
1.61482
-2.3551
-9.35784
-16.4214
-18.308
-12.0551
-1.79977
6.51073
6.12467
-10.3163
-46.4587
-97.5133
-147.711
-173.358
-159.796
-123.448
-62.429
5.99518
51.2372
66.5962
68.2871
66.738
66.5567
68.0679
70.1683
71.7787
72.1661
71.0075
68.5141
64.8225
60.0988
54.8633
50.021
46.4348
44.1681
43.5279
43.793
44.2957
44.2256
42.0157
37.2353
28.8213
14.7037
-9.43438
-48.7997
-107.052
-180.206
-249.857
-304.438
-345.038
-378.666
-376.121
-369.612
-378.375
-776.672
-35.2011
10.1387
5.74786
3.18363
3.08098
2.24211
-2.08903
-10.347
-18.5461
-19.6048
-11.3522
1.35661
11.0884
10.9474
-6.89256
-45.8891
-102.652
-160.751
-190.917
-175.978
-133.987
-67.5787
8.04678
57.3718
71.4729
70.8016
67.7674
66.8985
68.704
71.5008
73.8384
74.6685
73.6765
70.9369
66.6247
61.0106
54.7382
48.9178
44.6501
42.2803
42.1675
43.3795
45.2219
47.3033
47.4922
44.6178
38.5057
28.1478
7.86587
-28.1441
-86.3612
-164.877
-237.217
-281.336
-325.568
-439.075
-411.352
-365.042
-450.397
-984.391
-83.4327
10.1752
5.04176
2.41371
3.49128
3.26881
-1.53299
-11.6713
-20.4967
-19.3771
-8.72514
6.3196
15.6697
14.7194
-6.98702
-47.9781
-106.973
-169.749
-200.277
-178.888
-132.442
-70.8928
6.48342
61.4138
74.7997
71.9315
67.667
66.2945
68.3717
71.8588
75.2256
76.8217
76.5339
73.8416
68.8123
62.1415
54.6949
47.8876
42.8326
40.1917
40.4542
42.6296
45.4453
48.5567
49.7834
47.9199
43.3864
35.7357
21.8443
-7.09466
-60.3033
-140.844
-222.363
-261.328
-229.545
-287.659
-564.864
-363.287
-415.498
-722.532
509.319
0.354797
2.85201
1.14396
3.50549
3.6966
-2.51996
-14.9937
-23.1249
-17.1323
-2.36109
14.2133
21.6102
17.6027
-9.08228
-52.2609
-111.249
-172.288
-203.154
-179.268
-119.151
-51.1557
11.3597
52.3857
68.0357
68.2757
64.9895
63.1351
66.1848
71.3312
76.2841
78.9978
79.7927
77.6847
71.728
64.155
55.7537
48.1187
42.3645
39.2756
39.0967
41.6507
44.7353
48.1025
51.3604
51.3752
48.6215
42.9725
30.7279
6.98328
-34.2062
-106.894
-192.036
-246.333
-250.551
-211.239
-131.838
358.593
736.541
724.797
2530.31
21.4474
6.82717
-0.384928
1.66921
0.872163
-7.96014
-20.9281
-22.1454
-7.18
14.9996
26.9983
25.6688
11.2945
-21.4044
-65.6032
-115.901
-168.939
-194.614
-164.762
-104.793
-43.8997
12.169
49.5616
65.5356
66.065
61.2929
62.8865
67.5626
74.625
76.9566
79.1552
81.717
79.7382
73.8077
65.1194
55.6391
47.1968
40.609
37.2974
38.0597
41.8064
45.8474
49.0186
52.3206
53.5257
52.901
51.125
43.2436
25.0626
-7.57215
-81.7832
-179.931
-236.589
-247.929
-189.863
32.9795
1098.15
3781.26
4778.27
7316.01
42.4438
6.50787
-1.18297
1.01081
0.307326
-8.70819
-25.2411
-32.9566
-14.938
16.7965
36.8441
36.0492
22.6125
-14.4349
-69.3591
-132.295
-178.938
-192.261
-161.379
-103.003
-41.8106
14.9946
55.0395
71.1114
71.174
66.7069
64.3562
65.3916
66.8113
76.2467
84.6462
88.111
83.4824
74.2199
64.0146
53.6706
44.6549
37.9955
35.4401
37.2203
41.674
45.4921
49.7609
54.2044
58.9242
63.2918
62.5977
55.3796
38.0924
3.25448
-75.4226
-173.399
-232.354
-244.263
-179.897
162.285
1364.35
4552.11
6437.06
11496.2
16.0329
2.80042
-0.192146
4.73536
2.73076
-9.84011
-28.666
-30.7397
-9.7035
22.9153
36.5877
35.4755
23.2241
-4.17029
-47.425
-118.157
-174.494
-187.093
-171.765
-108.756
-47.2676
19.2734
64.8691
80.1666
74.3774
65.3075
60.5096
60.2593
62.7461
69.2104
82.2668
93.7169
88.6625
76.4789
65.1247
53.3856
44.4004
38.6454
37.1698
39.2124
42.5545
45.6251
49.1171
53.8055
59.3652
65.8672
68.1485
62.2816
46.3318
16.5906
-60.4747
-166.066
-230.89
-237.978
-158.504
223.128
1906.77
5769.51
7462.25
10915.2
-6.61449
2.57091
1.44101
6.52877
5.81537
-3.74978
-20.4083
-28.8518
-17.6815
1.3071
23.6481
34.9693
34.2283
10.4053
-46.0721
-125.611
-210.543
-223.049
-193.221
-133.702
-48.381
32.2268
80.4459
88.8226
78.4794
66.3215
59.8273
58.9964
61.7185
68.9189
78.0735
84.9108
86.611
76.745
65.3918
54.4749
45.9032
40.9326
39.575
40.8505
42.852
45.612
49.3794
53.4697
58.2553
64.6348
68.3333
64.2879
50.7297
20.0974
-58.617
-168.377
-233.213
-236.85
-165.993
90.7668
1970.53
5816.36
6768.96
9392.33
-5.33608
5.49898
4.32281
8.59384
7.39785
-2.95084
-22.2399
-35.4455
-28.7641
-7.12235
12.4259
34.3227
46.5318
28.3667
-19.915
-84.8491
-134.747
-205.21
-203.844
-172.897
-73.5507
19.9334
94.1636
104.532
86.792
69.7452
60.3995
57.8421
60.1107
67.4846
75.7949
85.3612
87.8081
78.1221
66.4626
55.4787
46.6947
41.3593
39.3962
41.1288
44.745
47.576
50.2035
54.8122
61.7781
69.6725
73.6513
64.8012
43.8941
6.19872
-76.6079
-179.507
-229.573
-228.545
-165.809
48.4311
1818.55
5130.94
5830.89
7920.29
23.3097
7.77753
5.40306
10.8773
9.06919
-2.88147
-28.8451
-49.345
-48.8521
-25.331
9.7004
39.8182
60.56
43.4963
-11.8305
-85.863
-167.668
-180.961
-65.1262
-111.405
-85.9374
-4.3757
91.8316
113.862
89.6591
68.0307
56.9025
54.4197
57.8109
64.4722
75.5833
91.9548
95.7905
81.038
68.3988
55.9623
45.7077
39.7471
37.3043
39.0804
42.7419
45.4576
47.5448
50.3539
54.0029
58.9052
62.8606
53.0655
26.8465
-13.9179
-95.2916
-185.702
-224.036
-222.464
-162.797
21.9621
1909.28
3957.42
4089.16
6120.53
63.1084
18.807
8.92569
12.0222
8.85544
-1.54987
-23.5247
-46.1306
-46.4433
-15.5513
22.9767
48.1697
66.2698
39.8695
-9.36472
-74.7941
-128.384
-128.936
-331.531
-338.91
-246.408
36.8483
76.0017
109.982
104.09
67.3716
52.8339
51.7915
58.6439
73.5512
90.8809
93.455
87.3563
76.9496
66.8261
57.3657
48.2474
41.5145
39.368
40.5084
43.2484
45.1374
47.204
48.6415
48.9675
45.4714
36.5089
21.4181
-6.80411
-49.1912
-124.168
-193.954
-218.809
-217.357
-167.196
-40.7223
1049.71
1302.4
1247.64
3457.89
32.6826
13.9293
6.22854
9.6348
8.47613
-2.66476
-34.3201
-63.516
-49.5138
-25.3846
54.9863
117.414
98.3469
42.57
-28.7406
-109.777
-152.811
-148.317
-157.808
-167.552
-166.614
-92.9128
12.372
83.1064
86.4798
60.0278
47.7441
47.6506
54.9211
65.6287
77.627
84.4853
82.1166
75.5985
67.6817
58.8179
50.0594
42.9831
40.439
40.3952
41.4754
43.2649
45.1162
45.4821
41.2276
31.329
16.4607
-4.67508
-34.8266
-79.0358
-141.371
-191.771
-210.24
-216.719
-177.632
-73.3933
597.973
764.51
646.344
2597.83
-0.307655
2.2637
2.3551
4.83926
3.33086
-7.03629
-29.207
-44.9744
-31.7699
-1.07854
31.4366
56.4788
58.2395
24.8552
-37.0665
-108.271
-155.383
-161.821
-157.938
-154.884
-140.666
-71.166
3.5257
58.6729
65.5512
53.6806
46.0177
45.2008
50.1345
59.5997
71.1162
79.3622
81.0829
75.0944
66.6854
56.2124
47.0866
41.5155
39.7815
40.2342
41.4903
42.9692
44.1808
43.7716
39.7222
30.7999
17.5364
-4.71959
-36.4831
-79.6873
-137.578
-190.243
-214.816
-214.066
-180.772
-176.394
-98.041
-115.84
60.6524
2477.01
10.7217
4.71542
2.17431
2.1225
-0.490811
-9.23505
-24.0081
-32.2863
-21.7487
3.39952
31.6873
46.5134
34.9621
5.33621
-39.4782
-89.5655
-124.061
-136.675
-141.551
-147.126
-127.632
-65.3463
-1.90693
40.644
50.2058
46.4322
44.068
46.203
51.7072
59.6638
69.1375
75.8773
76.5469
71.8709
64.3966
55.6409
48.1025
43.0344
40.8714
40.7699
41.3716
42.2384
42.4845
40.4403
34.62
23.9031
9.14942
-13.023
-46.5052
-92.095
-153.824
-203.155
-222.662
-226.224
-233.122
-308.522
-338.282
-464.124
-656.532
881.864
8.37331
3.84083
1.38949
0.315964
-2.49936
-9.26706
-18.6421
-22.7738
-14.2601
2.44765
18.1029
27.7798
16.9134
-7.51393
-40.7376
-76.9813
-103.931
-116.775
-119.661
-115.102
-94.4914
-51.5081
-4.40357
27.1227
38.2083
40.2349
41.6343
45.0686
50.5853
57.7175
65.4776
70.988
71.7633
68.5803
62.8289
55.7113
49.2815
44.8876
42.8241
42.3739
42.1842
41.6417
39.9982
35.8708
28.1583
15.2356
-3.41906
-30.6342
-69.4857
-119.768
-172.634
-208.353
-227.238
-245.316
-281.766
-311.583
-342.072
-418.532
-755.941
-67.5117
10.0038
4.02858
0.985241
-0.615307
-3.38625
-8.60114
-14.7522
-16.6588
-9.82352
2.50276
12.9732
15.5782
5.34971
-14.6063
-40.5621
-68.0829
-89.654
-101.119
-103.399
-97.5994
-76.6274
-42.6662
-7.23638
17.5645
29.6837
35.1636
39.0396
43.4559
48.9986
55.5017
62.0872
66.6342
67.7465
65.5099
61.0952
55.3772
49.9704
46.0465
43.8659
42.8035
41.8176
40.1069
36.5115
30.1043
19.9949
4.46212
-17.8689
-47.7642
-86.6772
-132.962
-177.915
-208.571
-228.238
-245.533
-274.149
-304.493
-333.502
-374.405
-685.636
-227.121
8.50882
3.76901
0.907915
-1.06674
-3.7411
-7.88102
-12.0606
-12.8217
-7.6501
0.608799
7.16823
7.20335
-2.11631
-18.8048
-39.8012
-61.5028
-79.0177
-88.6107
-89.6794
-81.7807
-64.2487
-37.5236
-9.81002
11.0848
23.7137
31.2436
36.7714
41.9771
47.5563
53.5503
59.3162
63.4469
64.7141
63.1773
59.6587
54.9607
50.3182
46.6467
44.1514
42.3424
40.3188
37.2494
32.0962
24.0453
12.1788
-5.25249
-29.3966
-59.7556
-95.3134
-135.557
-172.272
-199.818
-218.272
-233.752
-256.935
-284.738
-313.226
-343.067
-594.456
-61.184
8.06683
3.48559
0.852456
-1.24197
-3.8209
-7.16234
-10.1002
-10.3004
-6.56244
-0.758461
3.14702
1.7308
-6.89471
-21.3414
-39.1587
-57.1869
-71.7365
-79.7752
-80.1303
-72.4163
-56.6038
-34.5978
-11.7359
6.74771
19.5436
28.2212
34.7838
40.5659
46.242
51.9328
57.1674
60.9167
62.4016
61.3995
58.5504
54.6138
50.5627
47.1238
44.442
42.0912
39.2946
35.1912
28.7319
19.1454
5.8059
-12.6696
-37.2956
-66.2673
-97.6639
-128.285
-158.364
-183.489
-202.331
-217.987
-236.349
-256.934
-273.711
-289.135
-354.129
131.778
6.35357
2.8206
0.843883
-1.24362
-3.76457
-6.59819
-8.7877
-8.69634
-5.85205
-1.65016
0.641244
-1.60995
-9.73573
-22.7381
-38.5476
-54.3642
-67.0532
-74.0606
-74.0135
-66.4807
-52.093
-32.9117
-12.9033
4.11588
16.8771
26.1672
33.3495
39.5036
45.2654
50.7942
55.7084
59.2392
60.7661
60.0729
57.6424
54.1643
50.4333
47.0299
44.0829
41.1696
37.6695
32.7699
25.5849
15.9081
2.64018
-15.07
-37.5827
-63.1314
-91.2271
-119.676
-147.04
-170.978
-189.644
-205.003
-220.9
-234.246
-239.209
-221.11
-103.086
278.369
5.27345
2.18107
0.75567
-1.31255
-3.8076
-6.39695
-8.27364
-8.08079
-5.60718
-2.21316
-0.640468
-3.23753
-11.1209
-23.4369
-38.264
-53.0208
-64.7984
-71.317
-71.0779
-63.6663
-49.9985
-32.1414
-13.4492
2.87948
15.592
25.1331
32.5937
38.927
44.7408
50.2067
54.9906
58.4383
59.9737
59.4187
57.1771
53.8899
50.2958
46.934
43.9069
40.8633
37.2166
32.2425
25.0777
15.3229
2.2326
-15.1541
-36.604
-61.2899
-87.8396
-115.106
-141.5
-164.339
-182.821
-197.712
-211.651
-221.307
-219.492
-181.605
14.3462
351.185
4.56719
0.490303
-1.45941
-3.82049
-6.01711
-7.81711
-9.08705
-9.59388
-9.60525
-9.69265
-10.6268
-12.646
-15.5526
-18.9044
-22.3751
-25.4906
-27.6976
-28.3755
-27.1659
-24.0796
-19.4347
-13.7074
-7.3067
-0.615236
6.08622
12.6149
18.9728
25.2893
31.6202
37.7764
43.2502
47.392
49.7408
50.3053
49.3865
47.494
45.1778
42.9897
41.3239
39.9743
38.1716
35.0225
29.8147
21.8457
10.9951
-3.5059
-22.7468
-46.1302
-72.3965
-99.6332
-126.704
-152.91
-179.003
-208.441
-243.006
-277.132
-301.739
-290.57
-117.59
225.556
5.60004
1.10051
-1.50905
-3.99844
-6.18685
-8.01466
-9.30924
-9.78152
-9.68958
-9.66899
-10.5916
-12.6704
-15.6173
-18.9371
-22.3651
-25.4858
-27.7485
-28.4882
-27.2913
-24.1785
-19.4983
-13.7432
-7.32141
-0.60502
6.11593
12.6571
19.0012
25.3291
31.748
38.0572
43.7176
48.0017
50.3338
50.7776
49.6944
47.6725
45.2375
42.9744
41.3819
40.252
38.7648
35.7766
30.6009
22.3
11.5082
-3.41559
-23.7671
-48.4563
-75.9658
-103.838
-131.041
-156.701
-182.038
-211.686
-248.813
-289.301
-323.271
-332.135
-230.116
159.785
7.25187
1.84233
-1.70925
-4.40666
-6.60274
-8.46687
-9.79889
-10.2032
-9.9009
-9.67162
-10.5977
-12.8247
-15.8495
-19.0721
-22.3704
-25.4717
-27.8464
-28.706
-27.5315
-24.3614
-19.6174
-13.8168
-7.36522
-0.598911
6.14585
12.6831
18.9845
25.3218
31.8815
38.469
44.4997
49.0063
51.2853
51.5617
50.2718
48.0275
45.374
43.0247
41.6857
41.2762
40.7695
38.632
33.9872
25.9247
14.4162
-1.65375
-23.815
-51.2968
-82.0944
-111.973
-139.599
-164.555
-188.139
-218.61
-261.671
-316.07
-367.579
-410.453
-491.271
-9.76896
7.59674
1.93486
-2.10243
-4.91765
-7.11308
-9.06319
-10.4687
-10.7995
-10.1907
-9.67045
-10.6697
-13.1923
-16.3341
-19.4171
-22.4165
-25.3731
-27.8344
-28.8484
-27.707
-24.465
-19.6483
-13.8254
-7.36502
-0.542225
6.24184
12.7318
18.9846
25.362
32.1573
39.1956
45.8226
50.3765
52.6803
52.754
51.1938
48.5951
45.525
42.8237
41.6535
42.2011
43.2928
42.8528
39.8153
32.7112
21.0345
3.34263
-22.1371
-53.957
-90.8667
-124.689
-151.839
-174.935
-194.138
-219.604
-266.759
-336.295
-404.183
-464.171
-759.171
-249.57
7.97209
1.81119
-2.63067
-5.51092
-7.71984
-9.75311
-11.2267
-11.4849
-10.6897
-9.89601
-11.1275
-14.2379
-17.5798
-20.2724
-22.5962
-25.0773
-27.5375
-28.7715
-27.6873
-24.3608
-19.5146
-13.7418
-7.32619
-0.482572
6.32448
12.752
18.9045
25.2937
32.3958
39.9564
46.8695
51.9212
54.2408
53.9879
51.9795
48.811
45.0934
41.945
41.0564
42.9412
46.1722
48.671
47.7651
43.1706
33.8745
17.3937
-11.3997
-51.5435
-98.1221
-136.111
-163.629
-184.359
-203.434
-221.829
-262.109
-342.184
-424.243
-498.044
-841.956
-397.916
8.04953
2.14881
-2.94073
-6.15185
-8.50255
-10.5836
-12.0051
-12.1884
-11.6115
-10.6677
-12.6242
-16.6241
-20.1094
-22.0243
-23.0936
-24.3141
-26.4372
-27.9313
-27.0425
-23.7863
-19.052
-13.427
-7.09656
-0.258302
6.56046
12.8827
18.8832
25.2632
32.7334
40.9233
48.3836
53.8323
56.0974
55.2627
52.541
48.4827
43.759
39.6063
38.6418
41.5476
46.6456
51.3025
53.3676
52.0155
47.0483
36.1941
11.5571
-30.1801
-83.7299
-137.037
-173.126
-196.736
-209.295
-220.283
-257.311
-341.959
-406.278
-489.893
-771.984
212.968
4.95956
2.3772
-2.61288
-6.8468
-9.60593
-11.4348
-12.3012
-12.2017
-12.4105
-12.4579
-15.7582
-20.9028
-24.3611
-25.0899
-24.222
-23.0827
-24.4388
-26.4792
-26.0104
-22.8374
-18.1768
-12.7437
-6.63686
0.0443267
6.72982
12.8499
18.6838
25.0467
32.8708
41.7999
50.2196
56.3132
58.3945
56.7202
53.1759
48.0522
42.2822
37.4256
36.4329
39.951
45.7893
52.4336
57.2474
58.7173
56.8736
50.9285
32.4426
-5.06178
-59.1234
-122.405
-177.032
-211.477
-217.707
-224.491
-247.086
-332.693
-351.563
-343.651
-160.575
2906.43
3.37339
4.63911
-1.69313
-7.46226
-11.1937
-12.3504
-12.0236
-11.2786
-12.3141
-14.2605
-19.3697
-25.562
-29.216
-29.8654
-26.9126
-22.0377
-21.6143
-24.3195
-24.4415
-21.3317
-16.7633
-11.6626
-5.90171
0.472905
6.92257
12.7959
18.4078
24.571
32.4084
41.7098
51.1234
58.4401
60.4844
57.6908
53.4562
47.2192
40.3354
34.4906
32.7095
35.9204
42.9961
51.7225
58.8245
63.2012
65.9234
65.504
54.0958
25.3744
-18.8409
-79.7932
-153.498
-207.042
-221.827
-223.835
-203.349
-200.409
-25.4193
433.64
1847.47
5255.29
-10.0623
5.82946
1.29584
-6.62528
-12.5568
-12.2497
-8.94452
-6.80771
-10.7897
-16.9794
-25.4225
-36.0705
-42.4615
-36.2661
-29.5192
-20.1615
-16.2697
-20.1834
-21.3844
-18.1664
-13.6503
-9.26476
-4.32947
1.4645
7.48211
13.034
18.3612
24.2771
31.8811
40.5752
50.3792
58.5145
60.9499
58.268
53.8439
46.5892
39.1524
33.3402
31.22
33.7121
38.3902
45.1126
51.8412
55.6378
58.8044
60.326
57.4072
39.0471
6.69175
-36.7405
-103.038
-179.554
-216.859
-215.907
-176.371
-118.284
1079.77
2140.54
4221.53
6211.2
17.5921
18.5831
6.7318
-6.30927
-17.6444
-16.2658
-10.2111
-6.3868
-14.581
-28.2604
-38.4373
-44.2172
-35.8764
-42.1964
-39.2172
-20.3851
-10.0508
-16.6176
-19.5141
-15.6394
-10.8827
-6.8147
-2.25148
3.31652
9.3502
14.7863
19.6483
25.3316
32.7855
41.7769
53.1881
62.4186
63.0872
60.0172
54.045
45.4352
37.2321
31.5533
30.5964
35.8157
43.0091
50.1484
57.3902
61.6566
63.8896
62.3561
52.5612
31.4637
-0.0268193
-48.8709
-116.939
-173.25
-209.864
-209.925
-160.17
-3.61554
2138.81
3035.03
3354.68
5356.53
71.403
23.1329
10.1291
-12.0111
-26.2147
-18.0923
3.06686
20.568
17.4879
-15.4844
-47.4596
-69.3987
-78.831
-85.8565
-29.8294
6.95369
13.9558
-4.35672
-12.6834
-9.61656
-5.40334
-2.32996
1.29775
6.65406
12.8238
18.6359
23.7854
29.7308
37.3199
46.146
56.8148
64.5165
63.7663
59.9465
52.3901
43.4243
34.9713
28.6378
27.6825
33.278
40.8024
49.8499
58.5803
63.587
67.3311
67.6031
61.861
44.7753
13.3579
-41.7202
-123.996
-187.794
-213.448
-203.973
-153.398
16.4376
1639.13
1887.58
1664.35
3654.42
96.2681
30.2749
14.9381
2.82925
-17.9453
-25.2408
-14.1599
5.45813
3.89358
-15.4566
-46.65
-51.4222
-67.539
-18.8855
19.7473
35.2274
36.5494
2.81433
-13.2588
-7.56491
0.860283
5.25851
8.65348
13.615
18.5759
22.4285
26.0012
31.7046
39.7291
47.6162
54.6733
60.5686
61.6184
58.6755
52.3381
43.3943
34.6883
28.6058
28.14
33.9027
40.3023
49.3033
58.8861
63.5107
67.5784
67.0882
60.3154
45.1768
17.6477
-30.3805
-113.128
-184.471
-212.127
-207.14
-149.538
111.504
1141.43
1159.26
948.791
3404.12
80.6795
27.3326
9.68792
-0.767629
-13.9461
-18.9641
-11.2984
15.8996
24.6488
-13.7648
-63.777
-83.589
-109.005
-130.411
-59.781
9.92845
23.7562
-4.46069
-15.0923
2.07273
17.395
16.0907
11.1897
11.1831
14.0677
18.9042
24.2418
31.4654
40.5867
50.5693
59.5242
63.1138
63.0078
59.7591
53.0355
44.0504
35.4732
29.8049
29.7154
35.559
41.9304
50.508
60.4842
66.4116
66.8193
65.2791
57.6369
42.1938
15.7198
-26.4318
-98.9319
-178.912
-210.014
-216.567
-159.294
100.828
1180.26
1570.75
1429.92
4408.13
44.0901
18.8007
0.283193
-5.47677
-12.3573
-16.5449
-10.3389
9.73555
18.6196
-7.18264
-49.5133
-79.6141
-98.1256
-116.05
-90.1402
-46.1304
-9.54674
-7.89676
3.64744
7.69602
8.22368
6.74219
8.27496
11.2215
15.7466
19.8755
24.4635
30.9171
41.2252
54.5678
63.8778
65.9655
64.3287
59.5439
52.2492
43.0136
33.9679
28.5679
28.9886
35.2456
41.7222
48.6446
56.5022
61.8284
63.1992
60.6823
52.303
34.192
6.22722
-35.1356
-93.1517
-167.569
-208.272
-215.605
-173.549
-14.172
1507.08
3736.42
3683.89
7510.29
-9.27654
1.01655
-4.67208
-4.69453
-8.33761
-12.0539
-9.85315
3.59526
11.1503
-3.92266
-33.9725
-59.2216
-83.7232
-106.339
-93.6476
-59.8695
-33.0664
-12.8904
8.3027
16.9103
12.0358
8.00217
7.08325
9.59967
15.2235
20.54
25.1805
30.3202
39.4522
52.0306
63.3463
67.4934
65.1908
62.5146
53.633
43.0904
33.6204
28.9588
30.4531
35.6738
40.0126
44.7292
51.4974
55.55
54.741
48.5478
37.4238
20.7212
-3.95246
-37.1088
-95.6952
-167.729
-215.313
-217.627
-183.28
-56.2098
1495.94
4802.3
6279.04
11091.9
-21.7058
-7.54816
-7.90541
-7.03538
-8.12754
-9.30766
-8.67352
-0.587383
4.48155
-4.99192
-23.7706
-45.2
-72.25
-94.7576
-89.6537
-64.1996
-36.7637
-11.2287
5.00865
7.98586
6.01241
6.19824
7.6542
11.0262
16.4201
21.9234
27.0027
32.3031
38.5406
48.7823
58.6037
63.449
63.9568
61.6285
54.8175
44.8757
36.599
33.4902
35.5867
39.4054
43.627
47.2046
50.8668
51.3421
47.5159
39.5687
26.7431
7.72335
-25.9011
-77.2235
-148.045
-225.264
-230.481
-206.162
-183.615
-98.0302
657.85
2351.57
3098.32
8460.64
-26.9306
-10.3866
-8.10656
-6.24192
-6.61914
-7.73761
-8.72615
-4.24426
0.956526
-0.0305294
-12.1029
-32.8806
-61.1864
-86.3399
-86.1343
-68.0658
-44.6641
-18.4411
-0.678579
2.89726
4.21647
3.31962
6.47753
11.6995
17.707
23.6753
28.1647
33.6771
39.8426
48.0805
56.0095
60.4607
62.118
60.6431
55.1551
45.3954
36.5943
32.3017
31.8583
34.6828
37.5314
40.046
43.3402
45.0602
42.0648
33.3386
19.7897
-4.61495
-43.9999
-99.0944
-160.972
-193.504
-206.423
-196.574
-181.688
-171.366
93.0156
753.779
944.794
4842.83
1.34737
-0.196718
-3.96498
-4.79758
-5.76998
-7.65196
-9.27386
-7.22588
-4.1387
-4.90726
-12.282
-27.3208
-47.926
-62.601
-70.7171
-64.5569
-50.41
-32.1059
-17.0027
-9.91673
-6.88085
-0.963031
5.59542
12.6401
19.651
26.3678
32.4863
38.3684
44.6617
51.3239
56.8578
59.753
60.5017
58.6522
52.6763
43.9594
36.785
33.5229
34.6274
38.7138
43.3257
46.8762
49.8693
49.6368
43.6973
32.4672
12.8906
-20.0171
-66.3821
-126.012
-182.846
-212.037
-207.886
-201.623
-188.504
-287.702
-304.186
-358.179
-753.739
351.489
2.48937
-1.80623
-3.39697
-4.15767
-5.28539
-6.98463
-8.52391
-8.0963
-6.98296
-8.14502
-13.7688
-24.6775
-39.2829
-51.3652
-57.5402
-55.9602
-48.2801
-36.3684
-24.8892
-16.2553
-9.5179
-2.51152
5.44708
13.361
20.701
27.128
32.7878
38.9859
44.954
50.8778
55.7392
58.825
59.8824
58.6033
52.9721
45.4808
39.4742
36.64
37.367
39.7624
42.974
45.6678
46.9139
44.5531
35.4216
18.7694
-8.75639
-50.3435
-108.705
-166.045
-207.2
-214.992
-209.551
-202.251
-236.235
-304.159
-357.412
-472.678
-983.892
-404.117
6.05471
1.12502
-1.86181
-3.42181
-4.96694
-6.80718
-8.46846
-8.91644
-8.74034
-9.92295
-14.1859
-22.2107
-32.9541
-42.9329
-49.5666
-51.3021
-47.6178
-39.9963
-30.9856
-22.408
-13.1381
-3.81063
5.63811
14.4969
22.3676
29.2014
35.2805
40.6767
45.7081
50.4862
54.2704
56.2529
57.0671
55.9353
51.8848
46.2969
41.6361
39.4113
39.7961
41.3431
43.3095
44.0683
42.4875
36.0302
23.3466
1.64297
-31.1923
-75.7875
-128.277
-169.942
-195.168
-204.073
-205.035
-215.185
-249.922
-304.664
-381.605
-465.98
-988.601
-325.877
6.8731
1.90946
-0.868054
-2.77059
-4.56958
-6.54594
-8.34388
-9.31005
-9.73766
-10.9245
-14.3542
-20.681
-29.2762
-37.9998
-44.8464
-48.2892
-47.3342
-42.3283
-34.6763
-25.5987
-15.5384
-4.89159
5.55697
15.0211
23.1493
30.0084
35.9016
41.0827
45.8024
50.0033
53.492
55.2971
55.7586
54.5005
51.1923
46.8202
43.0495
40.9823
40.6048
41.0881
41.5226
40.7512
37.0892
28.4872
12.9543
-11.5478
-45.3409
-87.012
-128.709
-158.621
-179.135
-187.588
-191.985
-209.115
-242.571
-287.342
-339.27
-416.248
-787.223
-32.3201
7.0975
2.52415
-0.257043
-2.32107
-4.25948
-6.34006
-8.25979
-9.54973
-10.3435
-11.5726
-14.5108
-19.8155
-27.2235
-35.2673
-42.2682
-46.6713
-47.2932
-43.8654
-37.0564
-27.791
-17.0629
-5.59674
5.54235
15.4516
23.7844
30.6644
36.4298
41.406
45.789
49.5582
52.5513
54.2588
54.6659
53.446
50.6551
47.0618
43.8456
41.8243
41.0135
40.7182
40.1175
37.9407
32.6124
22.3486
5.42701
-19.2247
-50.2263
-85.0392
-117.287
-142.829
-162.558
-173.55
-181.163
-198.529
-225.448
-256.237
-284.86
-314.103
-389.106
376.588
5.79346
2.0972
0.111225
-1.8998
-3.97174
-6.11353
-8.12888
-9.60201
-10.644
-11.9277
-14.5983
-19.312
-26.0376
-33.6865
-40.7658
-45.7201
-47.2112
-44.6241
-38.2561
-29.0363
-17.9612
-6.03031
5.52302
15.7114
24.1767
31.076
36.7834
41.649
45.8708
49.4127
52.1458
53.6717
53.9223
52.7736
50.3155
47.1804
44.2645
42.2132
41.0636
40.2268
38.864
35.6845
29.2755
18.2621
1.40603
-21.5863
-49.1434
-78.9976
-107.109
-131.047
-150.022
-162.494
-172.54
-188.154
-209.51
-229.365
-239.146
-217.029
-47.6024
630.778
4.83792
1.5803
0.213189
-1.76215
-3.87896
-6.04181
-8.08793
-9.64053
-10.7845
-12.1089
-14.6709
-19.1362
-25.56
-33.0208
-40.1218
-45.3139
-47.2047
-45.0327
-38.9088
-29.6941
-18.4416
-6.28953
5.4594
15.7763
24.3053
31.2169
36.9001
41.7174
45.8891
49.304
51.8388
53.3354
53.5628
52.4485
50.1432
47.2137
44.4247
42.3532
41.0375
39.9283
38.2026
34.6964
28.1098
17.0172
0.49492
-20.9829
-46.253
-74.0847
-100.313
-123.245
-142.32
-156.194
-167.897
-183.263
-201.517
-215.671
-216.416
-171.221
101.458
700.21
4.31905
1.78415
0.53579
-1.26632
-3.8779
-6.66639
-8.70658
-8.33111
-5.27854
-1.16724
0.829661
-1.7793
-10.099
-23.0025
-38.2902
-53.2774
-65.1272
-71.613
-71.3484
-64.0973
-50.7669
-33.275
-14.8229
1.43572
14.1737
23.8022
31.3956
37.9127
43.9768
49.7647
54.9611
58.7738
60.5166
59.9048
57.4353
53.8822
50.0556
46.5584
43.4807
40.3942
36.4819
30.992
23.0445
12.085
-2.61929
-22.1156
-45.9057
-71.7877
-98.8904
-126.018
-151.522
-173.569
-190.559
-204.495
-220.585
-236.988
-245.342
-218.238
-6.9074
459.689
4.41016
1.95927
0.567205
-1.28334
-3.98858
-6.92365
-9.08667
-8.53593
-4.94372
-0.189689
2.12993
-0.546437
-9.25641
-22.6123
-38.1928
-53.2192
-64.928
-71.1808
-70.7295
-63.6569
-50.7425
-33.8251
-15.9326
-0.0261848
12.5735
22.2331
29.9531
36.6548
42.9615
49.0995
54.7897
59.1223
61.1858
60.6597
58.1229
54.3875
50.3526
46.7255
43.5509
40.2439
35.9628
29.7231
20.5129
8.12535
-7.95407
-28.9692
-53.8821
-79.5303
-105.176
-131.211
-155.624
-176.905
-193.008
-206.011
-223.11
-246.594
-264.547
-251.104
-27.1382
651.484
2.86656
1.45431
0.246161
-1.39541
-4.12407
-7.16962
-9.39855
-8.66315
-4.56774
0.703111
3.24779
0.447087
-8.6037
-22.281
-38.0109
-52.9197
-64.3391
-70.2458
-69.5017
-62.558
-50.0427
-33.8438
-16.7591
-1.46072
10.8287
20.435
28.2491
35.1052
41.6102
47.9936
54.0399
58.7565
60.917
60.176
57.179
52.9644
48.4992
44.4059
40.7731
36.8542
31.7362
24.4856
14.6574
2.77237
-11.6646
-31.0394
-54.115
-77.8603
-101.351
-126.877
-151.194
-173.061
-189.395
-201.496
-218.969
-249.07
-274.056
-274.615
-42.2878
959.074
2.1129
0.979183
-0.123373
-1.66592
-4.33436
-7.43712
-9.68885
-8.76566
-4.28944
1.33916
4.02706
1.06
-8.26914
-22.13
-37.8063
-52.4294
-63.4503
-68.9019
-67.6804
-60.6797
-48.6451
-33.3011
-17.2543
-2.78463
9.04605
18.5161
26.384
33.3913
40.0944
46.7902
53.3518
58.6329
61.2254
60.6479
57.8226
53.6899
49.2721
45.3719
42.1626
39.0015
34.9187
29.319
21.5498
11.2455
-2.98451
-23.1876
-45.594
-67.8117
-92.6482
-121.098
-147.217
-169.148
-186.215
-196.185
-210.632
-243.235
-269.746
-277.777
-31.4512
1387.02
0.0373714
0.294746
-0.684442
-2.00305
-4.62153
-7.67251
-9.81308
-8.68189
-3.9784
1.69755
4.28281
1.14313
-8.11211
-21.7342
-37.0677
-51.2623
-61.8811
-66.7297
-65.0429
-57.9387
-46.4107
-32.228
-17.4878
-4.04359
7.20774
16.4668
24.3569
31.5189
38.4871
45.5304
52.4873
58.2454
61.2143
60.7894
57.7856
53.4979
49.0884
45.2065
42.2895
39.673
35.9297
30.4911
23.0347
13.2247
-0.402054
-20.1834
-43.7775
-68.373
-94.2785
-122.003
-148.124
-170.922
-188.7
-197.652
-204.785
-230.548
-250.631
-264.325
34.1068
1840.73
0.909874
-0.0425846
-1.22272
-2.77131
-5.02117
-7.76407
-9.53455
-8.30103
-3.79821
1.38271
3.65644
0.626043
-8.21273
-21.1278
-35.7556
-49.4232
-59.4605
-63.6977
-61.7941
-54.7327
-43.8765
-30.7613
-17.2268
-4.75556
5.94314
14.9667
22.8013
30.0381
37.1913
44.4115
51.4818
57.341
60.5657
60.4289
57.585
53.4834
49.062
45.2162
42.4332
39.8362
36.3207
31.0021
23.6453
13.8602
0.684697
-18.0372
-41.6445
-67.1946
-93.6496
-120.481
-145.768
-170.079
-191.096
-204.46
-191.71
-207.511
-233.498
-259.648
111.301
2230.24
-1.6039
-1.06971
-1.78089
-3.21133
-5.3525
-7.81879
-9.27619
-8.00572
-3.91084
0.758538
2.59814
-0.318093
-8.56425
-20.6188
-34.323
-47.0776
-56.1249
-59.873
-58.0723
-51.4005
-41.2495
-29.1799
-16.7389
-5.15169
5.00417
13.7668
21.5143
28.6955
35.9531
43.3484
50.5201
56.385
59.6227
59.5989
56.8112
52.7685
48.4867
44.8399
42.1563
39.7988
36.5611
31.5187
24.358
14.473
0.951321
-16.73
-39.4025
-64.996
-92.0203
-119.037
-144.116
-170.728
-197.633
-207.712
-198.171
-214.501
-237.49
-283.861
141.441
2746.4
-0.491686
-1.04938
-2.0011
-3.53413
-5.65108
-7.91747
-9.18841
-7.8932
-4.17626
-0.168192
1.38087
-1.3978
-8.91778
-19.9032
-32.4801
-44.2728
-52.7651
-56.4448
-54.8003
-48.4767
-38.9958
-27.7935
-16.2432
-5.37251
4.34193
12.8358
20.416
27.5137
34.7671
42.3096
49.6069
55.4902
58.7096
58.7625
56.2467
52.3765
48.1942
44.4085
41.5271
39.2593
36.2009
31.0897
23.0726
12.579
-0.355587
-16.5187
-38.6759
-63.98
-90.9514
-118.547
-142.867
-165.173
-181.998
-194.634
-215.496
-243.573
-259.787
-312.28
81.7249
2524.79
-0.754352
-1.2548
-2.25118
-3.82375
-5.91157
-8.00779
-9.1604
-7.99723
-4.77359
-1.31455
-0.085416
-2.72696
-9.52694
-19.3195
-30.5382
-41.1057
-48.8379
-52.2338
-50.6806
-45.0664
-36.5025
-26.2374
-15.5296
-5.27238
4.03381
12.2669
19.6722
26.717
33.9642
41.5232
48.8038
54.6012
57.7453
57.8341
55.4375
51.7167
47.5751
43.7159
40.6414
38.2234
34.8311
29.6171
22.1539
12.5139
0.0987958
-15.9667
-38.2689
-64.0298
-90.2841
-116.092
-140.949
-164.915
-184.837
-206.47
-243.532
-279.059
-286.111
-320.347
-0.514684
1900.88
0.812517
-0.87511
-2.26511
-3.9906
-6.12884
-8.12147
-9.24404
-8.2853
-5.55403
-2.65159
-1.78289
-4.32482
-10.4064
-19.0281
-28.8697
-38.2052
-45.0887
-48.1496
-46.8595
-41.8498
-34.0067
-24.6306
-14.7381
-5.07947
3.82943
11.8223
19.0953
26.1262
33.3713
40.918
48.1336
53.7845
56.8235
56.8636
54.5396
50.9606
46.898
43.0287
39.7651
36.633
32.442
26.1745
17.4568
6.20866
-6.80846
-22.3381
-42.073
-65.6993
-91.9668
-118.642