/*--------------------------------*- C++ -*----------------------------------*\
| =========                 |                                                 |
| \\      /  F ield         | OpenFOAM: The Open Source CFD Toolbox           |
|  \\    /   O peration     | Version:  2.1.1                                 |
|   \\  /    A nd           | Web:      www.OpenFOAM.org                      |
|    \\/     M anipulation  |                                                 |
\*---------------------------------------------------------------------------*/
FoamFile
{
    version     2.0;
    format      ascii;
    class       volScalarField;
    location    "0.00135";
    object      p_rgh;
}
// * * * * * * * * * * * * * * * * * * * * * * * * * * * * * * * * * * * * * //

dimensions      [1 -1 -2 0 0 0 0];

internalField   nonuniform List<scalar> 
36520
(
7.64519
4.03741
3.58507
2.22018
0.103261
-3.11272
-7.35938
-11.1074
-12.3585
-9.97954
-5.86577
-4.08454
-9.13411
-24.8931
-51.8731
-85.0352
-114.612
-128.161
-119.621
-90.4706
-48.2716
-3.96758
30.2616
49.4899
58.2302
61.7438
63.528
64.8633
66.0022
66.7249
66.7573
65.9177
64.1693
61.5862
58.348
54.772
51.2868
48.2802
45.9255
44.0287
42.0931
39.5802
35.8633
30.1394
21.5557
9.13448
-8.40096
-33.009
-66.6752
-109.789
-158.225
-202.197
-233.832
-249.757
-249.381
-229.135
-188.922
-101.197
167.676
535.371
8.45188
4.6334
3.63932
2.29664
0.284101
-2.99496
-7.52154
-11.625
-13.0139
-10.3168
-5.44961
-2.81093
-7.29508
-23.1928
-51.3351
-86.6133
-118.491
-133.278
-124.491
-94.2165
-49.8525
-2.91044
32.6148
51.557
59.5538
62.4571
63.9323
65.3143
66.4902
67.2668
67.2819
66.3981
64.583
61.9048
58.5397
54.8316
51.2371
48.1753
45.8417
44.067
42.3371
40.0895
36.6535
31.2225
23.0142
10.9923
-6.29937
-31.0491
-65.5493
-111.022
-163.268
-211.095
-245.745
-262.578
-262.666
-245.367
-211.699
-139.244
84.29
503.762
10.1496
5.82748
3.82072
2.40404
0.563841
-2.83904
-7.905
-12.7098
-14.3449
-10.9364
-4.65811
-0.385686
-3.71049
-19.8208
-50.1653
-89.5418
-125.924
-143.147
-133.81
-101.518
-52.8795
-0.727198
37.2741
55.5222
62.0031
63.7827
64.7486
66.119
67.4056
68.2049
68.273
67.3427
65.4154
62.5469
58.9252
54.9269
51.0942
47.9257
45.6386
44.123
42.8443
41.2475
38.6402
34.0446
26.6494
15.3332
-1.42651
-26.5675
-63.1247
-113.239
-173.096
-229.039
-268.687
-288.551
-294.218
-276.394
-252.437
-210.679
-105.218
403.715
10.9524
6.30628
3.89767
2.62348
1.03943
-2.58401
-8.4651
-14.2912
-16.1956
-11.6522
-3.52252
2.80383
1.05192
-15.1717
-48.4053
-93.3316
-136.042
-157.065
-146.197
-111.705
-57.264
2.36985
43.8554
60.9058
65.1924
65.4241
65.7405
67.1544
68.7025
69.7472
69.8864
68.8773
66.7285
63.5406
59.5034
55.0291
50.8075
47.4775
45.2395
44.0896
43.4654
42.803
41.3118
37.8134
31.5617
21.447
5.70784
-19.7163
-58.9903
-114.929
-183.217
-247.892
-294.787
-319.73
-329.02
-316.774
-316.98
-308.834
-421.229
204.743
11.312
6.42352
3.76084
2.88911
1.65197
-2.31795
-9.32069
-16.3843
-18.2709
-12.0179
-1.76262
6.54788
6.16182
-10.2792
-46.4215
-97.4761
-147.674
-173.321
-159.759
-123.411
-62.3918
6.03234
51.2743
66.6334
68.3243
66.7752
66.5938
68.1051
70.2055
71.8158
72.2033
71.0447
68.5513
64.8597
60.136
54.9005
50.0581
46.4719
44.2052
43.565
43.8301
44.3328
44.2627
42.0529
37.2725
28.8585
14.7409
-9.39719
-48.7624
-107.014
-180.167
-249.81
-304.363
-344.911
-378.53
-376.03
-369.565
-378.335
-776.634
-35.1609
10.1761
5.78523
3.221
3.11835
2.27948
-2.05166
-10.3096
-18.5088
-19.5674
-11.3148
1.39398
11.1258
10.9848
-6.85519
-45.8517
-102.615
-160.713
-190.879
-175.94
-133.95
-67.5412
8.08418
57.4092
71.5104
70.8391
67.8049
66.936
68.7414
71.5382
73.8759
74.706
73.7141
70.9745
66.6622
61.0481
54.7758
48.9554
44.6876
42.3178
42.2049
43.417
45.2594
47.3408
47.5296
44.6553
38.5432
28.1853
7.90343
-28.1064
-86.3229
-164.837
-237.165
-281.226
-325.276
-438.564
-410.593
-364.366
-450.018
-984.273
-83.3611
10.2129
5.07942
2.45137
3.52894
3.30647
-1.49533
-11.6337
-20.4591
-19.3394
-8.68748
6.35727
15.7073
14.7571
-6.94931
-47.9404
-106.935
-169.711
-200.238
-178.849
-132.403
-70.8547
6.52125
61.4516
74.8375
71.9694
67.7049
66.3324
68.4096
71.8968
75.2636
76.8598
76.572
73.8798
68.8506
62.1798
54.7334
47.9261
42.8712
40.2303
40.4927
42.6679
45.4836
48.5952
49.8221
47.9584
43.4246
35.7739
21.8827
-7.0548
-60.2583
-140.788
-222.297
-261.256
-229.438
-287.063
-560.073
-356.157
-410.741
-721.321
509.515
0.392889
2.89011
1.18206
3.54359
3.73469
-2.48187
-14.9556
-23.0868
-17.0942
-2.32283
14.2516
21.6486
17.6411
-9.04355
-52.2215
-111.209
-172.247
-203.112
-179.226
-119.109
-51.1147
11.3988
52.4243
68.0743
68.3145
65.0284
63.1739
66.2237
71.3701
76.3231
79.0369
79.8319
77.7242
71.7677
64.1949
55.7947
48.1626
42.4107
39.3207
39.1399
41.6938
44.7786
48.1462
51.4042
51.4186
48.6645
43.0156
30.771
7.02665
-34.1608
-106.845
-191.988
-246.289
-250.507
-211.172
-128.802
378.87
754.675
729.226
2530.79
21.4854
6.8651
-0.347003
1.70714
0.910092
-7.92221
-20.8902
-22.1075
-7.14206
15.0376
27.037
25.7086
11.3371
-21.3518
-65.5205
-115.762
-168.764
-194.449
-164.648
-104.724
-43.8438
12.2209
49.6108
65.5817
66.1085
61.3348
62.9277
67.6034
74.6657
76.9975
79.1965
81.7589
79.7806
73.8506
65.163
55.6838
47.2431
40.6569
37.3471
38.1118
41.8616
45.906
49.0802
52.3847
53.591
52.966
51.1865
43.2984
25.1093
-7.53015
-81.7416
-179.889
-236.548
-247.888
-189.817
33.759
1116.5
3803.85
4786.27
7317.02
42.481
6.54509
-1.14575
1.04804
0.344549
-8.67067
-25.2024
-32.9157
-14.8966
16.8365
36.8841
36.0903
22.6566
-14.3835
-69.2885
-132.171
-178.729
-192.035
-161.195
-102.896
-41.7387
15.0601
55.1038
71.1757
71.2379
66.7695
64.4154
65.4441
66.8556
76.2873
84.6868
88.1526
83.5258
74.2652
64.0618
53.7205
44.708
38.0519
35.4993
37.2814
41.7361
45.5552
49.8246
54.2687
58.9888
63.3548
62.6559
55.4296
38.1364
3.29831
-75.3772
-173.351
-232.306
-244.222
-179.847
163.217
1380.11
4570.57
6443.91
11497.2
16.0697
2.83726
-0.155301
4.77221
2.7676
-9.80326
-28.6292
-30.7029
-9.66665
22.9522
36.6252
35.5135
23.2647
-4.12046
-47.3343
-117.921
-174.016
-186.582
-171.388
-108.609
-47.2117
19.3202
64.9156
80.2136
74.4251
65.3557
60.557
60.3046
62.7883
69.2506
82.3069
93.7581
88.7062
76.523
65.1682
53.4287
44.4434
38.6885
37.2133
39.2568
42.6002
45.6719
49.1648
53.8538
59.4139
65.9164
68.1971
62.3268
46.3726
16.631
-60.4313
-166.02
-230.848
-237.939
-158.454
224.449
1924.62
5787.55
7467.76
10916
-6.57809
2.60731
1.47742
6.5652
5.85179
-3.71338
-20.3719
-28.8154
-17.6451
1.34363
23.6847
35.006
34.2654
10.4441
-46.023
-125.449
-209.833
-221.892
-192.267
-133.224
-48.2732
32.2646
80.4833
88.86
78.5176
66.3612
59.8686
59.0382
61.7598
68.9582
78.1115
84.9493
86.654
76.7936
65.4364
54.5151
45.9414
40.9708
39.6148
40.9066
42.9113
45.67
49.4252
53.5118
58.299
64.6789
68.3752
64.3271
50.7686
20.1368
-58.5707
-168.334
-233.175
-236.811
-165.945
92.649
1992.14
5839.39
6775.11
9392.82
-5.29967
5.53539
4.35924
8.63031
7.4344
-2.91416
-22.203
-35.4087
-28.727
-7.0848
12.4637
34.3604
46.5695
28.406
-19.867
-84.7532
-134.371
-203.806
-200.929
-170.175
-72.2721
20.1394
94.2046
104.569
86.8291
69.7822
60.4373
57.8821
60.1518
67.525
75.8332
85.3994
87.8476
78.1704
66.5135
55.5233
46.734
41.3976
39.4345
41.1672
44.7911
47.6352
50.2561
54.8533
61.8166
69.7113
73.6935
64.8531
43.9447
6.24471
-76.5615
-179.466
-229.535
-228.506
-165.762
49.9634
1839.77
5152.41
5836.55
7920.75
23.3465
7.81437
5.43992
10.9144
9.10669
-2.84338
-28.8056
-49.3014
-48.795
-25.2437
9.80106
39.9102
60.6236
43.5399
-11.7881
-85.8189
-167.556
-179.987
-60.524
-104.98
-81.5308
-3.07777
91.9849
113.906
89.7029
68.0757
56.9485
54.4656
57.8558
64.5146
75.6228
91.9937
95.8301
81.0804
68.4431
56.0062
45.7511
39.7904
37.3479
39.1245
42.7872
45.5047
47.5922
50.4006
54.048
58.9505
62.9106
53.1223
26.8994
-13.8664
-95.2359
-185.649
-223.995
-222.425
-162.716
24.9509
1925.49
3970.33
4092.27
6121
63.1456
18.8442
8.96312
12.0605
8.89532
-1.5072
-23.4749
-46.0553
-46.266
-15.0683
23.6007
48.6889
66.5458
39.9516
-9.32087
-74.7474
-128.31
-128.727
-330.65
-335.875
-242.151
39.9176
76.9033
110.084
104.133
67.4133
52.875
51.8315
58.6831
73.5906
90.9215
93.5004
87.4062
76.9996
66.8712
57.4052
48.2873
41.5549
39.4088
40.5511
43.2981
45.1943
47.2597
48.6914
49.0134
45.5175
36.5561
21.467
-6.75422
-49.1384
-124.11
-193.901
-218.769
-217.316
-167.072
-35.4487
1064.83
1311.9
1249.47
3458.2
32.7205
13.9672
6.26641
9.67368
8.51782
-2.61666
-34.2524
-63.3867
-49.3267
-25.2365
55.0432
117.452
98.385
42.6085
-28.7
-109.716
-152.642
-147.932
-157.287
-166.951
-166.004
-92.4617
12.537
83.1562
86.5222
60.0702
47.7865
47.6942
54.969
65.6841
77.6841
84.5383
82.1601
75.6371
67.7202
58.8603
50.1332
43.0618
40.5177
40.4484
41.5217
43.3146
45.1644
45.526
41.2715
31.3836
16.5164
-4.61937
-34.7709
-78.9802
-141.322
-191.728
-210.201
-216.679
-177.521
-66.93
617.092
775.169
648.034
2598.15
-0.269655
2.3017
2.3931
4.87726
3.36886
-6.99829
-29.169
-44.9364
-31.7317
-1.04018
31.4748
56.5171
58.2777
24.8935
-37.028
-108.232
-155.344
-161.782
-157.896
-154.838
-140.616
-71.1189
3.56631
58.7115
65.5898
53.7196
46.0585
45.2438
50.1775
59.6426
71.1583
79.4021
81.1216
75.1333
66.7294
56.2732
47.1501
41.5739
39.8305
40.2757
41.53
43.009
44.2205
43.8111
39.7629
30.8439
17.5835
-4.67263
-36.4365
-79.6433
-137.537
-190.203
-214.776
-214.025
-180.611
-170.523
-83.0097
-106.67
62.4822
2477.24
10.7592
4.75287
2.21176
2.15995
-0.453361
-9.1976
-23.9706
-32.2489
-21.7112
3.43697
31.7248
46.5508
34.9996
5.37366
-39.4407
-89.5281
-124.024
-136.638
-141.514
-147.089
-127.595
-65.3088
-1.86935
40.6817
50.2437
46.4704
44.1064
46.2412
51.7451
59.7018
69.1754
75.9153
76.585
71.9091
64.4349
55.6794
48.1411
43.0728
40.9094
40.8076
41.4094
42.2762
42.5223
40.4782
34.658
23.9413
9.18805
-12.9842
-46.4663
-92.0556
-153.785
-203.116
-222.623
-226.169
-232.723
-305.811
-333.307
-460.263
-655.382
882.032
8.4103
3.87782
1.42648
0.352954
-2.46237
-9.23007
-18.6051
-22.7368
-14.2232
2.48464
18.1399
27.8168
16.9504
-7.47694
-40.7006
-76.9443
-103.894
-116.738
-119.624
-115.065
-94.4544
-51.4711
-4.36655
27.1598
38.2454
40.2719
41.6714
45.1056
50.6223
57.7545
65.5146
71.025
71.8003
68.6173
62.8658
55.7483
49.3185
44.9245
42.8611
42.4108
42.2212
41.6787
40.0352
35.9078
28.1953
15.2726
-3.38193
-30.597
-69.4482
-119.729
-172.594
-208.312
-227.193
-245.243
-281.557
-311.079
-341.378
-417.887
-755.614
-67.4103
10.0404
4.06518
1.02184
-0.57871
-3.34965
-8.56454
-14.7156
-16.6222
-9.78693
2.53935
13.0098
15.6148
5.38631
-14.5697
-40.5255
-68.0463
-89.6174
-101.083
-103.362
-97.5628
-76.5908
-42.6296
-7.19978
17.6011
29.7202
35.2002
39.0762
43.4925
49.0352
55.5383
62.1238
66.6707
67.7831
65.5465
61.1318
55.4138
50.0069
46.083
43.9025
42.8401
41.8542
40.1435
36.5481
30.1409
20.0315
4.49883
-17.8319
-47.7264
-86.6378
-132.921
-177.873
-208.528
-228.196
-245.494
-274.11
-304.445
-333.445
-374.345
-685.584
-227.069
8.54525
3.80544
0.944346
-1.03031
-3.70467
-7.84459
-12.0241
-12.7853
-7.61367
0.645228
7.20466
7.23978
-2.07988
-18.7684
-39.7647
-61.4664
-78.9813
-88.5743
-89.643
-81.7443
-64.2122
-37.4872
-9.77359
11.1213
23.7502
31.2801
36.8078
42.0135
47.5927
53.5867
59.3526
63.4833
64.7506
63.2138
59.6951
54.9972
50.3546
46.6831
44.1878
42.3788
40.3553
37.2858
32.1326
24.0818
12.2154
-5.21584
-29.3596
-59.7177
-95.2737
-135.516
-172.231
-199.779
-218.234
-233.715
-256.899
-284.702
-313.189
-343.03
-594.42
-61.1467
8.10334
3.52211
0.888967
-1.20546
-3.78439
-7.12582
-10.0637
-10.2639
-6.52593
-0.72195
3.18353
1.76731
-6.8582
-21.3048
-39.1222
-57.1503
-71.7
-79.7387
-80.0938
-72.3798
-56.5673
-34.5613
-11.6994
6.78422
19.5801
28.2577
34.8203
40.6024
46.2785
51.9693
57.204
60.9532
62.4381
61.4361
58.5869
54.6503
50.5992
47.1603
44.4785
42.1277
39.3311
35.2277
28.7685
19.1819
5.84255
-12.6327
-37.2584
-66.2297
-97.626
-128.246
-158.326
-183.452
-202.294
-217.95
-236.313
-256.898
-273.675
-289.098
-354.092
131.814
6.3902
2.85723
0.880514
-1.20699
-3.72794
-6.56156
-8.75107
-8.65971
-5.81542
-1.61353
0.677874
-1.57332
-9.6991
-22.7014
-38.511
-54.3276
-67.0165
-74.024
-73.9769
-66.4441
-52.0564
-32.875
-12.8667
4.15251
16.9138
26.2038
33.3861
39.5402
45.3021
50.8308
55.745
59.2758
60.8028
60.1096
57.679
54.2009
50.4699
47.0665
44.1196
41.2062
37.7061
32.8065
25.6215
15.9447
2.67681
-15.0333
-37.5461
-63.0947
-91.1905
-119.639
-147.003
-170.941
-189.607
-204.966
-220.863
-234.209
-239.172
-221.074
-103.05
278.405
5.31019
2.21781
0.792411
-1.27581
-3.77086
-6.36021
-8.2369
-8.04405
-5.57044
-2.17642
-0.603727
-3.20079
-11.0842
-23.4002
-38.2273
-52.9841
-64.7616
-71.2803
-71.0412
-63.6295
-49.9618
-32.1046
-13.4124
2.91623
15.6288
25.1698
32.6305
38.9637
44.7775
50.2434
55.0273
58.4751
60.0105
59.4555
57.2139
53.9266
50.3325
46.9707
43.9436
40.9001
37.2533
32.2793
25.1145
15.3597
2.26934
-15.1173
-36.5673
-61.2531
-87.8029
-115.069
-141.463
-164.303
-182.785
-197.675
-211.614
-221.27
-219.455
-181.568
14.383
351.221
4.64812
0.571239
-1.37847
-3.73955
-5.93618
-7.73617
-9.00611
-9.51294
-9.52431
-9.61171
-10.5459
-12.5651
-15.4717
-18.8235
-22.2942
-25.4097
-27.6167
-28.2945
-27.085
-23.9987
-19.3537
-13.6264
-7.22576
-0.5343
6.16716
12.6959
19.0537
25.3702
31.7012
37.8574
43.3311
47.473
49.8217
50.3863
49.4674
47.575
45.2587
43.0706
41.4048
40.0553
38.2526
35.1034
29.8956
21.9266
11.076
-3.42496
-22.6659
-46.0492
-72.3156
-99.5523
-126.623
-152.829
-178.922
-208.361
-242.925
-277.052
-301.658
-290.489
-117.509
225.637
5.68099
1.18146
-1.4281
-3.91749
-6.1059
-7.93371
-9.22829
-9.70057
-9.60863
-9.58804
-10.5106
-12.5894
-15.5364
-18.8562
-22.2841
-25.4048
-27.6675
-28.4073
-27.2103
-24.0976
-19.4174
-13.6623
-7.24046
-0.52407
6.19688
12.738
19.0821
25.41
31.8289
38.1381
43.7985
48.0827
50.4148
50.8586
49.7754
47.7534
45.3185
43.0553
41.4629
40.333
38.8458
35.8576
30.6819
22.381
11.5892
-3.33463
-23.6862
-48.3753
-75.8848
-103.757
-130.96
-156.62
-181.957
-211.605
-248.732
-289.22
-323.19
-332.054
-230.035
159.866
7.33285
1.92331
-1.62827
-4.32568
-6.52176
-8.38589
-9.71791
-10.1222
-9.81992
-9.59064
-10.5167
-12.7437
-15.7686
-18.9911
-22.2895
-25.3908
-27.7655
-28.625
-27.4505
-24.2804
-19.5364
-13.7358
-7.28424
-0.517931
6.22683
12.7641
19.0655
25.4028
31.9625
38.55
44.5806
49.0873
51.3663
51.6427
50.3528
48.1085
45.455
43.1056
41.7667
41.3572
40.8505
38.713
34.0682
26.0057
14.4972
-1.57277
-23.734
-51.2157
-82.0134
-111.892
-139.518
-164.474
-188.058
-218.529
-261.59
-315.989
-367.498
-410.372
-491.19
-9.68737
7.67778
2.0159
-2.02139
-4.83661
-7.03204
-8.98214
-10.3877
-10.7185
-10.1097
-9.58941
-10.5886
-13.1112
-16.2531
-19.336
-22.3355
-25.2921
-27.7534
-28.7674
-27.626
-24.384
-19.5672
-13.7444
-7.28398
-0.46118
6.32289
12.8128
19.0656
25.443
32.2383
39.2766
45.9036
50.4575
52.7613
52.8351
51.2749
48.6761
45.6061
42.9047
41.7345
42.2822
43.3739
42.9339
39.8965
32.7924
21.1156
3.42383
-22.0557
-53.8745
-90.7793
-124.587
-151.724
-174.818
-194.031
-219.516
-266.675
-336.212
-404.1
-464.087
-759.084
-249.474
8.05323
1.89233
-2.54952
-5.42977
-7.63869
-9.67197
-11.1455
-11.4038
-10.6086
-9.81486
-11.0464
-14.1568
-17.4987
-20.1913
-22.5151
-24.9962
-27.4563
-28.6904
-27.6062
-24.2796
-19.4334
-13.6607
-7.24504
-0.401424
6.40563
12.8331
18.9857
25.3748
32.4769
40.0376
46.9506
52.0024
54.322
54.0691
52.0607
48.8922
45.1746
42.0262
41.1375
43.0224
46.2533
48.7522
47.8463
43.2519
33.9561
17.4785
-11.2982
-51.4256
-97.9959
-135.982
-163.5
-184.231
-203.32
-221.725
-262.016
-342.087
-424.118
-497.881
-841.752
-397.709
8.13075
2.23002
-2.85952
-6.07064
-8.42133
-10.5024
-11.9239
-12.1072
-11.5303
-10.5865
-12.543
-16.5429
-20.0282
-21.9431
-23.0124
-24.2329
-26.3559
-27.85
-26.9613
-23.7051
-18.9708
-13.3458
-7.01534
-0.177086
6.64168
12.9639
18.9644
25.3445
32.8146
41.0045
48.4648
53.9136
56.1786
55.3439
52.6223
48.5639
43.8402
39.6876
38.7231
41.6288
46.7268
51.3837
53.4489
52.0971
47.1318
36.2835
11.6504
-30.0841
-83.6297
-136.929
-173.018
-196.638
-209.197
-220.161
-257.176
-341.75
-405.785
-488.873
-770.814
213.41
5.04058
2.45822
-2.53186
-6.76577
-9.52491
-11.3538
-12.2201
-12.1206
-12.3295
-12.3769
-15.6771
-20.8218
-24.28
-25.0089
-24.1409
-23.0017
-24.3578
-26.3982
-25.9293
-22.7564
-18.0958
-12.6627
-6.55582
0.125363
6.81086
12.9309
18.7648
25.1277
32.9519
41.881
50.3007
56.3943
58.4756
56.8013
53.257
48.1333
42.3633
37.5067
36.514
40.0321
45.8704
52.5146
57.3285
58.7985
56.9553
51.011
32.5252
-4.9787
-59.0393
-122.319
-176.947
-211.394
-217.625
-224.402
-246.843
-331.49
-347.086
-337.262
-156.794
2906.76
3.45395
4.71968
-1.61256
-7.38169
-11.1132
-12.2698
-11.943
-11.198
-12.2335
-14.1799
-19.2891
-25.4813
-29.1353
-29.7847
-26.8319
-21.957
-21.5336
-24.2388
-24.3607
-21.251
-16.6826
-11.5819
-5.82096
0.553675
7.00338
12.8767
18.4887
24.652
32.4894
41.7908
51.2044
58.5212
60.5656
57.772
53.5375
47.3007
40.4168
34.572
32.791
36.002
43.0775
51.8037
58.9057
63.2822
66.0045
65.5851
54.1771
25.4566
-18.7576
-79.7103
-153.417
-206.961
-221.747
-223.752
-203.048
-194.161
-0.754046
454.434
1852.58
5255.51
-9.98233
5.9094
1.37579
-6.54534
-12.4769
-12.1698
-8.86457
-6.72775
-10.7097
-16.8994
-25.3424
-35.9902
-42.3812
-36.1858
-29.4387
-20.0808
-16.1888
-20.1024
-21.3033
-18.0853
-13.5692
-9.18364
-4.24832
1.54568
7.56341
13.1155
18.443
24.3593
31.9637
40.6583
50.4628
58.599
61.0355
58.3541
53.9305
46.676
39.2391
33.4264
31.3055
33.7971
38.4754
45.1986
51.9284
55.7255
58.892
60.4131
57.493
39.1325
6.77844
-36.6511
-102.946
-179.464
-216.777
-215.824
-176.157
-104.897
1132.62
2175.74
4226.05
6211.4
17.6721
18.663
6.81179
-6.22929
-17.5644
-16.1858
-10.131
-6.30654
-14.4999
-28.176
-38.3514
-44.1345
-35.7942
-42.1135
-39.1339
-20.3013
-9.96544
-16.5294
-19.4226
-15.5443
-10.7835
-6.71151
-2.14567
3.42148
9.45269
14.8886
19.7513
25.4336
32.8839
41.8705
53.2798
62.5106
63.1804
60.114
54.1484
45.5479
37.3569
31.6927
30.7535
35.9945
43.2108
50.3685
57.6214
61.8928
64.126
62.585
52.7672
31.6353
0.112176
-48.7438
-116.81
-173.124
-209.757
-209.836
-160.005
6.62864
2193.71
3077.52
3362.37
5357.13
71.4835
23.2135
10.2097
-11.9264
-26.1082
-17.9712
3.17974
20.6678
17.5858
-15.3779
-47.3229
-69.2174
-78.6335
-85.6637
-29.6445
7.07695
14.0456
-4.26756
-12.5933
-9.52626
-5.31302
-2.2396
1.3882
6.74477
12.9147
18.7268
23.8764
29.8219
37.4112
46.2374
56.9065
64.6096
63.8635
60.0499
52.5001
43.54
35.0916
28.7624
27.8131
33.4175
40.9552
50.0224
58.7767
63.7995
67.5456
67.8121
62.0521
44.9371
13.4976
-41.5851
-123.864
-187.674
-213.352
-203.884
-153.21
26.5828
1682.6
1917.78
1670.27
3655.18
96.3489
30.3557
15.0215
2.92112
-17.8243
-25.0262
-13.6982
6.34764
5.14214
-13.851
-43.9816
-45.1836
-57.6259
-10.214
23.725
35.8575
36.6696
2.94489
-13.1353
-7.46882
0.945936
5.34446
8.74338
13.7112
18.6717
22.5183
26.0848
31.7868
39.8157
47.7095
54.774
60.6711
61.7209
58.7773
52.4403
43.4981
34.7949
28.7155
28.2526
34.0191
40.427
49.4452
59.043
63.6674
67.7267
67.2234
60.4391
45.2875
17.7575
-30.2422
-112.994
-184.371
-212.039
-207.051
-149.173
126.287
1174.82
1179.86
953.001
3405.01
80.7604
27.4135
9.76876
-0.686796
-13.8653
-18.8812
-11.2005
16.0189
24.7892
-13.5739
-63.378
-82.5268
-106.841
-128.024
-58.0155
10.7771
24.3845
-3.94907
-14.7914
2.19842
17.481
16.1755
11.2758
11.2731
14.1597
18.9951
24.3289
31.5488
40.6693
50.6529
59.6204
63.2164
63.1058
59.8479
53.1271
44.1454
35.5689
29.9005
29.8104
35.6533
42.0248
50.6034
60.5846
66.5256
66.9449
65.4038
57.7531
42.2993
15.8257
-26.3088
-98.7923
-178.8
-209.926
-216.479
-159.001
111.217
1210.88
1592.05
1435.04
4409.21
44.1709
18.8815
0.363959
-5.396
-12.2765
-16.4642
-10.2581
9.81631
18.7021
-7.09504
-49.4154
-79.4929
-97.9583
-115.781
-89.5839
-45.0455
-8.19438
-6.83815
4.0781
7.81593
8.30881
6.82686
8.35983
11.3065
15.8316
19.9605
24.5486
31.0026
41.3114
54.655
63.9663
66.0561
64.4214
59.6381
52.3444
43.1097
34.0644
28.6643
29.0844
35.3398
41.8155
48.738
56.5967
61.9273
63.3065
60.7935
52.4121
34.293
6.32485
-35.0359
-93.0462
-167.463
-208.176
-215.52
-173.428
-10.2488
1547.62
3774.85
3695.59
7511.96
-9.19581
1.09729
-4.5913
-4.61377
-8.25683
-11.9731
-9.77236
3.67599
11.2313
-3.84129
-33.8904
-59.1374
-83.6326
-106.22
-93.4148
-59.5034
-32.725
-12.6742
8.40573
16.9917
12.1169
8.08326
7.16434
9.68076
15.3046
20.6211
25.2616
30.4013
39.5345
52.1149
63.4341
67.5859
65.2854
62.6091
53.7261
43.1818
33.7109
29.0486
30.5428
35.7646
40.1047
44.8211
51.5886
55.6401
54.8294
48.6344
37.5092
20.807
-3.86372
-37.0116
-95.5823
-167.617
-215.224
-217.541
-183.165
-52.2637
1539.24
4854.31
6297.53
11094
-21.6248
-7.46709
-7.82431
-6.95428
-8.04647
-9.22656
-8.59244
-0.506327
4.56258
-4.91083
-23.6894
-45.1184
-72.1674
-94.6726
-89.5648
-64.1109
-36.678
-11.1448
5.09305
8.0719
6.10118
6.28906
7.74541
11.1165
16.5079
22.0077
27.0871
32.3968
38.6383
48.88
58.6936
63.5348
64.0456
61.7466
54.9386
44.9759
36.6872
33.5788
35.6862
39.5328
43.7438
47.3022
50.9628
51.4575
47.6116
39.6573
26.8306
7.81268
-25.8044
-77.0998
-147.912
-225.144
-230.387
-206.078
-183.513
-95.7062
697.571
2398.55
3115.5
8462.48
-26.8503
-10.3063
-8.02619
-6.16154
-6.53877
-7.65721
-8.64576
-4.16388
1.03691
0.0498655
-12.0224
-32.8002
-61.106
-86.2594
-86.0534
-67.9853
-44.5835
-18.3605
-0.597933
2.97805
4.29723
3.40043
6.55869
11.7811
17.7888
23.7576
28.249
33.767
39.9341
48.1694
56.0951
60.5467
62.2071
60.7344
55.2451
45.4831
36.6814
32.3897
31.9505
34.7787
37.6261
40.1358
43.4266
45.1481
42.1653
33.4498
19.9009
-4.50375
-43.8886
-98.9866
-160.874
-193.417
-206.34
-196.491
-181.539
-168.353
116.258
781.685
958.396
4844.89
1.42732
-0.116743
-3.88498
-4.7176
-5.68998
-7.5719
-9.19379
-7.14582
-4.05867
-4.82718
-12.2017
-27.2404
-47.8456
-62.5209
-70.6371
-64.4768
-50.3296
-32.0254
-16.9221
-9.8361
-6.80014
-0.882177
5.67643
12.7213
19.7326
26.4497
32.5682
38.4504
44.7436
51.4056
56.9397
59.8351
60.5836
58.7337
52.7576
44.0409
36.8669
33.6051
34.7096
38.7957
43.4072
46.9573
49.9502
49.7182
43.7848
32.5621
12.9874
-19.9213
-66.2884
-125.924
-182.763
-211.956
-207.804
-201.522
-187.905
-281.837
-295.851
-351.717
-751.059
352.283
2.56981
-1.72575
-3.31643
-4.0772
-5.20495
-6.90418
-8.44335
-8.01561
-6.90227
-8.06441
-13.6882
-24.5968
-39.2021
-51.2844
-57.4596
-55.8796
-48.1994
-36.2877
-24.8082
-16.1741
-9.43679
-2.43059
5.52808
13.4421
20.782
27.209
32.8688
39.0669
45.0349
50.9588
55.8201
58.9059
59.9633
58.6841
53.0528
45.5615
39.555
36.7206
37.4476
39.8429
43.0545
45.7483
46.9945
44.6338
35.5026
18.8507
-8.67498
-50.2615
-108.622
-165.961
-207.115
-214.908
-209.457
-201.993
-235.263
-302.845
-356.253
-472.027
-983.672
-403.945
6.13548
1.20579
-1.78104
-3.34104
-4.88617
-6.72641
-8.3877
-8.83567
-8.65957
-9.84218
-14.1051
-22.1299
-32.8733
-42.8521
-49.4858
-51.2213
-47.537
-39.9156
-30.9048
-22.3273
-13.0574
-3.72986
5.71888
14.5777
22.4483
29.2822
35.3612
40.7575
45.7889
50.567
54.3511
56.3337
57.1479
56.0161
51.9656
46.3776
41.7169
39.4921
39.8769
41.4238
43.3902
44.149
42.5682
36.111
23.4274
1.72386
-31.1109
-75.703
-128.185
-169.844
-195.068
-203.973
-204.937
-215.089
-249.817
-304.55
-381.499
-465.892
-988.52
-325.793
6.95406
1.99042
-0.787099
-2.68964
-4.48863
-6.46499
-8.26292
-9.22909
-9.65671
-10.8436
-14.2732
-20.6
-29.1953
-37.9188
-44.7654
-48.2083
-47.2533
-42.2474
-34.5954
-25.5178
-15.4574
-4.81064
5.63793
15.102
23.2302
30.0893
35.9825
41.1636
45.8833
50.0843
53.5729
55.3781
55.8396
54.5815
51.2732
46.9012
43.1304
41.0633
40.6858
41.169
41.6035
40.8322
37.1702
28.5682
13.0353
-11.4665
-45.258
-86.9243
-128.615
-158.525
-179.041
-187.497
-191.902
-209.034
-242.49
-287.261
-339.189
-416.167
-787.142
-32.2391
7.17851
2.60516
-0.176036
-2.24006
-4.17848
-6.25905
-8.17879
-9.46872
-10.2625
-11.4916
-14.4298
-19.7345
-27.1425
-35.1863
-42.1872
-46.5903
-47.2121
-43.7844
-36.9754
-27.71
-16.9819
-5.51573
5.62336
15.5326
23.8654
30.7454
36.5108
41.487
45.87
49.6392
52.6323
54.3398
54.7469
53.527
50.7361
47.1429
43.9266
41.9053
41.0945
40.7993
40.1985
38.0217
32.6935
22.4296
5.50803
-19.1436
-50.1447
-84.9564
-117.202
-142.744
-162.474
-173.468
-181.082
-198.448
-225.367
-256.156
-284.779
-314.022
-389.025
376.669
5.87445
2.1782
0.192218
-1.8188
-3.89075
-6.03253
-8.04789
-9.52102
-10.563
-11.8467
-14.5173
-19.231
-25.9566
-33.6055
-40.6848
-45.6391
-47.1303
-44.5431
-38.1751
-28.9553
-17.8802
-5.94931
5.60402
15.7923
24.2577
31.157
36.8644
41.73
45.9518
49.4937
52.2267
53.7527
54.0033
52.8546
50.3965
47.2614
44.3455
42.2942
41.1446
40.3078
38.945
35.7655
29.3565
18.3431
1.48702
-21.5053
-49.0624
-78.9166
-107.028
-130.966
-149.941
-162.413
-172.459
-188.073
-209.429
-229.284
-239.065
-216.948
-47.5214
630.859
4.91888
1.66126
0.294148
-1.68119
-3.798
-5.96085
-8.00697
-9.55957
-10.7035
-12.0279
-14.5899
-19.0552
-25.479
-32.9399
-40.0408
-45.233
-47.1238
-44.9518
-38.8279
-29.6131
-18.3606
-6.20857
5.54036
15.8572
24.3863
31.2978
36.981
41.7984
45.9701
49.3849
51.9198
53.4164
53.6438
52.5294
50.2241
47.2946
44.5057
42.4342
41.1184
40.0092
38.2836
34.7774
28.1907
17.0981
0.575879
-20.9019
-46.1721
-74.0038
-100.233
-123.164
-142.239
-156.113
-167.816
-183.182
-201.436
-215.59
-216.336
-171.14
101.539
700.291
4.35865
1.82374
0.575382
-1.22673
-3.83831
-6.62679
-8.66699
-8.29152
-5.23894
-1.12765
0.869253
-1.73971
-10.0594
-22.9629
-38.2506
-53.2378
-65.0876
-71.5734
-71.3088
-64.0577
-50.7273
-33.2354
-14.7833
1.47531
14.2133
23.8418
31.4352
37.9523
44.0164
49.8043
55.0007
58.8134
60.5562
59.9444
57.4749
53.9218
50.0952
46.598
43.5203
40.4337
36.5215
31.0316
23.0841
12.1245
-2.57969
-22.076
-45.8661
-71.7481
-98.8507
-125.979
-151.482
-173.53
-190.519
-204.455
-220.546
-236.948
-245.303
-218.199
-6.86781
459.728
4.45262
2.00173
0.609668
-1.24087
-3.94611
-6.88119
-9.04421
-8.49347
-4.90126
-0.147227
2.1724
-0.503975
-9.21394
-22.5698
-38.1503
-53.1767
-64.8856
-71.1383
-70.6871
-63.6145
-50.7001
-33.7827
-15.8902
0.0162769
12.616
22.2755
29.9956
36.6972
43.004
49.142
54.8322
59.1647
61.2283
60.7021
58.1654
54.43
50.3951
46.768
43.5933
40.2863
36.0053
29.7656
20.5554
8.16785
-7.91153
-28.9266
-53.8393
-79.4874
-105.133
-131.168
-155.581
-176.862
-192.966
-205.969
-223.068
-246.552
-264.505
-251.062
-27.0958
651.527
2.91194
1.49968
0.291531
-1.35004
-4.0787
-7.12425
-9.35318
-8.61778
-4.52236
0.748482
3.29316
0.492458
-8.55832
-22.2357
-37.9656
-52.8743
-64.2938
-70.2005
-69.4564
-62.5127
-49.9973
-33.7985
-16.7137
-1.41534
10.874
20.4804
28.2945
35.1506
41.6556
48.039
54.0853
58.8019
60.9624
60.2214
57.2243
53.0098
48.5446
44.4512
40.8186
36.8997
31.7818
24.5314
14.7032
2.81819
-11.6186
-30.9926
-54.0673
-77.8122
-101.303
-126.829
-151.147
-173.015
-189.349
-201.451
-218.924
-249.024
-274.01
-274.57
-42.2424
959.119
2.16124
1.02752
-0.0750341
-1.61758
-4.28602
-7.38878
-9.64051
-8.71732
-4.24111
1.3875
4.0754
1.10834
-8.2208
-22.0817
-37.7579
-52.3811
-63.4019
-68.8536
-67.632
-60.6313
-48.5968
-33.2527
-17.206
-2.73629
9.09439
18.5644
26.4323
33.4396
40.1428
46.8385
53.4002
58.6813
61.2738
60.6963
57.871
53.7382
49.3205
45.4203
42.2112
39.0511
34.9694
29.3702
21.6008
11.2964
-2.93194
-23.1321
-45.5368
-67.7551
-92.5931
-121.042
-147.162
-169.095
-186.164
-196.136
-210.583
-243.187
-269.698
-277.728
-31.4029
1387.06
0.0887342
0.346109
-0.633079
-1.95169
-4.57017
-7.62114
-9.76171
-8.63053
-3.92704
1.74891
4.33418
1.19449
-8.06075
-21.6829
-37.0163
-51.211
-61.8298
-66.6783
-64.9915
-57.8873
-46.3593
-32.1766
-17.4364
-3.99217
7.25918
16.5183
24.4084
31.5704
38.5386
45.582
52.5389
58.297
61.2658
60.8409
57.837
53.5493
49.1398
45.258
42.3414
39.7265
35.9855
30.5469
23.0904
13.28
-0.341321
-20.1205
-43.7146
-68.3101
-94.2156
-121.941
-148.063
-170.861
-188.641
-197.597
-204.733
-230.496
-250.58
-264.274
34.1582
1840.78
0.964289
0.0118297
-1.1683
-2.7169
-4.96675
-7.70965
-9.48013
-8.24662
-3.74379
1.43713
3.71086
0.680459
-8.15831
-21.0734
-35.7012
-49.3688
-59.4061
-63.6432
-61.7397
-54.6783
-43.8221
-30.7069
-17.1724
-4.70113
5.99758
15.0211
22.8558
30.0925
37.2457
44.466
51.5363
57.3955
60.6202
60.4836
57.6397
53.538
49.1167
45.2708
42.4879
39.8916
36.3779
31.0596
23.7008
13.9156
0.743454
-17.9727
-41.579
-67.1287
-93.5787
-120.407
-145.692
-170
-191.017
-204.383
-191.645
-207.455
-233.443
-259.593
111.356
2230.3
-1.54646
-1.01227
-1.72344
-3.15389
-5.29505
-7.76134
-9.21874
-7.94827
-3.85339
0.815988
2.65559
-0.260644
-8.5068
-20.5614
-34.2656
-47.0201
-56.0675
-59.8155
-58.0149
-51.3431
-41.192
-29.1224
-16.6814
-5.09423
5.06163
13.8242
21.5718
28.7529
36.0105
43.4059
50.5776
56.4425
59.6802
59.6564
56.8687
52.8261
48.5444
44.8976
42.214
39.8567
36.6192
31.5775
24.4168
14.532
1.01063
-16.671
-39.3434
-64.9371
-91.9608
-118.976
-144.05
-170.657
-197.558
-207.639
-198.105
-214.442
-237.432
-283.803
141.499
2746.46
-0.431251
-0.988949
-1.94066
-3.4737
-5.59065
-7.85704
-9.12797
-7.83277
-4.11582
-0.107756
1.44131
-1.33737
-8.85734
-19.8428
-32.4197
-44.2123
-52.7046
-56.3843
-54.7398
-48.4163
-38.9353
-27.733
-16.1827
-5.3119
4.40259
12.8965
20.4768
27.5746
34.8281
42.3707
49.6681
55.5515
58.7711
58.8242
56.3086
52.4387
48.2576
44.4731
41.592
39.3239
36.2673
31.1621
23.1506
12.6561
-0.280314
-16.4391
-38.5923
-63.8951
-90.8672
-118.465
-142.787
-165.097
-181.927
-194.568
-215.434
-243.512
-259.726
-312.22
81.7853
2524.85
-0.69099
-1.19144
-2.18782
-3.76039
-5.84821
-7.94443
-9.09704
-7.93387
-4.71023
-1.25119
-0.022054
-2.6636
-9.46358
-19.2561
-30.4749
-41.0423
-48.7745
-52.1704
-50.6172
-45.003
-36.4391
-26.174
-15.4662
-5.20896
4.09726
12.3304
19.7357
26.7806
34.0278
41.5869
48.8676
54.6653
57.8098
57.8989
55.5026
51.782
47.641
43.7826
40.7089
38.2927
34.9043
29.6958
22.2377
12.601
0.1895
-15.8755
-38.1777
-63.9387
-90.1976
-116.013
-140.876
-164.847
-184.771
-206.406
-243.468
-278.996
-286.047
-320.284
-0.451311
1900.95
0.87878
-0.808847
-2.19884
-3.92434
-6.06258
-8.05521
-9.17778
-8.21904
-5.48777
-2.58533
-1.71663
-4.25856
-10.3401
-18.9618
-28.8034
-38.139
-45.0224
-48.0833
-46.7932
-41.7835
-33.9404
-24.5644
-14.6719
-5.0132
3.8957
11.8886
19.1616
26.1925
33.4376
40.9843
48.1999
53.8509
56.8899
56.9302
54.6062
51.0272
46.9647
43.0955
39.8322
36.7009
32.5109
26.2449
17.5294
6.28385
-6.73114
-22.2588
-41.9925
-65.6215
-91.892