/*--------------------------------*- C++ -*----------------------------------*\
| =========                 |                                                 |
| \\      /  F ield         | OpenFOAM: The Open Source CFD Toolbox           |
|  \\    /   O peration     | Version:  2.1.1                                 |
|   \\  /    A nd           | Web:      www.OpenFOAM.org                      |
|    \\/     M anipulation  |                                                 |
\*---------------------------------------------------------------------------*/
FoamFile
{
    version     2.0;
    format      ascii;
    class       surfaceScalarField;
    location    "0.00135";
    object      phi;
}
// * * * * * * * * * * * * * * * * * * * * * * * * * * * * * * * * * * * * * //

dimensions      [0 3 -1 0 0 0 0];

internalField   nonuniform List<scalar> 
105695
(
-2.24286e-08
-1.07229e-07
-3.10433e-08
1.60701e-07
-5.58248e-08
5.85292e-10
-2.23623e-09
3.50471e-08
-1.00829e-07
3.27602e-08
1.48587e-08
-2.61464e-09
-1.26682e-07
2.96745e-08
4.37105e-08
-4.75316e-08
-1.52474e-07
3.16386e-08
6.49705e-08
-7.08171e-08
-1.74885e-07
3.2189e-08
8.06411e-08
-9.04196e-08
-1.98486e-07
3.40319e-08
9.1439e-08
-1.0187e-07
-2.17713e-07
3.05612e-08
9.28754e-08
-1.04209e-07
-2.30627e-07
2.55122e-08
8.77677e-08
-1.00366e-07
-2.35911e-07
1.96365e-08
8.49513e-08
-9.93037e-08
-2.39686e-07
1.93304e-08
9.12308e-08
-1.06786e-07
-2.50357e-07
2.7395e-08
1.14212e-07
-1.30937e-07
-2.76052e-07
4.33474e-08
1.47668e-07
-1.6532e-07
-3.20346e-07
6.18475e-08
1.83314e-07
-2.00867e-07
-3.79609e-07
7.54636e-08
2.02498e-07
-2.18699e-07
-4.41972e-07
7.58746e-08
1.92665e-07
-2.06176e-07
-4.91159e-07
5.88367e-08
1.47031e-07
-1.56681e-07
-5.1277e-07
2.65242e-08
7.41463e-08
-7.90598e-08
-5.03037e-07
-1.00551e-08
-5.54402e-09
5.86589e-09
-4.6758e-07
-4.21645e-08
-7.21761e-08
7.88837e-08
-4.16894e-07
-6.26234e-08
-1.12104e-07
1.24042e-07
-3.68317e-07
-6.40831e-08
-1.16401e-07
1.31908e-07
-3.36297e-07
-5.042e-08
-8.98312e-08
1.08231e-07
-3.22222e-07
-3.3595e-08
-5.17075e-08
7.12269e-08
-3.1909e-07
-2.14256e-08
-1.80906e-08
3.63848e-08
-3.20414e-07
-1.41693e-08
6.3699e-09
9.12278e-09
-3.23231e-07
-1.02824e-08
2.29766e-08
-9.87731e-09
-3.26516e-07
-6.85645e-09
3.43144e-08
-2.41729e-08
-3.30602e-07
-2.78774e-09
4.28143e-08
-3.59403e-08
-3.36045e-07
1.60417e-09
4.96592e-08
-4.58206e-08
-3.43108e-07
6.06985e-09
5.53406e-08
-5.43468e-08
-3.5158e-07
9.84877e-09
6.00899e-08
-6.14675e-08
-3.60848e-07
1.25602e-08
6.4111e-08
-6.74023e-08
-3.70287e-07
1.43632e-08
6.77333e-08
-7.26581e-08
-3.79435e-07
1.55815e-08
7.15558e-08
-7.79889e-08
-3.87855e-07
1.60504e-08
7.58593e-08
-8.34898e-08
-3.95182e-07
1.61517e-08
8.07206e-08
-8.95456e-08
-4.01361e-07
1.62363e-08
8.70376e-08
-9.70944e-08
-4.06504e-07
1.64104e-08
9.53601e-08
-1.06627e-07
-4.11603e-07
1.75547e-08
1.07026e-07
-1.19482e-07
-4.18326e-07
2.10042e-08
1.21451e-07
-1.35732e-07
-4.28768e-07
2.8178e-08
1.35497e-07
-1.53233e-07
-4.45416e-07
4.12256e-08
1.43845e-07
-1.68422e-07
-4.70639e-07
6.11506e-08
1.40111e-07
-1.76039e-07
-5.05405e-07
8.6355e-08
1.17526e-07
-1.69115e-07
-5.50624e-07
1.14095e-07
7.75763e-08
-1.46452e-07
-6.10006e-07
1.44026e-07
2.46735e-08
-1.09318e-07
-6.84481e-07
1.77672e-07
-5.48564e-08
-4.83399e-08
-7.76247e-07
2.09084e-07
-1.47362e-07
3.00448e-08
-8.79638e-07
2.24295e-07
-2.53047e-07
1.32143e-07
-9.80786e-07
2.11324e-07
-3.76842e-07
2.66667e-07
-1.06348e-06
1.65673e-07
-4.9923e-07
4.16252e-07
-1.11611e-06
1.02354e-07
-6.2254e-07
5.72809e-07
-1.1469e-06
4.13825e-08
-7.39561e-07
7.28976e-07
-1.16515e-06
-1.25851e-08
-8.55593e-07
8.8642e-07
-1.1704e-06
-6.89564e-08
-9.84664e-07
1.05887e-06
-1.1775e-06
-1.17897e-07
-1.16207e-06
1.28706e-06
-1.16393e-06
-1.90473e-07
-1.4549e-06
1.6318e-06
-9.1201e-07
-5.08352e-07
-2.03753e-06
2.29397e-06
-1.15155e-06
-2.66586e-06
2.90539e-06
-1.44226e-07
-8.79144e-08
-9.17704e-09
1.34088e-07
-1.96418e-07
3.11549e-08
3.81004e-08
-1.64777e-08
-2.30508e-07
6.21578e-08
3.7958e-08
-3.32653e-08
-2.53923e-07
5.95855e-08
6.92922e-08
-7.57881e-08
-2.78741e-07
6.46727e-08
7.85125e-08
-8.67293e-08
-3.00738e-07
6.56115e-08
9.56402e-08
-1.07066e-07
-3.24966e-07
6.94874e-08
1.02455e-07
-1.13682e-07
-3.44899e-07
6.18443e-08
1.02271e-07
-1.13621e-07
-3.57957e-07
5.12715e-08
9.30114e-08
-1.05713e-07
-3.62933e-07
3.92127e-08
8.66725e-08
-1.01273e-07
-3.6626e-07
3.77618e-08
8.91737e-08
-1.04278e-07
-3.7602e-07
5.33966e-08
1.10926e-07
-1.27167e-07
-4.0132e-07
8.43178e-08
1.44292e-07
-1.59963e-07
-4.45832e-07
1.21518e-07
1.81402e-07
-1.9656e-07
-5.06136e-07
1.49198e-07
2.00863e-07
-2.14294e-07
-5.70417e-07
1.51125e-07
1.90562e-07
-2.01531e-07
-6.19682e-07
1.16069e-07
1.39471e-07
-1.47438e-07
-6.39169e-07
5.07366e-08
5.88895e-08
-6.36149e-08
-6.2662e-07
-2.05805e-08
-2.85764e-08
2.65524e-08
-5.88072e-07
-8.48132e-08
-1.00321e-07
1.04422e-07
-5.34705e-07
-1.25652e-07
-1.41855e-07
1.51516e-07
-4.84621e-07
-1.28205e-07
-1.4424e-07
1.58279e-07
-4.5327e-07
-9.99521e-08
-1.11708e-07
1.29889e-07
-4.40775e-07
-6.65169e-08
-6.91233e-08
8.95494e-08
-4.38719e-07
-4.30565e-08
-3.36335e-08
5.32087e-08
-4.4037e-07
-2.97303e-08
-9.27588e-09
2.64886e-08
-4.42647e-07
-2.18791e-08
6.92871e-09
6.94457e-09
-4.45143e-07
-1.584e-08
1.82039e-08
-6.72478e-09
-4.48216e-07
-8.3364e-09
2.66626e-08
-1.80402e-08
-4.52622e-07
1.92853e-10
3.3316e-08
-2.74991e-08
-4.58649e-07
8.95779e-09
3.87009e-08
-3.55613e-08
-4.66086e-07
1.63097e-08
4.3233e-08
-4.2257e-08
-4.74264e-07
2.13539e-08
4.71313e-08
-4.77476e-08
-4.82538e-07
2.45243e-08
5.06744e-08
-5.25616e-08
-4.90656e-07
2.66192e-08
5.43838e-08
-5.73032e-08
-4.98373e-07
2.73155e-08
5.82693e-08
-6.18173e-08
-5.05107e-07
2.65815e-08
6.30884e-08
-6.67842e-08
-5.10516e-07
2.55559e-08
6.87313e-08
-7.26418e-08
-5.14633e-07
2.47129e-08
7.58438e-08
-8.00298e-08
-5.18255e-07
2.60009e-08
8.61011e-08
-9.09248e-08
-5.22811e-07
3.16388e-08
9.86338e-08
-1.04713e-07
-5.29553e-07
4.42138e-08
1.10074e-07
-1.19368e-07
-5.39423e-07
6.73563e-08
1.14977e-07
-1.31238e-07
-5.5317e-07
1.02544e-07
1.07949e-07
-1.35595e-07
-5.72144e-07
1.46285e-07
8.71179e-08
-1.28073e-07
-6.02653e-07
1.98308e-07
5.48422e-08
-1.08546e-07
-6.48714e-07
2.59608e-07
8.14115e-09
-7.76618e-08
-7.11544e-07
3.28833e-07
-6.50777e-08
-2.3254e-08
-7.91096e-07
3.91444e-07
-1.47679e-07
4.48706e-08
-8.84658e-07
4.30521e-07
-2.52909e-07
1.40246e-07
-9.87833e-07
4.23686e-07
-3.89772e-07
2.80585e-07
-1.08777e-06
3.44314e-07
-5.27087e-07
4.48384e-07
-1.15471e-06
2.06063e-07
-6.6504e-07
6.28268e-07
-1.19371e-06
7.50054e-08
-8.04817e-07
8.10195e-07
-1.21573e-06
-3.5423e-08
-9.2757e-07
9.72425e-07
-1.22236e-06
-1.60962e-07
-1.06154e-06
1.16017e-06
-1.22602e-06
-2.66492e-07
-1.23488e-06
1.38714e-06
-1.21714e-06
-4.23663e-07
-1.51091e-06
1.73523e-06
-1.09514e-06
-9.62584e-07
-2.10194e-06
2.43417e-06
-2.62923e-06
-2.83677e-06
3.21932e-06
-1.95772e-07
-3.1024e-08
6.98562e-09
1.31896e-07
-2.60936e-07
7.53836e-08
4.46772e-08
-2.37418e-08
-2.97393e-07
9.60642e-08
4.98166e-08
-4.72658e-08
-3.16815e-07
8.88871e-08
7.25618e-08
-8.24416e-08
-3.38202e-07
9.79521e-08
8.28224e-08
-9.47145e-08
-3.60286e-07
1.00987e-07
1.02825e-07
-1.16117e-07
-3.85252e-07
1.06756e-07
1.09999e-07
-1.22301e-07
-4.0576e-07
9.49926e-08
1.08656e-07
-1.21297e-07
-4.17988e-07
7.82158e-08
9.51917e-08
-1.09908e-07
-4.21232e-07
6.05408e-08
8.37075e-08
-1.01791e-07
-4.21389e-07
5.91353e-08
8.04519e-08
-1.01669e-07
-4.27685e-07
8.20864e-08
1.04185e-07
-1.26579e-07
-4.51444e-07
1.27857e-07
1.4408e-07
-1.6386e-07
-4.97451e-07
1.84134e-07
1.92094e-07
-2.08702e-07
-5.62684e-07
2.26831e-07
2.21089e-07
-2.3349e-07
-6.33938e-07
2.31297e-07
2.14415e-07
-2.23332e-07
-6.88663e-07
1.78219e-07
1.56593e-07
-1.64019e-07
-7.0793e-07
7.75431e-08
5.99973e-08
-6.75364e-08
-6.92859e-07
-3.0709e-08
-4.18808e-08
3.69386e-08
-6.48249e-07
-1.27695e-07
-1.28564e-07
1.26836e-07
-5.85551e-07
-1.91546e-07
-1.78578e-07
1.81774e-07
-5.27091e-07
-1.95857e-07
-1.78518e-07
1.8771e-07
-4.93197e-07
-1.50686e-07
-1.33889e-07
1.50729e-07
-4.82007e-07
-9.95132e-08
-8.05496e-08
1.02356e-07
-4.81751e-07
-6.56598e-08
-3.89695e-08
6.13164e-08
-4.84363e-07
-4.79223e-08
-1.20497e-08
3.28541e-08
-4.86872e-07
-3.78316e-08
5.81018e-09
1.26511e-08
-4.89249e-07
-2.91709e-08
1.75496e-08
-1.84126e-09
-4.92358e-07
-1.77642e-08
2.64628e-08
-1.39268e-08
-4.96913e-07
-4.10808e-09
3.33659e-08
-2.45098e-08
-5.03059e-07
1.04936e-08
3.86347e-08
-3.4024e-08
-5.10637e-07
2.25131e-08
4.3134e-08
-4.176e-08
-5.1918e-07
3.04671e-08
4.70804e-08
-4.76504e-08
-5.27977e-07
3.47228e-08
5.09802e-08
-5.23819e-08
-5.36344e-07
3.65965e-08
5.53322e-08
-5.69423e-08
-5.44296e-07
3.60341e-08
6.0456e-08
-6.1222e-08
-5.51055e-07
3.2838e-08
6.6167e-08
-6.56647e-08
-5.56398e-07
2.89319e-08
7.27869e-08
-7.08201e-08
-5.6026e-07
2.49768e-08
8.1415e-08
-7.78172e-08
-5.63203e-07
2.41274e-08
9.35622e-08
-8.87454e-08
-5.66683e-07
3.02744e-08
1.08464e-07
-1.03619e-07
-5.7116e-07
4.63205e-08
1.23752e-07
-1.21382e-07
-5.7747e-07
7.8793e-08
1.34211e-07
-1.39338e-07
-5.8761e-07
1.29961e-07
1.36404e-07
-1.53681e-07
-6.01278e-07
1.91409e-07
1.27471e-07
-1.58927e-07
-6.21376e-07
2.63012e-07
1.12638e-07
-1.57244e-07
-6.47521e-07
3.49526e-07
8.1764e-08
-1.45536e-07
-6.80068e-07
4.54313e-07
2.22528e-08
-1.15187e-07
-7.18104e-07
5.55831e-07
-6.56764e-08
-6.06751e-08
-7.61287e-07
6.29349e-07
-1.89618e-07
3.39729e-08
-8.0858e-07
6.3763e-07
-3.37928e-07
1.71279e-07
-8.73508e-07
5.38223e-07
-4.83e-07
3.54019e-07
-9.6675e-07
3.6511e-07
-6.29937e-07
5.64131e-07
-1.08044e-06
2.07516e-07
-7.89093e-07
7.70277e-07
-1.15549e-06
2.3813e-08
-9.3942e-07
9.55229e-07
-1.18936e-06
-1.77159e-07
-1.09133e-06
1.14139e-06
-1.21118e-06
-3.40584e-07
-1.26102e-06
1.35693e-06
-1.21779e-06
-5.9481e-07
-1.52997e-06
1.70773e-06
-1.22102e-06
-1.26574e-06
-2.1347e-06
2.4411e-06
-4.33226e-06
-3.14095e-06
3.62296e-06
-2.28192e-07
5.54936e-08
1.05845e-08
1.3109e-07
-3.01724e-07
1.25691e-07
5.74885e-08
-3.42634e-08
-3.45515e-07
1.36185e-07
6.36377e-08
-5.99673e-08
-3.64468e-07
1.20264e-07
7.87739e-08
-9.11984e-08
-3.82062e-07
1.34096e-07
9.40507e-08
-1.12602e-07
-4.0521e-07
1.42538e-07
1.15807e-07
-1.34211e-07
-4.32653e-07
1.50167e-07
1.2632e-07
-1.42288e-07
-4.56672e-07
1.34172e-07
1.23224e-07
-1.38384e-07
-4.69507e-07
1.09497e-07
1.02707e-07
-1.21154e-07
-4.7028e-07
8.68038e-08
8.14097e-08
-1.069e-07
-4.66638e-07
9.03078e-08
7.00044e-08
-1.04819e-07
-4.69544e-07
1.22568e-07
9.39057e-08
-1.31482e-07
-4.92993e-07
1.81723e-07
1.4592e-07
-1.76337e-07
-5.43439e-07
2.52204e-07
2.1462e-07
-2.32245e-07
-6.16809e-07
3.06974e-07
2.62636e-07
-2.69409e-07
-6.97482e-07
3.12188e-07
2.62914e-07
-2.63132e-07
-7.60427e-07
2.41918e-07
1.94297e-07
-1.95051e-07
-7.80173e-07
1.05551e-07
7.05597e-08
-7.88218e-08
-7.60528e-07
-4.2334e-08
-5.7596e-08
4.9576e-08
-7.07424e-07
-1.66837e-07
-1.70811e-07
1.56848e-07
-6.30439e-07
-2.51755e-07
-2.39032e-07
2.22256e-07
-5.58527e-07
-2.56697e-07
-2.36617e-07
2.25545e-07
-5.20388e-07
-1.93566e-07
-1.70523e-07
1.75264e-07
-5.11574e-07
-1.25601e-07
-9.73573e-08
1.14631e-07
-5.14425e-07
-8.46592e-08
-4.50862e-08
6.69368e-08
-5.18528e-07
-6.62937e-08
-1.31596e-08
3.56345e-08
-5.21069e-07
-5.62965e-08
6.78429e-09
1.42213e-08
-5.22924e-07
-4.69473e-08
2.16678e-08
-2.03592e-09
-5.25314e-07
-3.33346e-08
3.42283e-08
-1.6268e-08
-5.29389e-07
-1.39377e-08
4.32584e-08
-2.93542e-08
-5.34965e-07
7.28812e-09
5.05291e-08
-4.17476e-08
-5.42481e-07
2.63618e-08
5.67591e-08
-5.30916e-08
-5.51412e-07
3.90573e-08
6.23247e-08
-6.19838e-08
-5.61299e-07
4.57188e-08
6.79193e-08
-6.90281e-08
-5.71255e-07
4.79061e-08
7.45244e-08
-7.58784e-08
-5.81107e-07
4.54425e-08
8.28423e-08
-8.2399e-08
-5.89719e-07
3.79792e-08
9.12317e-08
-8.77613e-08
-5.9637e-07
2.89308e-08
9.94675e-08
-9.28153e-08
-6.00717e-07
1.92788e-08
1.09103e-07
-9.90577e-08
-6.02835e-07
1.26525e-08
1.22304e-07
-1.08711e-07
-6.04056e-07
1.47354e-08
1.3952e-07
-1.2276e-07
-6.02779e-07
2.71607e-08
1.58616e-07
-1.40733e-07
-5.97453e-07
6.13977e-08
1.73867e-07
-1.61797e-07
-5.88138e-07
1.21578e-07
1.83583e-07
-1.84515e-07
-5.6732e-07
1.91733e-07
1.81799e-07
-2.02941e-07
-5.28482e-07
2.75002e-07
1.62787e-07
-2.13615e-07
-4.68405e-07
3.7609e-07
1.29489e-07
-2.1613e-07
-3.90718e-07
5.00538e-07
8.13748e-08
-2.05286e-07
-3.00199e-07
6.30985e-07
1.3461e-08
-1.79135e-07
-2.0597e-07
7.36563e-07
-7.55684e-08
-1.25875e-07
-1.26562e-07
7.61618e-07
-1.89955e-07
-1.34404e-08
-7.38513e-08
6.4561e-07
-3.10453e-07
1.50355e-07
-1.05959e-07
4.5685e-07
-3.98154e-07
3.38522e-07
-3.06787e-07
3.46812e-07
-4.86191e-07
5.47723e-07
-6.27338e-07
2.31889e-07
-6.83645e-07
7.9612e-07
-8.596e-07
6.41844e-09
-9.59482e-07
1.00817e-06
-9.73254e-07
-2.29743e-07
-1.21727e-06
1.22009e-06
-1.01922e-06
-6.13169e-07
-1.50363e-06
1.56796e-06
-1.11938e-06
-1.32174e-06
-2.14383e-06
2.29999e-06
-6.011e-06
-3.4775e-06
4.03686e-06
-2.60054e-07
1.65042e-07
5.16778e-08
9.8827e-08
-3.45223e-07
1.83981e-07
7.23976e-08
-4.55179e-08
-3.90573e-07
1.83338e-07
6.62454e-08
-6.80485e-08
-4.07875e-07
1.52597e-07
8.61558e-08
-1.01187e-07
-4.26653e-07
1.7294e-07
1.08007e-07
-1.28072e-07
-4.56441e-07
1.84413e-07
1.38241e-07
-1.50328e-07
-4.91399e-07
1.89969e-07
1.56058e-07
-1.60901e-07
-5.20339e-07
1.65887e-07
1.52514e-07
-1.55289e-07
-5.33012e-07
1.34046e-07
1.20133e-07
-1.32009e-07
-5.28776e-07
1.11791e-07
8.32417e-08
-1.12466e-07
-5.17458e-07
1.28488e-07
6.13456e-08
-1.10844e-07
-5.12913e-07
1.77735e-07
8.8413e-08
-1.48124e-07
-5.29999e-07
2.52187e-07
1.57771e-07
-2.11149e-07
-5.75471e-07
3.2662e-07
2.51977e-07
-2.80921e-07
-6.45459e-07
3.78093e-07
3.26433e-07
-3.27564e-07
-7.25833e-07
3.76359e-07
3.39411e-07
-3.23208e-07
-7.8916e-07
2.91359e-07
2.59241e-07
-2.45355e-07
-8.00055e-07
1.25266e-07
9.65122e-08
-1.05331e-07
-7.76011e-07
-5.24617e-08
-7.44039e-08
6.04876e-08
-7.2353e-07
-1.79607e-07
-2.26888e-07
1.87177e-07
-6.36907e-07
-2.70669e-07
-3.29938e-07
2.62228e-07
-5.51035e-07
-2.82685e-07
-3.19659e-07
2.59774e-07
-5.07816e-07
-2.17263e-07
-2.11923e-07
1.92401e-07
-5.00014e-07
-1.46582e-07
-1.05446e-07
1.18624e-07
-5.04226e-07
-1.08396e-07
-3.73082e-08
6.52564e-08
-5.08447e-07
-9.55754e-08
9.78308e-10
3.2524e-08
-5.09844e-07
-9.0172e-08
2.40005e-08
1.12728e-08
-5.09713e-07
-8.44081e-08
4.25608e-08
-5.23085e-09
-5.08852e-07
-7.07984e-08
5.74979e-08
-2.08956e-08
-5.0849e-07
-4.687e-08
6.93242e-08
-3.67534e-08
-5.08924e-07
-1.8312e-08
7.86062e-08
-5.25724e-08
-5.10859e-07
8.87727e-09
8.5977e-08
-6.65579e-08
-5.15311e-07
2.91753e-08
9.27754e-08
-7.84409e-08
-5.2382e-07
4.10155e-08
1.00369e-07
-8.71562e-08
-5.36097e-07
4.42262e-08
1.10639e-07
-9.46821e-08
-5.51532e-07
3.8307e-08
1.24665e-07
-1.02095e-07
-5.67043e-07
2.18839e-08
1.41005e-07
-1.09398e-07
-5.80659e-07
2.7528e-10
1.59457e-07
-1.17186e-07
-5.93079e-07
-2.33995e-08
1.7985e-07
-1.24751e-07
-6.02301e-07
-4.68329e-08
2.04674e-07
-1.35967e-07
-6.09876e-07
-5.74526e-08
2.35436e-07
-1.55672e-07
-6.14414e-07
-5.62283e-08
2.71345e-07
-1.83418e-07
-6.11779e-07
-2.78502e-08
3.09966e-07
-2.23352e-07
-6.06576e-07
4.25002e-08
3.53037e-07
-2.79163e-07
-5.93712e-07
1.13392e-07
4.02151e-07
-3.36673e-07
-5.64491e-07
1.83994e-07
4.47909e-07
-3.86121e-07
-5.07589e-07
2.70649e-07
4.75869e-07
-4.2733e-07
-4.17572e-07
3.93598e-07
4.76415e-07
-4.59491e-07
-2.86798e-07
5.48618e-07
4.40769e-07
-4.89176e-07
-1.15688e-07
7.10247e-07
3.42183e-07
-4.86976e-07
1.3639e-07
7.63878e-07
1.30722e-07
-3.8506e-07
4.72476e-07
5.67873e-07
-8.12624e-08
-1.77087e-07
7.10636e-07
3.27942e-07
-1.74171e-07
6.49175e-08
7.50573e-07
3.19403e-07
-2.19263e-07
2.06735e-07
6.26798e-07
2.96143e-07
-2.52689e-07
3.12211e-07
3.63202e-07
1.17851e-07
-3.43048e-07
4.95211e-07
8.6821e-08
-9.16079e-08
-6.26059e-07
7.64305e-07
-2.77727e-07
-2.9229e-07
-1.07316e-06
1.11683e-06
-5.05357e-07
-1.01296e-06
-1.83235e-06
1.7512e-06
-7.05155e-06
-3.52377e-06
4.05897e-06
-3.21635e-07
3.27265e-07
9.83217e-08
6.10913e-08
-4.0801e-07
2.36017e-07
9.6716e-08
-6.23785e-08
-4.56999e-07
2.30758e-07
8.85867e-08
-8.70174e-08
-4.71883e-07
1.79082e-07
1.05355e-07
-1.16956e-07
-4.87847e-07
2.01975e-07
1.38525e-07
-1.51596e-07
-5.1752e-07
2.12063e-07
1.80795e-07
-1.78773e-07
-5.54314e-07
2.109e-07
2.04946e-07
-1.89082e-07
-5.83136e-07
1.72554e-07
2.00242e-07
-1.78087e-07
-5.86881e-07
1.3758e-07
1.46005e-07
-1.45795e-07
-5.66015e-07
1.27753e-07
8.30365e-08
-1.19864e-07
-5.35725e-07
1.71239e-07
4.64885e-08
-1.1953e-07
-5.11287e-07
2.45516e-07
7.22698e-08
-1.64489e-07
-5.06058e-07
3.30541e-07
1.60368e-07
-2.43952e-07
-5.17935e-07
3.86378e-07
2.82779e-07
-3.3066e-07
-5.39514e-07
3.87888e-07
3.94797e-07
-3.83013e-07
-5.57438e-07
3.39827e-07
4.31994e-07
-3.77539e-07
-5.5836e-07
2.30425e-07
3.52564e-07
-2.90708e-07
-5.32163e-07
5.89113e-08
1.64998e-07
-1.2484e-07
-5.08663e-07
-1.05597e-07
-4.71928e-08
7.68277e-08
-4.96155e-07
-1.73626e-07
-2.47296e-07
2.28807e-07
-4.50729e-07
-1.83557e-07
-4.46589e-07
3.14051e-07
-3.74243e-07
-1.94149e-07
-4.69363e-07
3.04341e-07
-3.3066e-07
-1.73008e-07
-3.06267e-07
2.1843e-07
-3.21184e-07
-1.37718e-07
-1.49618e-07
1.31278e-07
-3.21885e-07
-1.22194e-07
-5.88456e-08
7.3345e-08
-3.20883e-07
-1.27189e-07
-1.0046e-08
4.06575e-08
-3.13819e-07
-1.3597e-07
1.88081e-08
1.99266e-08
-3.02441e-07
-1.41402e-07
4.18158e-08
3.79958e-09
-2.87902e-07
-1.35062e-07
6.25759e-08
-1.28501e-08
-2.70164e-07
-1.14566e-07
8.10055e-08
-3.10486e-08
-2.48888e-07
-8.29631e-08
9.07292e-08
-4.73538e-08
-2.26111e-07
-4.59271e-08
9.14201e-08
-5.93929e-08
-2.08417e-07
-7.07222e-09
8.69369e-08
-6.83835e-08
-2.01002e-07
2.53333e-08
8.39602e-08
-7.5693e-08
-2.06264e-07
4.46543e-08
8.57614e-08
-8.09273e-08
-2.23297e-07
4.73184e-08
9.60557e-08
-8.80336e-08
-2.44561e-07
2.70147e-08
1.11314e-07
-9.51811e-08
-2.68198e-07
-6.39093e-09
1.32668e-07
-1.02365e-07
-2.97547e-07
-4.71321e-08
1.63567e-07
-1.10485e-07
-3.32083e-07
-9.52638e-08
2.0205e-07
-1.19083e-07
-3.70421e-07
-1.32507e-07
2.45403e-07
-1.32009e-07
-4.09079e-07
-1.58785e-07
2.92244e-07
-1.5103e-07
-4.39452e-07
-1.57432e-07
3.44106e-07
-1.84151e-07
-4.57355e-07
-9.74529e-08
4.08756e-07
-2.50899e-07
-4.58202e-07
-4.83721e-08
4.94352e-07
-3.31742e-07
-4.46683e-07
-2.04875e-08
6.0264e-07
-4.09677e-07
-4.12783e-07
1.38888e-08
7.05465e-07
-4.82605e-07
-3.44218e-07
1.03668e-07
7.81916e-07
-5.60551e-07
-2.31344e-07
2.51907e-07
8.16023e-07
-6.32186e-07
-2.52777e-08
4.35821e-07
7.40422e-07
-6.72063e-07
3.31299e-07
5.21553e-07
4.79569e-07
-5.93821e-07
7.24346e-07
4.28624e-07
8.88797e-08
-3.42678e-07
9.57691e-07
3.0378e-07
-1.28513e-07
-8.06686e-08
1.06837e-06
2.71015e-07
-1.16939e-07
5.46448e-08
1.2095e-06
1.54722e-07
-1.2822e-07
1.28518e-07
1.29058e-06
-4.26516e-08
-1.53804e-07
2.33227e-07
1.27301e-06
-1.82622e-07
-2.24485e-07
3.33068e-07
1.16865e-06
-3.05624e-07
-3.50599e-07
4.68286e-07
7.50256e-07
-7.44596e-07
-6.97675e-07
8.47704e-07
-7.11795e-06
-3.0493e-06
3.86595e-06
-3.96239e-07
5.10345e-07
2.98162e-07
-8.50031e-08
-4.82833e-07
2.71919e-07
1.36611e-07
-8.59176e-08
-5.31602e-07
2.8596e-07
9.89135e-08
-1.05347e-07
-5.3388e-07
1.94366e-07
1.1499e-07
-1.27995e-07
-5.3451e-07
2.19619e-07
1.54791e-07
-1.71806e-07
-5.48638e-07
2.09558e-07
2.23058e-07
-2.06425e-07
-5.76042e-07
1.81019e-07
2.77387e-07
-2.20102e-07
-5.85982e-07
1.07719e-07
2.76584e-07
-2.01808e-07
-5.56809e-07
7.91581e-08
1.8535e-07
-1.56101e-07
-4.97852e-07
1.19427e-07
6.85069e-08
-1.19137e-07
-4.23897e-07
2.29486e-07
-9.05703e-09
-1.23145e-07
-3.4798e-07
3.39373e-07
2.99167e-09
-1.72765e-07
-2.72232e-07
4.1707e-07
1.0005e-07
-2.62328e-07
-1.90242e-07
4.00028e-07
2.62099e-07
-3.57738e-07
-9.46674e-08
2.98106e-07
4.15495e-07
-4.21287e-07
1.86851e-08
1.61883e-07
4.89879e-07
-4.25287e-07
1.45627e-07
3.37461e-08
4.14031e-07
-3.44294e-07
2.439e-07
-8.05218e-08
2.14326e-07
-1.73166e-07
2.7655e-07
-1.66183e-07
-2.65318e-09
3.05893e-08
2.19905e-07
-1.74953e-07
-1.47758e-07
2.0573e-07
1.58847e-07
-9.65072e-08
-3.34448e-07
3.08456e-07
1.6996e-07
-5.24228e-09
-5.17639e-07
3.1762e-07
1.87623e-07
-4.55566e-10
-4.23253e-07
2.33038e-07
1.72111e-07
-3.47787e-08
-2.2209e-07
1.34663e-07
1.45749e-07
-7.15484e-08
-9.58392e-08
7.15556e-08
1.2218e-07
-1.08692e-07
-3.2306e-08
3.73778e-08
1.08762e-07
-1.48043e-07
1.11703e-08
1.43202e-08
1.08496e-07
-1.89836e-07
5.42236e-08
-5.52363e-09
1.21515e-07
-2.1612e-07
9.38103e-08
-2.57717e-08
1.46647e-07
-2.15994e-07
1.2328e-07
-4.69824e-08
1.81496e-07
-1.90335e-07
1.39335e-07
-6.68122e-08
2.25894e-07
-1.46819e-07
1.38883e-07
-8.23884e-08
2.74967e-07
-8.50996e-08
1.22757e-07
-9.38034e-08
3.22842e-07
-2.13001e-08
1.00377e-07
-1.01618e-07
3.64456e-07
2.66321e-08
8.04178e-08
-1.04009e-07
3.96313e-07
5.41231e-08
6.50273e-08
-1.03689e-07
4.14454e-07
5.24961e-08
5.70592e-08
-1.00681e-07
4.1717e-07
3.02048e-08
5.8221e-08
-9.75332e-08
4.09728e-07
-1.29401e-08
6.9022e-08
-9.57716e-08
3.81953e-07
-6.93958e-08
9.91694e-08
-9.72631e-08
3.29523e-07
-1.20668e-07
1.48082e-07
-1.07491e-07
2.56579e-07
-1.71909e-07
2.11869e-07
-1.258e-07
1.76828e-07
-2.16343e-07
2.81003e-07
-1.42343e-07
1.47816e-07
-2.30768e-07
3.49239e-07
-1.86911e-07
1.95675e-07
-2.72196e-07
4.1711e-07
-2.41145e-07
2.8604e-07
-3.40991e-07
5.31971e-07
-3.01834e-07
3.7153e-07
-3.83057e-07
6.68806e-07
-3.5735e-07
4.44812e-07
-3.47776e-07
7.85725e-07
-4.07563e-07
5.36208e-07
-2.2339e-07
8.52383e-07
-4.68481e-07
6.80161e-07
-2.50632e-08
8.26964e-07
-5.10032e-07
8.20718e-07
1.62664e-07
7.01438e-07
-4.83106e-07
9.08029e-07
2.35481e-07
4.68588e-07
-3.62756e-07
1.00441e-06
2.45333e-07
1.46795e-07
-1.84729e-07
1.39165e-06
-1.07499e-08
1.82141e-09
-1.07296e-07
1.83604e-06
-2.48842e-07
-2.7973e-08
-1.2856e-08
1.96223e-06
-1.98122e-07
-6.54628e-08
9.47451e-08
1.96816e-06
-2.47426e-07
-1.0697e-07
1.65849e-07
1.91747e-06
-3.32105e-07
-1.6356e-07
2.40728e-07
1.63914e-06
-6.51906e-07
-2.91747e-07
4.77388e-07
-6.65723e-06
-2.51625e-06
3.69467e-06
-5.77563e-07
7.97692e-07
3.76023e-07
-8.58075e-08
-5.70449e-07
2.40071e-07
1.23711e-07
-9.89757e-08
-5.54812e-07
2.87968e-07
1.2094e-07
-1.38586e-07
-4.81005e-07
1.45071e-07
1.41183e-07
-1.65695e-07
-4.09377e-07
1.63808e-07
1.95486e-07
-2.11303e-07
-3.48688e-07
1.10087e-07
2.80926e-07
-2.42145e-07
-2.86778e-07
4.21643e-08
3.16514e-07
-2.39568e-07
-1.91783e-07
-5.54229e-08
2.57285e-07
-1.89138e-07
-5.15927e-08
-8.72968e-08
1.45996e-07
-1.19732e-07
9.50302e-08
9.70115e-09
3.96701e-08
-7.65676e-08
2.35057e-07
2.07881e-07
-4.53917e-08
-7.303e-08
3.99752e-07
3.94704e-07
-9.75889e-08
-1.22438e-07
6.14585e-07
4.53924e-07
-3.05065e-08
-2.2118e-07
8.70313e-07
3.50668e-07
1.09133e-07
-3.155e-07
1.11748e-06
1.11506e-07
3.1119e-07
-3.71754e-07
1.33028e-06
-1.10084e-07
4.38266e-07
-3.791e-07
1.49298e-06
-2.19255e-07
4.17563e-07
-3.27259e-07
1.59803e-06
-2.6144e-07
2.77102e-07
-2.01237e-07
1.61159e-06
-2.3833e-07
1.06705e-07
-4.81219e-08
1.48953e-06
-1.20522e-07
-5.25161e-08
1.20152e-07
1.33324e-06
2.34745e-08
-1.84436e-07
2.20738e-07
1.29265e-06
1.04755e-07
-3.03088e-07
2.33684e-07
1.32119e-06
9.8621e-08
-3.14e-07
1.86381e-07
1.30929e-06
5.70129e-08
-2.01544e-07
1.21653e-07
1.24596e-06
2.73136e-08
-1.16415e-07
8.08845e-08
1.16353e-06
-1.00745e-09
-8.3927e-08
5.867e-08
1.08191e-06
-3.93064e-08
-6.98654e-08
4.27536e-08
1.01437e-06
-1.14744e-07
-3.34554e-08
2.59028e-08
9.69978e-07
-1.98568e-07
2.53153e-08
1.52427e-09
9.51972e-07
-2.54668e-07
8.90608e-08
-3.23814e-08
9.58882e-07
-2.83023e-07
1.50578e-07
-6.47999e-08
9.89611e-07
-2.68185e-07
1.82048e-07
-9.14114e-08
1.0355e-06
-2.04632e-07
1.84945e-07
-1.11297e-07
1.09478e-06
-1.16192e-07
1.59853e-07
-1.24243e-07
1.16156e-06
-3.73436e-08
1.2776e-07
-1.30568e-07
1.23318e-06
1.67678e-08
9.68255e-08
-1.31092e-07
1.30137e-06
3.95185e-08
7.00837e-08
-1.25289e-07
1.35829e-06
4.05887e-08
5.1186e-08
-1.18489e-07
1.40539e-06
1.36553e-08
3.84803e-08
-1.12179e-07
1.43558e-06
-3.04619e-08
3.95624e-08
-1.08687e-07
1.44251e-06
-7.0175e-08
5.29443e-08
-1.10367e-07
1.41906e-06
-1.06105e-07
7.91297e-08
-1.21486e-07
1.36011e-06
-1.40306e-07
1.20408e-07
-1.3749e-07
1.31003e-06
-1.8179e-07
1.82888e-07
-1.81787e-07
1.29716e-06
-2.66974e-07
2.53596e-07
-2.45947e-07
1.3156e-06
-4.01435e-07
3.60277e-07
-3.18273e-07
1.3469e-06
-5.45021e-07
5.23011e-07
-3.92351e-07
1.39841e-06
-6.5231e-07
7.17048e-07
-4.64024e-07
1.49006e-06
-6.67819e-07
8.95963e-07
-5.43182e-07
1.62215e-06
-5.04377e-07
9.6581e-07
-6.1859e-07
1.73093e-06
-1.95678e-07
9.10096e-07
-6.60532e-07
1.84295e-06
-4.40546e-08
8.20895e-07
-6.5338e-07
2.1231e-06
-1.19752e-07
6.59925e-07
-5.74985e-07
2.59506e-06
-3.92786e-07
1.89426e-07
-2.79356e-07
2.88763e-06
-5.07659e-07
-6.24324e-08
2.86831e-08
2.87705e-06
-2.06948e-07
-4.70976e-08
6.6501e-08
2.80753e-06
-2.01422e-07
-8.77244e-08
1.1124e-07
2.71442e-06
-2.74071e-07
-1.40405e-07
1.75486e-07
2.50493e-06
-5.98204e-07
-2.76938e-07
4.32719e-07
-5.61152e-06
-2.72467e-06
4.18389e-06
-4.70654e-07
5.01558e-07
1.75048e-06
-9.83691e-07
-4.56664e-07
1.82716e-07
2.80738e-07
-2.37374e-07
-3.09582e-07
1.72416e-07
9.07841e-08
-1.22313e-07
-1.39508e-07
5.05875e-08
4.24674e-08
-1.18058e-07
4.17348e-08
7.20177e-08
2.02678e-08
-1.0972e-07
2.07253e-07
4.88278e-08
1.01219e-08
-1.14381e-07
3.27663e-07
3.20617e-08
6.01811e-09
-1.16326e-07
4.03151e-07
-2.24079e-08
3.54205e-09
-1.12045e-07
4.79691e-07
-8.20726e-08
8.99894e-09
-9.07637e-08
6.52989e-07
-1.10383e-07
3.92146e-08
-9.2428e-08
9.39515e-07
-6.27576e-08
9.73253e-08
-1.13212e-07
1.32856e-06
2.16292e-08
1.41623e-07
-1.57596e-07
1.76768e-06
7.24582e-08
1.35368e-07
-1.93024e-07
2.1413e-06
9.2481e-08
9.67913e-08
-2.12225e-07
2.35018e-06
4.18831e-08
5.41066e-08
-1.93365e-07
2.41209e-06
-3.47913e-08
1.39971e-08
-1.51191e-07
2.39528e-06
-8.07165e-08
-1.71229e-08
-1.04606e-07
2.31236e-06
-8.83497e-08
-4.9809e-08
-4.0367e-08
2.19359e-06
-7.89779e-08
-8.18433e-08
4.12601e-08
2.1354e-06
-5.5446e-08
-9.36507e-08
8.67679e-08
2.17445e-06
-3.86809e-08
-7.52386e-08
9.83425e-08
2.29085e-06
-4.1733e-08
-6.18488e-08
9.19343e-08
2.40071e-06
-3.42649e-08
-4.85761e-08
7.16055e-08
2.45108e-06
-5.67477e-09
-3.50019e-08
4.7317e-08
2.45465e-06
1.96993e-08
-2.43242e-08
2.83731e-08
2.4145e-06
3.81013e-08
-1.76006e-08
1.86362e-08
2.31871e-06
5.31585e-08
-1.27827e-08
1.61118e-08
2.15862e-06
4.93294e-08
-7.18752e-09
3.2035e-09
1.97582e-06
1.06016e-09
3.38947e-09
-2.02158e-08
1.84665e-06
-9.24205e-08
1.61122e-08
-4.9191e-08
1.80507e-06
-1.94458e-07
1.97368e-08
-6.67201e-08
1.81401e-06
-2.15473e-07
1.49513e-08
-7.66016e-08
1.84954e-06
-1.69611e-07
1.56168e-08
-8.61686e-08
1.90956e-06
-1.04986e-07
2.52245e-08
-9.64505e-08
1.98757e-06
-4.2992e-08
2.84702e-08
-1.00834e-07
2.08216e-06
-5.74886e-09
2.21458e-08
-9.42168e-08
2.18156e-06
1.0425e-08
1.59254e-08
-8.62326e-08
2.2785e-06
1.2228e-08
1.06285e-08
-7.9212e-08
2.35947e-06
4.34279e-09
7.35567e-09
-7.90066e-08
2.41201e-06
-7.04201e-09
5.36914e-09
-8.13323e-08
2.43206e-06
-1.31114e-08
3.82036e-09
-8.09401e-08
2.43021e-06
-1.56552e-08
3.27009e-09
-9.18688e-08
2.41366e-06
-2.03448e-08
3.76587e-09
-1.07169e-07
2.39267e-06
-3.06452e-08
4.33212e-09
-1.34493e-07
2.3685e-06
-6.34778e-08
5.97461e-09
-1.85303e-07
2.33551e-06
-1.30659e-07
1.10347e-08
-2.48814e-07
2.31219e-06
-2.19094e-07
2.15412e-08
-3.24148e-07
2.32992e-06
-3.05839e-07
3.81926e-08
-4.02394e-07
2.42347e-06
-3.53045e-07
6.24727e-08
-4.70802e-07
2.66945e-06
-3.06815e-07
1.03603e-07
-5.47142e-07
3.09976e-06
-1.69976e-07
1.45711e-07
-6.01722e-07
3.49648e-06
-7.75472e-08
1.22028e-07
-4.85256e-07
3.60075e-06
-7.66185e-08
4.58267e-08
-1.93235e-07
3.34635e-06
-1.65133e-07
-1.45277e-08
4.12815e-08
3.08676e-06
-2.80907e-07
-8.79888e-08
1.20824e-07
2.95044e-06
-5.54837e-08
-8.81209e-08
7.29798e-08
2.85524e-06
-5.06764e-08
-1.58467e-07
1.02913e-07
2.76188e-06
-8.1509e-08
-2.78269e-07
1.7907e-07
2.57762e-06
-1.94518e-07
-7.61629e-07
5.42205e-07
-1.62351e-06
-5.89535e-06
4.48496e-06
-2.41744e-07
2.29984e-07
1.64465e-06
-1.13133e-06
-2.17044e-07
1.51324e-07
3.17852e-07
-3.1116e-07
-4.45705e-08
5.32601e-08
1.20884e-07
-1.74201e-07
1.24419e-07
-2.7055e-08
5.90747e-08
-1.50421e-07
3.23785e-07
-1.10297e-08
1.49411e-08
-1.3126e-07
5.00633e-07
-1.39313e-09
2.61545e-09
-1.29243e-07
6.51278e-07
1.30057e-08
-7.15424e-10
-1.30873e-07
7.45043e-07
3.02313e-09
-6.49488e-09
-1.12701e-07
7.77379e-07
-2.91063e-08
-1.40174e-08
-7.1285e-08
8.26144e-07
-8.76622e-08
-6.06704e-09
-6.54194e-08
9.48304e-07
-1.15241e-07
1.21406e-08
-8.18175e-08
1.1643e-06
-1.09594e-07
3.66272e-08
-1.21397e-07
1.40716e-06
-5.27399e-08
6.33449e-08
-1.8101e-07
1.60956e-06
1.8995e-08
7.34339e-08
-2.02345e-07
1.72982e-06
4.10115e-08
4.81549e-08
-1.67542e-07
1.7749e-06
1.43674e-08
2.17247e-09
-9.64144e-08
1.77771e-06
-2.1415e-08
-3.45936e-08
-2.75189e-08
1.74675e-06
-3.46932e-08
-5.56055e-08
3.29097e-08
1.69614e-06
-4.22381e-08
-6.60203e-08
7.98938e-08
1.66612e-06
-6.19973e-08
-6.56669e-08
1.02233e-07
1.68408e-06
-1.00656e-07
-5.46039e-08
9.86231e-08
1.75598e-06
-1.57295e-07
-3.90305e-08
8.26886e-08
1.82636e-06
-1.43937e-07
-2.74499e-08
6.67413e-08
1.85575e-06
-6.91024e-08
-1.8546e-08
5.25807e-08
1.85689e-06
-8.8789e-09
-1.42933e-08
4.17344e-08
1.84529e-06
2.76305e-08
-1.35057e-08
3.55814e-08
1.83147e-06
4.6745e-08
-1.36821e-08
3.39154e-08
1.8117e-06
4.99746e-08
-1.20684e-08
3.11885e-08
1.76219e-06
3.52532e-08
-7.14068e-09
2.24549e-08
1.6615e-06
3.99684e-09
1.89783e-09
2.37724e-09
1.53412e-06
-5.51272e-08
1.34735e-08
-2.5418e-08
1.46848e-06
-1.17743e-07
2.14638e-08
-5.3561e-08
1.46751e-06
-1.20051e-07
2.16994e-08
-7.02873e-08
1.51768e-06
-9.47041e-08
1.80733e-08
-7.8523e-08
1.60028e-06
-5.84974e-08
1.48082e-08
-8.19072e-08
1.68343e-06
-2.76517e-08
8.90599e-09
-7.01544e-08
1.76148e-06
-1.66795e-08
2.33907e-09
-5.32784e-08
1.82349e-06
-1.37349e-08
-5.45585e-10
-3.55063e-08
1.86265e-06
-1.22553e-08
-2.25665e-10
-2.23375e-08
1.88169e-06
-1.28446e-08
7.0986e-10
-1.3941e-08
1.88719e-06
-9.31754e-09
2.81329e-10
-9.57996e-09
1.88591e-06
-4.09429e-09
-3.49932e-10
-9.93094e-09
1.88228e-06
4.39066e-09
-1.3164e-10
-2.09716e-08
1.87431e-06
6.96114e-09
4.14533e-10
-3.00548e-08
1.86355e-06
3.06093e-10
9.14017e-10
-5.39376e-08
1.84886e-06
-1.90413e-08
1.85562e-09
-9.87753e-08
1.83677e-06
-6.1786e-08
5.68897e-09
-1.50915e-07
1.85617e-06
-1.20734e-07
1.88329e-08
-2.23333e-07
1.94416e-06
-1.70771e-07
3.50589e-08