/*--------------------------------*- C++ -*----------------------------------*\
| =========                 |                                                 |
| \\      /  F ield         | OpenFOAM: The Open Source CFD Toolbox           |
|  \\    /   O peration     | Version:  2.1.1                                 |
|   \\  /    A nd           | Web:      www.OpenFOAM.org                      |
|    \\/     M anipulation  |                                                 |
\*---------------------------------------------------------------------------*/
FoamFile
{
    version     2.0;
    format      ascii;
    class       volSymmTensorField;
    location    "0.00135";
    object      R;
}
// * * * * * * * * * * * * * * * * * * * * * * * * * * * * * * * * * * * * * //

dimensions      [0 2 -2 0 0 0 0];

internalField   nonuniform List<symmTensor> 
36520
(
(0.138281 0.00309451 0.0434828 0.0456802 0.009881 0.0721969)
(0.258891 -0.0318511 0.0593433 0.105422 -0.00748502 0.0963849)
(0.491686 -0.050545 0.131631 0.206223 -0.0197159 0.185494)
(0.600522 -0.0638224 0.177191 0.263628 -0.0328204 0.238567)
(0.706323 -0.0668313 0.214213 0.307646 -0.038353 0.282699)
(0.783298 -0.0692684 0.242896 0.341615 -0.042887 0.31732)
(0.850739 -0.0694863 0.267321 0.368947 -0.0447105 0.345713)
(0.903726 -0.0684556 0.287087 0.390195 -0.0452171 0.368927)
(0.948814 -0.0674168 0.302738 0.406735 -0.0449929 0.38683)
(0.989115 -0.0662165 0.315852 0.420347 -0.0451966 0.401466)
(1.02798 -0.0631009 0.327659 0.431119 -0.0446577 0.413157)
(1.06866 -0.0574204 0.340872 0.441055 -0.0434525 0.424454)
(1.10547 -0.0469958 0.35507 0.448462 -0.0392239 0.434458)
(1.13249 -0.032982 0.369354 0.452622 -0.0317796 0.443035)
(1.13851 -0.0167711 0.379485 0.450768 -0.0206404 0.446864)
(1.11968 -0.00240022 0.38272 0.441848 -0.00788937 0.444475)
(1.07423 0.00743965 0.37641 0.42483 0.00444858 0.433643)
(1.00709 0.0102658 0.359937 0.400053 0.0134723 0.413566)
(0.92568 0.00643165 0.334506 0.368974 0.0175808 0.384885)
(0.847755 -0.00217112 0.3062 0.337726 0.0166057 0.353502)
(0.781084 -0.0126984 0.278772 0.309111 0.0116333 0.322707)
(0.727092 -0.0219918 0.254441 0.284364 0.00469683 0.29448)
(0.682163 -0.0276263 0.234367 0.263352 -0.0016155 0.270364)
(0.640342 -0.0297294 0.217256 0.244595 -0.00597653 0.249345)
(0.597525 -0.0296729 0.201151 0.226569 -0.00851877 0.22961)
(0.555443 -0.0285853 0.185876 0.209535 -0.00978169 0.211014)
(0.513695 -0.0269293 0.170927 0.192965 -0.0102277 0.192916)
(0.473836 -0.0250255 0.156746 0.177234 -0.0101611 0.17579)
(0.435725 -0.0230171 0.143311 0.162268 -0.00976278 0.159632)
(0.399429 -0.0209349 0.130745 0.148052 -0.00911474 0.144595)
(0.364944 -0.0189418 0.119106 0.134639 -0.00835639 0.130778)
(0.332194 -0.017182 0.108347 0.122035 -0.00760278 0.118136)
(0.300779 -0.0157202 0.0982213 0.110115 -0.00691992 0.106409)
(0.271148 -0.0145907 0.0887131 0.0990425 -0.00636536 0.0955778)
(0.243791 -0.0137428 0.0798654 0.088965 -0.00595681 0.0856518)
(0.219306 -0.0130974 0.0718342 0.0800436 -0.00567381 0.0767566)
(0.198058 -0.012605 0.064728 0.0723988 -0.00551434 0.0689803)
(0.180293 -0.0121684 0.0586314 0.0660914 -0.00545546 0.0623843)
(0.166272 -0.0116982 0.0536248 0.0611948 -0.00546862 0.0570275)
(0.156715 -0.0111226 0.049911 0.0579685 -0.00554412 0.0530972)
(0.152903 -0.0102692 0.0478553 0.0569371 -0.00562982 0.0509326)
(0.15695 -0.00887998 0.0479846 0.0590366 -0.00567316 0.0510984)
(0.171756 -0.00645214 0.050934 0.0656278 -0.00556783 0.0543474)
(0.199194 -0.00208536 0.0570866 0.0778026 -0.00502453 0.0611285)
(0.238006 0.00509563 0.0661322 0.0953202 -0.00354417 0.0710577)
(0.283239 0.0152841 0.0768988 0.115929 -0.000630565 0.0828002)
(0.326379 0.0281131 0.0874716 0.136015 0.00406464 0.0942936)
(0.355864 0.0415585 0.0955169 0.150724 0.0104643 0.102875)
(0.338342 0.04793 0.0927354 0.144446 0.0155577 0.0994205)
(0.285319 0.0462457 0.0815883 0.122114 0.017926 0.0870513)
(0.215846 0.0386395 0.0649426 0.0927356 0.0173255 0.0696383)
(0.147672 0.028312 0.046538 0.0638286 0.0145483 0.0510665)
(0.0931325 0.0185482 0.0300953 0.0407278 0.0108542 0.0346986)
(0.0552808 0.0112547 0.0176513 0.0245638 0.00733099 0.0220019)
(0.0317034 0.00662797 0.00978624 0.0144344 0.00466044 0.0134038)
(0.0183146 0.00397255 0.00534915 0.00873057 0.00300265 0.00830155)
(0.0110393 0.00251033 0.00302874 0.00572112 0.00211444 0.00546639)
(0.00735911 0.00155798 0.0017949 0.00457232 0.00193297 0.00442499)
(0.00741934 7.17488e-05 0.000546304 0.00629629 0.00317574 0.00665184)
(0.0124669 -0.00552212 -0.00353381 0.0156743 0.00846142 0.0172093)
(0.106597 -0.00832902 0.0202654 0.0334436 -0.00143611 0.033634)
(0.145732 -0.0189917 0.0325617 0.0574277 -0.0051026 0.0498084)
(0.179974 -0.0172493 0.0474447 0.0748308 -0.00730926 0.0674667)
(0.178688 -0.0155662 0.0508226 0.0766367 -0.00756054 0.0703098)
(0.183324 -0.013379 0.0530444 0.0785587 -0.00719919 0.0728883)
(0.182204 -0.0118737 0.0537705 0.0784537 -0.00687704 0.073631)
(0.182566 -0.0103881 0.0544834 0.0785076 -0.00626945 0.0741946)
(0.179473 -0.00908636 0.0540731 0.0770418 -0.00556782 0.0734538)
(0.178557 -0.00833752 0.0539885 0.0763169 -0.00500563 0.0729936)
(0.178749 -0.00776979 0.0540974 0.0757762 -0.00464678 0.0727199)
(0.182336 -0.0072237 0.0551787 0.0762302 -0.00442415 0.0733721)
(0.185293 -0.00625312 0.056304 0.0763273 -0.00420333 0.0737653)
(0.183711 -0.00447759 0.0564747 0.0746395 -0.00354787 0.0726543)
(0.171992 -0.00226917 0.0539681 0.0693768 -0.0024154 0.0682365)
(0.149291 -0.000365256 0.0480712 0.060374 -0.000970961 0.0601173)
(0.118866 0.000433138 0.0391817 0.0487074 0.000230535 0.0491659)
(0.0880603 9.93578e-05 0.029265 0.0369712 0.000843222 0.0377769)
(0.0658041 -0.000874008 0.021364 0.0284467 0.0008762 0.0292675)
(0.0582447 -0.00189853 0.0179852 0.0255509 0.000747089 0.0263015)
(0.0551127 -0.00253868 0.0168605 0.0239493 0.000458452 0.0245484)
(0.051433 -0.00268541 0.0162472 0.0218068 3.18495e-05 0.0221719)
(0.0486098 -0.00267862 0.0155291 0.0200287 -0.000323672 0.020181)
(0.0460425 -0.00252459 0.0146011 0.0185076 -0.000527451 0.0185427)
(0.0432409 -0.00223234 0.0136214 0.0170717 -0.000593807 0.017051)
(0.0403969 -0.00193242 0.0126677 0.0157718 -0.000591591 0.0156947)
(0.037917 -0.00169271 0.0118355 0.0147038 -0.000568754 0.0145423)
(0.035877 -0.00152152 0.0111403 0.0138571 -0.000550695 0.0135837)
(0.0340989 -0.00139192 0.0105351 0.0131237 -0.00053602 0.0127435)
(0.0325852 -0.00129746 0.0100288 0.0124956 -0.000527845 0.0120289)
(0.031281 -0.00122948 0.00961206 0.0119464 -0.00052134 0.011426)
(0.0294374 -0.00115235 0.00904036 0.0112049 -0.000502508 0.0106671)
(0.0269645 -0.00106066 0.00827304 0.0102473 -0.000471574 0.00972223)
(0.0242032 -0.00096881 0.00739947 0.00920514 -0.000437147 0.00870226)
(0.0216301 -0.000891422 0.00655326 0.00825545 -0.000409729 0.00775762)
(0.0195908 -0.000833354 0.00583926 0.00752279 -0.000394701 0.00699861)
(0.0182021 -0.000791951 0.00529401 0.00704606 -0.000392004 0.00646209)
(0.0175271 -0.000763178 0.00493483 0.00684796 -0.000400466 0.00616537)
(0.0175555 -0.000739518 0.00474504 0.0069288 -0.000418527 0.00609354)
(0.0183232 -0.000707824 0.00470804 0.00731244 -0.000446853 0.00624845)
(0.0200892 -0.000649841 0.00485199 0.00811758 -0.000489695 0.00669504)
(0.0233535 -0.000526273 0.0052429 0.00957985 -0.000549885 0.00756483)
(0.0289262 -0.000263311 0.00598175 0.0120968 -0.000627368 0.00907201)
(0.0379423 0.000282333 0.00719404 0.0162411 -0.00070669 0.0115258)
(0.0513537 0.00134158 0.0088931 0.0225466 -0.000735958 0.0152049)
(0.0693027 0.00309195 0.0107824 0.031155 -0.000627053 0.0202084)
(0.0909119 0.00544892 0.0121456 0.0416056 -0.000301508 0.0264273)
(0.114465 0.00797755 0.0118605 0.0530777 0.000250022 0.0336528)
(0.13836 0.00956637 0.00848649 0.0646216 0.000836362 0.0419415)
(0.150588 0.00847905 0.00099333 0.0695108 0.00104797 0.0475914)
(0.154906 0.00531432 -0.00908851 0.0692218 0.000714376 0.0512851)
(0.152583 0.00143522 -0.018852 0.0643257 -1.33234e-05 0.0526375)
(0.141543 -0.000918173 -0.0244686 0.055175 -0.000824319 0.0508116)
(0.122156 -0.00113432 -0.024039 0.04411 -0.00131609 0.0457065)
(0.0953325 -0.000166418 -0.018234 0.0321314 -0.00148155 0.0367259)
(0.0666281 0.00103391 -0.0107965 0.0213363 -0.00136931 0.0260961)
(0.0457483 0.00184296 -0.00559799 0.0143705 -0.00112748 0.0182147)
(0.0313384 0.00211972 -0.00239279 0.0100932 -0.000627756 0.0130809)
(0.0235102 0.00137435 -0.00125938 0.00868285 0.00056615 0.0116997)
(0.026848 -0.00297256 -0.00425662 0.0143069 0.00446461 0.019864)
(0.0502505 -0.0218317 -0.0223667 0.0423731 0.0189127 0.0561638)
(0.0560875 -0.00380989 0.00635613 0.0158311 -0.000658558 0.0156217)
(0.0472412 -0.00598592 0.00958573 0.0185764 -0.00173447 0.016202)
(0.0495682 -0.00439167 0.0124777 0.0206028 -0.00205281 0.0187652)
(0.0430215 -0.00326236 0.0116795 0.0184141 -0.00172308 0.0170589)
(0.0403499 -0.00253967 0.0111271 0.0172877 -0.00155003 0.0162015)
(0.036699 -0.00201241 0.0102765 0.0157967 -0.00132109 0.0149761)
(0.0345242 -0.00162268 0.00973022 0.0148994 -0.00110643 0.0142065)
(0.0315849 -0.00132103 0.00889919 0.0136987 -0.000880464 0.0131233)
(0.0300697 -0.00121012 0.00837507 0.0130942 -0.000732776 0.0125256)
(0.0292785 -0.00117267 0.00799738 0.0127513 -0.000641671 0.0122065)
(0.0297972 -0.00118984 0.00792796 0.0129099 -0.000605969 0.0123813)
(0.0305481 -0.00116338 0.00787341 0.0131615 -0.000585593 0.012709)
(0.0304483 -0.0010622 0.00743318 0.013128 -0.000503501 0.0128053)
(0.0284909 -0.00100631 0.00613561 0.0125418 -0.000330416 0.0123494)
(0.0256121 -0.001234 0.00390223 0.0118673 -9.5249e-05 0.0117304)
(0.0242395 -0.00199215 0.00101795 0.0121206 0.00016275 0.0119214)
(0.0272124 -0.00346525 -0.0021647 0.0144952 0.000500046 0.014122)
(0.0361656 -0.00586139 -0.00554073 0.0195953 0.00102665 0.0189633)
(0.0524894 -0.00967579 -0.00964874 0.0277608 0.00176647 0.0268039)
(0.048968 -0.00974897 -0.00949947 0.0254157 0.00176965 0.0244001)
(0.0256907 -0.00514421 -0.00455156 0.0132607 0.000833423 0.0126957)
(0.00993372 -0.00160756 -0.000762456 0.00495785 0.000126346 0.00483724)
(0.00539588 -0.000545439 0.000366035 0.00250632 -6.05865e-05 0.00250602)
(0.00435098 -0.000310689 0.000548464 0.00193398 -9.34012e-05 0.00195981)
(0.00399704 -0.000235017 0.000554706 0.00174635 -0.000101924 0.00178253)
(0.0038456 -0.0001978 0.000545992 0.00166872 -0.000108459 0.00170299)
(0.00378467 -0.00017375 0.000553742 0.00163669 -0.000116867 0.00165726)
(0.0037743 -0.000158559 0.000562363 0.00163043 -0.000125668 0.00163418)
(0.00381174 -0.000151131 0.00056456 0.00164831 -0.000135106 0.00163719)
(0.00390512 -0.000151403 0.000553739 0.00169413 -0.000145908 0.00167392)
(0.00398994 -0.000156679 0.000508347 0.00174371 -0.000157976 0.00172323)
(0.00399949 -0.000161205 0.000421545 0.00176921 -0.000170715 0.001757)
(0.0039996 -0.000167191 0.000311808 0.00179592 -0.000185921 0.00179679)
(0.00407948 -0.000177594 0.00020488 0.00185739 -0.00020567 0.00187003)
(0.00429455 -0.00019363 0.000116707 0.00197472 -0.000231315 0.00199174)
(0.00466573 -0.000215771 4.60074e-05 0.00215682 -0.000263043 0.00216662)
(0.00521641 -0.000245083 -1.45461e-05 0.00241675 -0.000300486 0.00240137)
(0.00599768 -0.000282912 -7.17883e-05 0.00277896 -0.000345516 0.00271228)
(0.00709744 -0.000329908 -0.000138502 0.00328713 -0.000403615 0.00313132)
(0.00869683 -0.000384654 -0.000228259 0.00403116 -0.000485271 0.0037199)
(0.0111223 -0.000444712 -0.000366205 0.00517594 -0.000610248 0.00458992)
(0.0149264 -0.000503467 -0.000597399 0.00700568 -0.000807777 0.00593255)
(0.0209796 -0.00054414 -0.00101138 0.00996975 -0.00111901 0.00804155)
(0.0304342 -0.000549235 -0.0018244 0.0146703 -0.00158945 0.0113188)
(0.0447462 -0.000574567 -0.00353334 0.0218365 -0.00226101 0.0163191)
(0.0660936 -0.000793484 -0.00708045 0.0324176 -0.00320557 0.0238696)
(0.0982727 -0.00154213 -0.0139772 0.0481345 -0.00461257 0.0354262)
(0.147666 -0.0035951 -0.0263366 0.0717028 -0.00682448 0.0532176)
(0.22544 -0.00842909 -0.0475757 0.107194 -0.0101142 0.0809525)
(0.324261 -0.0158757 -0.0749654 0.147407 -0.013726 0.114673)
(0.422121 -0.0238814 -0.101164 0.17856 -0.0162703 0.145732)
(0.492326 -0.0279613 -0.116958 0.189647 -0.0168917 0.165518)
(0.481087 -0.0237048 -0.110409 0.169688 -0.0144664 0.158427)
(0.363034 -0.0125693 -0.0788199 0.11953 -0.00993593 0.117723)
(0.228661 -0.00234635 -0.0437174 0.0715582 -0.00632389 0.0741629)
(0.143185 0.00328352 -0.0215058 0.043918 -0.0046445 0.0470831)
(0.091507 0.00581193 -0.00923471 0.0289447 -0.00288622 0.0315141)
(0.0652243 0.00500399 -0.00394091 0.0230885 -3.31725e-05 0.0262479)
(0.0644057 -0.00397565 -0.00798556 0.0310404 0.00762862 0.0383323)
(0.115147 -0.0420815 -0.0471716 0.0811237 0.0320523 0.101726)
(0.0299634 -0.00166953 0.00110602 0.00754969 -0.000562093 0.00776727)
(0.0155415 -0.00203031 0.00296281 0.00606704 -0.000626788 0.00536464)
(0.0134641 -0.00114816 0.00317203 0.00561092 -0.000572656 0.00516341)
(0.0103325 -0.000774527 0.00253998 0.00451987 -0.000414835 0.00421948)
(0.00912961 -0.000593031 0.0021478 0.00409093 -0.00035578 0.00386195)
(0.00809831 -0.00049892 0.0017142 0.00376759 -0.000284214 0.00358692)
(0.00786433 -0.000497994 0.00136486 0.00383239 -0.000236805 0.00366445)
(0.0079792 -0.000597896 0.0009216 0.00412512 -0.000194431 0.00394388)
(0.00917644 -0.000853221 0.00049754 0.0049718 -0.000180252 0.00474034)
(0.0115516 -0.00129389 -1.33615e-05 0.00641135 -0.000198235 0.00612535)
(0.0157944 -0.00200022 -0.000678008 0.00875352 -0.000279299 0.00842139)
(0.0227066 -0.00308537 -0.00173169 0.0123817 -0.000441658 0.0120872)
(0.034319 -0.00484093 -0.00364573 0.018352 -0.000707342 0.0181701)
(0.0542963 -0.00789746 -0.00721093 0.0286221 -0.00102996 0.0285298)
(0.0891301 -0.0134414 -0.0136934 0.0466391 -0.00122647 0.0463054)
(0.147204 -0.0234174 -0.0248859 0.0769161 -0.000717304 0.0754141)
(0.235691 -0.0403437 -0.0429572 0.123096 0.00148726 0.118886)
(0.352282 -0.0657571 -0.0686657 0.182724 0.00610038 0.174134)
(0.495348 -0.100779 -0.102267 0.250415 0.012129 0.236657)
(0.45466 -0.0989047 -0.0991138 0.227712 0.0135557 0.212725)
(0.248601 -0.0571079 -0.0581551 0.126504 0.00820659 0.117251)
(0.0865291 -0.0200938 -0.0217501 0.044848 0.00245225 0.0425639)
(0.0291047 -0.00624802 -0.00762838 0.0151244 0.000466131 0.0152764)
(0.0156383 -0.00297821 -0.00417721 0.00809191 7.15608e-05 0.00865147)
(0.01258 -0.00218313 -0.00340854 0.00644748 -3.29585e-05 0.00712078)
(0.0114804 -0.00185381 -0.00314884 0.00581923 -8.98311e-05 0.00654449)
(0.0101385 -0.00150412 -0.00278062 0.00508725 -0.000144719 0.00577904)
(0.00881088 -0.00118225 -0.00237469 0.00438493 -0.000192311 0.00498969)
(0.00775811 -0.000937315 -0.00201656 0.00384097 -0.000229891 0.00434674)
(0.00735351 -0.000825605 -0.00183906 0.00362438 -0.000262197 0.00407459)
(0.00789953 -0.000884274 -0.00195373 0.00386956 -0.000294747 0.00433722)
(0.00878231 -0.00100446 -0.00217616 0.00426939 -0.000329194 0.00479306)
(0.00962433 -0.00112296 -0.00238645 0.00464024 -0.0003669 0.00524403)
(0.0102844 -0.00121526 -0.00253676 0.00491721 -0.000410423 0.00561579)
(0.0106758 -0.00126174 -0.00259508 0.00506488 -0.000465172 0.00585802)
(0.0108926 -0.00127024 -0.00258599 0.00512979 -0.000536973 0.00600906)
(0.0111431 -0.00127439 -0.0025662 0.00521473 -0.000624886 0.00616295)
(0.0115665 -0.00129996 -0.00256903 0.00538666 -0.000726339 0.00637858)
(0.0122205 -0.00135242 -0.00260983 0.0056728 -0.000839697 0.00668229)
(0.0131362 -0.00142299 -0.00269212 0.00609276 -0.000977824 0.00708677)
(0.014568 -0.00153713 -0.00287154 0.00677954 -0.00116667 0.00772087)
(0.0169739 -0.00174598 -0.00323273 0.00797954 -0.00145097 0.00880933)
(0.0209436 -0.00208831 -0.00386091 0.0100163 -0.00192288 0.0105991)
(0.0274095 -0.00265331 -0.00495347 0.0134102 -0.00269705 0.0135136)
(0.0375462 -0.00359271 -0.00688292 0.0189058 -0.0038839 0.0181544)
(0.0534387 -0.00521152 -0.0103467 0.0276452 -0.00562443 0.0254136)
(0.0791496 -0.00777221 -0.016753 0.0414901 -0.00820055 0.0369675)
(0.122661 -0.0122619 -0.0284161 0.0639239 -0.0121655 0.0558397)
(0.200683 -0.0211623 -0.0498157 0.10206 -0.0183842 0.08815)
(0.356318 -0.0401786 -0.0930524 0.174213 -0.0277871 0.150462)
(0.594748 -0.0730805 -0.15408 0.267934 -0.0357079 0.2367)
(0.874434 -0.1081 -0.22141 0.348805 -0.0374359 0.331061)
(1.09199 -0.118925 -0.261274 0.386881 -0.0370556 0.390578)
(0.98852 -0.0781994 -0.210826 0.31665 -0.0357399 0.326323)
(0.655024 -0.0306051 -0.123102 0.19719 -0.0272968 0.20165)
(0.367448 -0.0019667 -0.0607457 0.109588 -0.0173251 0.107737)
(0.222058 0.00969284 -0.0293518 0.0682191 -0.0110416 0.0649395)
(0.148131 0.012615 -0.0118798 0.0492246 -0.00507837 0.0477659)
(0.116115 0.00208557 -0.00740607 0.0480805 0.00606114 0.0529184)
(0.187545 -0.0518177 -0.0635271 0.102378 0.0311743 0.121283)
(0.0176466 -0.000975223 -0.00043488 0.00429213 -0.000292532 0.00475913)
(0.00554275 -0.000720929 0.000854172 0.00229471 -0.000241423 0.00213939)
(0.00454836 -0.000449294 0.000627103 0.00219299 -0.000195015 0.00208006)
(0.00434068 -0.000485162 0.000251257 0.00239095 -0.000167981 0.00230643)
(0.00571181 -0.000697283 -8.58593e-05 0.00333623 -0.000212202 0.00326029)
(0.00860978 -0.00115964 -0.000589275 0.00517617 -0.000287103 0.00510089)
(0.0139609 -0.00203944 -0.00140614 0.00848356 -0.000398829 0.00836099)
(0.02305 -0.00365416 -0.00282305 0.0140535 -0.000530204 0.0137569)
(0.0378372 -0.00650548 -0.00517336 0.0229222 -0.000709763 0.0222)
(0.0612577 -0.0112755 -0.00894526 0.0363243 -0.00107903 0.0350605)
(0.0983287 -0.0188516 -0.0149143 0.0562234 -0.00197347 0.0546645)
(0.159687 -0.0310262 -0.0248345 0.0870766 -0.00378142 0.0863885)
(0.266641 -0.0513907 -0.0426697 0.138633 -0.00700201 0.140818)
(0.456194 -0.0873107 -0.0755255 0.228493 -0.0118115 0.235504)
(0.782042 -0.150832 -0.13445 0.382338 -0.0175452 0.393607)
(1.29397 -0.256478 -0.23069 0.625139 -0.0210494 0.632756)
(1.99307 -0.411801 -0.369058 0.958545 -0.0149837 0.945565)
(2.74497 -0.591067 -0.527947 1.31568 0.00635385 1.26336)
(3.38521 -0.755975 -0.674009 1.59889 0.0337103 1.50385)
(3.01994 -0.695355 -0.626791 1.42913 0.0499105 1.313)
(1.85678 -0.444381 -0.413319 0.905735 0.0421108 0.815448)
(0.812994 -0.199213 -0.19803 0.409592 0.0192166 0.3738)
(0.342405 -0.0807834 -0.0896412 0.173223 0.0062271 0.167525)
(0.203771 -0.0451408 -0.0561981 0.102673 0.00279376 0.10521)
(0.171446 -0.0361714 -0.049082 0.0858694 0.00193459 0.0914419)
(0.163065 -0.0330935 -0.0481021 0.0809249 0.00153028 0.0884882)
(0.150232 -0.0292563 -0.0455914 0.0738811 0.00100468 0.0824897)
(0.134523 -0.0249027 -0.041812 0.0655873 0.000421874 0.0742458)
(0.119173 -0.0207807 -0.0375801 0.0577184 -7.47416e-05 0.0654919)
(0.109903 -0.0181049 -0.0347247 0.0529017 -0.000379475 0.059477)
(0.112141 -0.0179941 -0.0350502 0.0536258 -0.000450851 0.0593096)
(0.128495 -0.0209043 -0.039496 0.0609222 -0.000348455 0.0663016)
(0.149464 -0.0250036 -0.0450838 0.0701597 -8.22158e-05 0.0754661)
(0.167019 -0.0287847 -0.0494141 0.0776065 0.000336361 0.0830621)
(0.175656 -0.0312136 -0.051082 0.0809095 0.000834449 0.0868704)
(0.174322 -0.0319089 -0.0500794 0.0797518 0.00122205 0.0866879)
(0.16887 -0.0318944 -0.0481867 0.0768707 0.0015215 0.0850312)
(0.164994 -0.0322895 -0.0467448 0.074759 0.0018051 0.0839355)
(0.162421 -0.0329832 -0.0456346 0.0731124 0.00211914 0.0830102)
(0.142953 -0.0298006 -0.040101 0.0638642 0.00218014 0.0738035)
(0.106997 -0.0224507 -0.030302 0.0473137 0.00165218 0.0563458)
(0.0739915 -0.0152198 -0.0212105 0.032338 0.000823606 0.0400008)
(0.0456346 -0.00850895 -0.0129576 0.0196763 -0.000520384 0.0255492)
(0.0394438 -0.00657677 -0.0105099 0.0170018 -0.00172899 0.0221011)
(0.0439423 -0.00693401 -0.0109957 0.0193269 -0.00297268 0.024444)
(0.0535042 -0.00836181 -0.012726 0.0244132 -0.00462346 0.0297277)
(0.0700393 -0.0113536 -0.016042 0.0332859 -0.00690975 0.0385215)
(0.0981738 -0.0167644 -0.0220397 0.0481541 -0.0102292 0.0525895)
(0.146008 -0.0262154 -0.0325309 0.0727521 -0.0150346 0.0748522)
(0.22725 -0.0418993 -0.0509546 0.112729 -0.0214857 0.110093)
(0.373112 -0.0739953 -0.0844977 0.175074 -0.0266373 0.170711)
(0.581387 -0.118159 -0.135877 0.249614 -0.0243479 0.253459)
(0.76142 -0.14627 -0.174458 0.291323 -0.018525 0.310979)
(0.900752 -0.144655 -0.197627 0.310134 -0.0238708 0.3429)
(0.984747 -0.110096 -0.205965 0.309927 -0.0391041 0.347526)
(0.813488 -0.0486005 -0.155988 0.242505 -0.0423863 0.264937)
(0.489946 2.19086e-05 -0.0777712 0.147452 -0.0314125 0.146732)
(0.303412 0.0222453 -0.0292114 0.0965803 -0.0187576 0.0870357)
(0.178914 0.0204029 0.00174378 0.0651525 -0.00261279 0.0597783)
(0.24283 -0.044142 -0.059248 0.104183 0.0194837 0.112477)
(0.0137354 -0.000913426 -0.000913818 0.00362305 -0.000651636 0.00438358)
(0.00511755 -0.000778629 -0.000121403 0.00280963 -0.000216643 0.0028203)
(0.00846512 -0.00133198 -0.000717821 0.00518138 -0.000285021 0.00511313)
(0.0154564 -0.00269369 -0.00179497 0.00968116 -0.00047823 0.00957882)
(0.0281154 -0.00507408 -0.00375072 0.0173289 -0.000907384 0.0173023)
(0.0512894 -0.00962949 -0.00739481 0.0309697 -0.00156785 0.0311357)
(0.091399 -0.0181231 -0.0140558 0.0545378 -0.00236615 0.0547019)
(0.157611 -0.0335462 -0.0256516 0.0936057 -0.00291202 0.092655)
(0.259214 -0.0595726 -0.0439884 0.153332 -0.00321417 0.148421)
(0.409213 -0.0998203 -0.0706554 0.237991 -0.00405961 0.227458)
(0.628103 -0.157502 -0.108545 0.352593 -0.00783466 0.339271)
(0.972579 -0.244155 -0.167272 0.518485 -0.0165298 0.51355)
(1.54482 -0.380863 -0.268127 0.777359 -0.0326189 0.803461)
(2.5165 -0.609502 -0.446131 1.20509 -0.057553 1.29299)
(4.10287 -0.988614 -0.74108 1.89326 -0.0931858 2.06929)
(6.43414 -1.56181 -1.16753 2.89237 -0.137714 3.14868)
(9.41271 -2.31523 -1.70053 4.15735 -0.170985 4.42499)
(12.2305 -3.02929 -2.20839 5.34774 -0.157411 5.50611)
(13.6751 -3.3787 -2.49208 5.95326 -0.100114 5.89782)
(12.5351 -3.08468 -2.34742 5.52294 -0.0209316 5.21468)
(9.02322 -2.25176 -1.81562 4.148 0.0463796 3.72771)
(5.13097 -1.31575 -1.15025 2.48313 0.0572067 2.19745)
(2.85066 -0.720677 -0.70023 1.39605 0.0340562 1.29)
(1.94878 -0.47336 -0.506815 0.947332 0.021882 0.922701)
(1.64862 -0.390219 -0.444966 0.798859 0.0186784 0.80643)
(1.53714 -0.35718 -0.427812 0.742142 0.017698 0.771156)
(1.44091 -0.328635 -0.414268 0.692972 0.0157403 0.741307)
(1.34245 -0.29903 -0.398742 0.642836 0.0121021 0.706735)
(1.24717 -0.269572 -0.380987 0.595371 0.00744358 0.666183)
(1.18974 -0.248099 -0.371038 0.566533 0.00282151 0.636659)
(1.20079 -0.242725 -0.37681 0.570303 -0.000852221 0.634519)
(1.30044 -0.25901 -0.403073 0.614942 -0.00332407 0.668891)
(1.50585 -0.30207 -0.452051 0.70654 -0.00401136 0.745848)
(1.77298 -0.362744 -0.510388 0.822795 -0.00264502 0.844681)
(1.9994 -0.418341 -0.552518 0.916558 0.00145072 0.920749)
(2.106 -0.451351 -0.565248 0.956635 0.00754605 0.948356)
(2.1154 -0.464748 -0.560253 0.956544 0.0150474 0.945641)
(2.05456 -0.464147 -0.539923 0.927547 0.022583 0.92122)
(1.95896 -0.454204 -0.511423 0.881008 0.0290076 0.884233)
(1.79206 -0.424305 -0.467611 0.801349 0.0348695 0.817776)
(1.47691 -0.356456 -0.389243 0.657155 0.0363566 0.686032)
(1.14526 -0.280449 -0.309159 0.506805 0.0356901 0.544696)
(0.743405 -0.186049 -0.208953 0.330213 0.0307606 0.366083)
(0.333687 -0.083905 -0.102223 0.148685 0.0170241 0.174298)
(0.189461 -0.045305 -0.0633335 0.0830209 0.010121 0.105613)
(0.157704 -0.0347614 -0.0551848 0.067466 0.00728672 0.0919247)
(0.153744 -0.0323209 -0.0543196 0.0654423 0.00530969 0.0924403)
(0.158783 -0.0330728 -0.0541241 0.0687802 0.00241438 0.0960021)
(0.175919 -0.0369717 -0.0555052 0.0786825 -0.0022055 0.104374)
(0.212236 -0.0466395 -0.0610061 0.0988633 -0.00837431 0.122736)
(0.295669 -0.0717164 -0.0748703 0.138382 -0.0143169 0.16365)
(0.409255 -0.107534 -0.0860723 0.184236 -0.0157673 0.208836)
(0.518754 -0.1354 -0.097408 0.216863 -0.0136639 0.242708)
(0.594773 -0.13729 -0.116935 0.228362 -0.0168296 0.267451)
(0.644016 -0.11871 -0.143596 0.234894 -0.0240692 0.290019)
(0.651171 -0.087945 -0.154237 0.228963 -0.0339518 0.285438)
(0.610159 -0.0492317 -0.134723 0.204389 -0.0410736 0.241986)
(0.524418 -0.00466977 -0.0813358 0.165966 -0.0383945 0.174451)
(0.296414 0.0424315 0.00633468 0.101505 -0.0151641 0.0886274)
(0.271463 -0.0182321 -0.0323899 0.0956829 0.00553972 0.092155)
(0.0243247 -0.00324577 -0.00315824 0.00908232 -0.000719446 0.010955)
(0.0237978 -0.00377872 -0.00266895 0.0140747 -0.000741337 0.0150976)
(0.0491616 -0.00991284 -0.00742567 0.0301692 -0.00153199 0.0311814)
(0.0952117 -0.0213206 -0.0162433 0.0578971 -0.00248534 0.0601333)
(0.172236 -0.0407443 -0.0321409 0.101743 -0.00369229 0.105818)
(0.309357 -0.0767363 -0.0602938 0.17743 -0.00337552 0.183807)
(0.538426 -0.141398 -0.109135 0.304967 0.000753578 0.307414)
(0.885939 -0.248192 -0.185427 0.503192 0.0115963 0.486944)
(1.3375 -0.396027 -0.284815 0.767682 0.0250864 0.711579)
(1.87468 -0.57585 -0.397089 1.08211 0.0347438 0.96848)
(2.53167 -0.787872 -0.529546 1.44221 0.0395527 1.28244)
(3.3752 -1.03436 -0.693149 1.84855 0.0302105 1.69186)
(4.74863 -1.40912 -0.973106 2.44691 0.0118175 2.38076)
(6.95412 -1.99123 -1.43798 3.37486 -0.00831471 3.50317)
(10.2195 -2.83404 -2.1154 4.7429 -0.0483282 5.15864)
(14.5501 -3.93831 -2.94379 6.53764 -0.14851 7.24118)
(19.6349 -5.1877 -3.80864 8.57679 -0.32568 9.44946)
(23.7658 -6.12635 -4.44096 10.1314 -0.46712 10.9958)
(25.6502 -6.51187 -4.65931 10.7578 -0.483118 11.4021)
(25.1829 -6.42975 -4.50594 10.5929 -0.383303 10.7829)
(22.3491 -5.80554 -4.06791 9.72573 -0.268284 9.34131)
(17.5427 -4.64508 -3.4416 8.07308 -0.146232 7.36749)
(12.8096 -3.4169 -2.77029 6.06121 -0.0317876 5.50828)
(9.93839 -2.59506 -2.29935 4.6709 0.027556 4.35977)
(8.38 -2.15437 -2.01072 3.92122 0.0566372 3.73068)
(7.3951 -1.89388 -1.81839 3.46625 0.0721184 3.35182)
(6.64797 -1.70552 -1.6799 3.12781 0.0798794 3.09342)
(6.0404 -1.55383 -1.57541 2.8517 0.0800595 2.90476)
(5.50678 -1.4192 -1.48073 2.6106 0.0709473 2.7378)
(5.09208 -1.31123 -1.40387 2.42704 0.0555478 2.59957)
(4.85693 -1.24562 -1.35638 2.32425 0.0368397 2.51131)
(4.80988 -1.22691 -1.34294 2.30719 0.0153718 2.48349)
(4.99337 -1.26805 -1.37192 2.39563 -0.00644557 2.53665)
(5.43533 -1.37731 -1.44949 2.59954 -0.0244879 2.68333)
(6.10226 -1.54866 -1.56672 2.90018 -0.0365295 2.91013)
(6.79264 -1.73268 -1.67727 3.20556 -0.0407525 3.12625)
(7.41091 -1.90245 -1.76441 3.46726 -0.0326112 3.30268)
(7.61792 -1.97779 -1.76217 3.53837 -0.012467 3.31422)
(7.42011 -1.96427 -1.68537 3.43548 0.0150075 3.1845)
(7.07757 -1.89949 -1.58749 3.25489 0.0477195 3.01088)
(6.37264 -1.73294 -1.42573 2.91058 0.0787126 2.70053)
(5.5233 -1.50442 -1.25429 2.4934 0.0993895 2.35243)
(4.59463 -1.25413 -1.08558 2.05518 0.121592 1.9959)
(3.20696 -0.899575 -0.813083 1.45816 0.120183 1.45911)
(2.19676 -0.643069 -0.598864 1.03002 0.107568 1.05719)
(1.65797 -0.495036 -0.480817 0.790829 0.0991565 0.840105)
(1.28776 -0.379187 -0.399685 0.613889 0.0923262 0.685161)
(0.912414 -0.25713 -0.308117 0.429895 0.0752032 0.511931)
(0.571266 -0.145802 -0.210209 0.260398 0.0447163 0.337743)
(0.397697 -0.0891859 -0.150257 0.172113 0.0190748 0.239861)
(0.371512 -0.0809314 -0.128907 0.159788 0.00343588 0.220006)
(0.393806 -0.0889242 -0.118593 0.176371 -0.0123754 0.232569)
(0.419758 -0.0995628 -0.120153 0.202911 -0.0233715 0.26281)
(0.432693 -0.100632 -0.135792 0.215974 -0.0192939 0.28536)
(0.431165 -0.0916569 -0.13575 0.206627 -0.0159199 0.264022)
(0.43061 -0.0782241 -0.120274 0.191192 -0.0165465 0.231522)
(0.415998 -0.0590512 -0.0963587 0.170284 -0.0177947 0.195659)
(0.395605 -0.0289787 -0.063559 0.145408 -0.0198314 0.157702)
(0.333573 0.0397372 0.00899985 0.122699 -0.010108 0.11646)
(0.274445 0.000199812 -0.0107915 0.0936926 0.00216892 0.0870768)
(0.0739076 -0.0128542 -0.00780781 0.0390243 -0.0151837 0.0443397)
(0.101756 -0.0274074 -0.0128993 0.062185 -0.00415881 0.0669028)
(0.212377 -0.0681868 -0.0369606 0.133528 0.00722483 0.131905)
(0.416357 -0.139653 -0.0767444 0.255908 0.0179066 0.253073)
(0.74366 -0.257501 -0.142619 0.442106 0.0378015 0.429934)
(1.31126 -0.454548 -0.247925 0.74277 0.0631606 0.730783)
(2.12944 -0.740382 -0.401603 1.16352 0.0864493 1.15588)
(3.20652 -1.11724 -0.611239 1.72451 0.102529 1.71347)
(4.26532 -1.49206 -0.846883 2.31407 0.117819 2.27832)
(5.45706 -1.904 -1.12664 2.99564 0.136335 2.85795)
(6.54379 -2.26862 -1.40749 3.62328 0.16593 3.35494)
(7.52347 -2.59302 -1.69037 4.19194 0.205279 3.80835)
(8.86917 -2.98132 -2.07698 4.83902 0.270176 4.43961)
(11.1719 -3.61126 -2.64293 5.78543 0.365049 5.49963)
(13.9078 -4.32137 -3.22895 6.81857 0.426144 6.75392)
(16.5443 -4.94106 -3.69357 7.8067 0.360784 7.95137)
(19.2987 -5.49299 -4.06126 8.82546 0.143555 9.16459)
(22.253 -5.97581 -4.39499 9.85958 -0.165978 10.4239)
(24.8911 -6.34727 -4.71516 10.7518 -0.444756 11.5061)
(26.2947 -6.57496 -4.93289 11.289 -0.618048 12.0511)
(25.8905 -6.63729 -4.98698 11.3751 -0.656889 11.8752)
(24.3712 -6.4698 -4.92532 11.1255 -0.579529 11.188)
(22.975 -6.16156 -4.81765 10.6634 -0.418914 10.3888)
(21.7727 -5.7514 -4.64977 9.99079 -0.251436 9.57334)
(20.3132 -5.27116 -4.35546 9.19096 -0.154546 8.70679)
(18.4687 -4.77506 -3.957 8.32183 -0.106738 7.79401)
(16.389 -4.28363 -3.53678 7.42135 -0.0645074 6.91295)
(14.3683 -3.83389 -3.15457 6.57306 -0.0152798 6.17488)
(12.6679 -3.4609 -2.85803 5.87832 0.0365701 5.65458)
(11.3154 -3.16518 -2.64164 5.34052 0.0878251 5.27759)
(10.3842 -2.96703 -2.50255 4.97836 0.134609 5.00368)
(9.79292 -2.84416 -2.4113 4.7522 0.164541 4.79904)
(9.50315 -2.79265 -2.35094 4.64693 0.169018 4.67084)
(9.50382 -2.81293 -2.32148 4.66266 0.149803 4.64218)
(9.76531 -2.89367 -2.32684 4.78589 0.119217 4.71105)
(10.2135 -3.01999 -2.36017 4.98562 0.0853183 4.844)
(10.7762 -3.17114 -2.40499 5.22167 0.0507716 5.00311)
(11.2725 -3.29944 -2.43013 5.41084 0.0198402 5.10896)
(11.4076 -3.34004 -2.38724 5.43768 -0.000403052 5.05466)
(11.1849 -3.2872 -2.27995 5.30312 0.00228592 4.8479)
(10.6452 -3.15525 -2.12529 5.0359 0.0265789 4.514)
(9.75832 -2.93418 -1.91026 4.61974 0.0577983 4.0478)
(8.76268 -2.66276 -1.69474 4.1497 0.0871715 3.57045)
(7.3896 -2.28946 -1.43611 3.53252 0.110368 3.00569)
(5.77886 -1.85377 -1.1384 2.82034 0.119303 2.37623)
(4.42806 -1.47935 -0.890378 2.21776 0.134283 1.85816)