/*--------------------------------*- C++ -*----------------------------------*\
| =========                 |                                                 |
| \\      /  F ield         | OpenFOAM: The Open Source CFD Toolbox           |
|  \\    /   O peration     | Version:  2.1.1                                 |
|   \\  /    A nd           | Web:      www.OpenFOAM.org                      |
|    \\/     M anipulation  |                                                 |
\*---------------------------------------------------------------------------*/
FoamFile
{
    version     2.0;
    format      ascii;
    class       volScalarField;
    location    "0.00135";
    object      TLS;
}
// * * * * * * * * * * * * * * * * * * * * * * * * * * * * * * * * * * * * * //

dimensions      [0 1 0 0 0 0 0];

internalField   nonuniform List<scalar> 
36520
(
0.000351043
0.000302915
0.000257451
0.000243583
0.000233927
0.000227808
0.000223218
0.000219902
0.000217365
0.000215274
0.000213475
0.000211741
0.000210315
0.000209359
0.000209282
0.000210228
0.000212377
0.000215749
0.000220264
0.000225097
0.000229875
0.000234331
0.000238458
0.000242626
0.000247159
0.000251968
0.000257199
0.000262709
0.000268555
0.000274744
0.000281272
0.000288187
0.000295621
0.000303537
0.000311845
0.000320329
0.000328709
0.000336639
0.000343662
0.000348985
0.000351419
0.00034946
0.000341952
0.000329637
0.000315262
0.000301814
0.000291319
0.000285117
0.000288973
0.000301541
0.000323066
0.000354632
0.000397048
0.000451524
0.000518037
0.000592912
0.000671023
0.00074022
0.000731935
0.000621219
0.000561049
0.000302831
0.000282161
0.000272483
0.000264715
0.000259614
0.0002555
0.000252722
0.000249945
0.000246894
0.000243072
0.000239197
0.000236128
0.00023485
0.000236229
0.000241237
0.000250845
0.000262222
0.000261835
0.000267359
0.00028592
0.000300696
0.000309206
0.00031617
0.00032257
0.000328062
0.000332482
0.000336162
0.000338976
0.000340673
0.000343544
0.000348487
0.000355421
0.000363804
0.000372737
0.000381098
0.000387358
0.000390378
0.000389503
0.000384249
0.000374718
0.000361496
0.000345404
0.000327245
0.000307483
0.000286295
0.00026367
0.000239066
0.00021714
0.000198318
0.000184874
0.000178849
0.00017925
0.000184452
0.000193986
0.000204292
0.000216816
0.000242683
0.000341166
0.000647071
0.00066602
0.000322046
0.00030384
0.000294971
0.000287294
0.000281887
0.000276944
0.000272831
0.00026757
0.000260877
0.000252492
0.000242959
0.000232006
0.000218121
0.000199219
0.000177187
0.000159231
0.000148688
0.000143539
0.00014436
0.000155391
0.00019068
0.000263231
0.0003169
0.000337133
0.000346487
0.000354538
0.000359801
0.000361205
0.000358381
0.000352878
0.000347368
0.000341873
0.000336606
0.000331827
0.000327293
0.0003226
0.00031754
0.000311848
0.000305389
0.000297881
0.000288959
0.000278218
0.000265214
0.000249711
0.000232153
0.000213688
0.0001958
0.000179603
0.000168465
0.000162211
0.000159834
0.000161099
0.000168074
0.00018132
0.000197118
0.000214798
0.000244261
0.000331794
0.000525801
0.000785497
0.00033696
0.000316897
0.000301346
0.000283981
0.000264042
0.000243241
0.000221956
0.000204719
0.000191168
0.000181359
0.000172956
0.000165591
0.000159345
0.000154377
0.00015034
0.000146649
0.000142791
0.000138334
0.00013761
0.000143021
0.000155469
0.000175532
0.000196296
0.000207708
0.000213858
0.000221211
0.000230508
0.000240982
0.000248269
0.000247185
0.000243657
0.000240967
0.000239641
0.000240044
0.000242126
0.000245198
0.000248597
0.00025218
0.00025615
0.000259071
0.000258623
0.000254742
0.000247355
0.000237357
0.000225177
0.000211523
0.000197481
0.000183901
0.000170642
0.000162414
0.000151992
0.000135194
0.000137071
0.000160545
0.0001838
0.000203107
0.00022825
0.000300088
0.000470256
0.000896832
0.000299506
0.000257645
0.000222917
0.00020405
0.000191995
0.000184492
0.000178862
0.000174264
0.000170395
0.000166265
0.000161871
0.000157412
0.00015298
0.000148717
0.000144693
0.000140801
0.000136953
0.000132576
0.000132299
0.000137217
0.000147933
0.000162487
0.000175891
0.000183435
0.000186904
0.000189923
0.000193503
0.000197791
0.000201595
0.000202737
0.000200429
0.000197207
0.000194038
0.000191032
0.000188234
0.000185289
0.000181873
0.000178191
0.000176377
0.000178469
0.000185531
0.000208851
0.000228297
0.000229429
0.000224884
0.000216848
0.000206605
0.00019568
0.000185199
0.000176332
0.000157035
0.000123522
9.56157e-05
9.21283e-05
0.000114422
0.000169225
0.000202204
0.00025377
0.000431742
0.000944917
0.000210394
0.000197058
0.000189988
0.000185064
0.000180407
0.000175925
0.00017163
0.000167486
0.000163375
0.000159057
0.000154342
0.000149343
0.00014428
0.000139403
0.000135013
0.000131131
0.000127906
0.000125307
0.000125517
0.000130176
0.000139883
0.000151538
0.000161237
0.000167278
0.00017056
0.000172782
0.000174959
0.000177351
0.000179542
0.000180717
0.000180294
0.000178141
0.000175048
0.000171929
0.000169214
0.000166742
0.000164395
0.00016197
0.000159721
0.000158698
0.000158143
0.000158958
0.00016686
0.000179445
0.000187357
0.000192156
0.000196057
0.000197397
0.000194891
0.000187633
0.000165871
0.000116006
7.44395e-05
5.89467e-05
5.12783e-05
5.39774e-05
6.86282e-05
0.000126121
0.000323646
0.000790261
0.000192666
0.000186683
0.000181182
0.000175743
0.000170065
0.000164329
0.000159162
0.000154803
0.000151358
0.00014779
0.000145049
0.00014114
0.000136831
0.000132613
0.000128947
0.000126024
0.000123984
0.000122715
0.000123122
0.000125923
0.00013143
0.000139199
0.000146136
0.000151019
0.000154515
0.000157107
0.000159157
0.000160977
0.000162591
0.000163807
0.000164608
0.000164604
0.000163496
0.000161421
0.000158991
0.000156278
0.000153999
0.000152373
0.000150852
0.000149902
0.000149017
0.000147894
0.000148915
0.000151999
0.000154481
0.000155976
0.000158236
0.00016349
0.00016843
0.000161486
0.000154828
0.000150458
0.000126263
6.08105e-05
3.58812e-05
3.46713e-05
3.67408e-05
5.08083e-05
0.000202439
0.000574897
0.000184495
0.000174806
0.000167444
0.000160986
0.000154609
0.000148768
0.000143941
0.000140515
0.000137122
0.000134815
0.0001342
0.000133485
0.000131445
0.000129368
0.000128014
0.00012711
0.00012629
0.000125548
0.000125255
0.000128298
0.00013305
0.000135265
0.000136343
0.000137732
0.000139889
0.000142758
0.000145875
0.000148523
0.000150448
0.00015152
0.000152021
0.000152193
0.000152101
0.000151428
0.000149142
0.000143235
0.000138685
0.000139543
0.000141614
0.000141148
0.00014024
0.000138944
0.000138964
0.000140974
0.000143734
0.000145555
0.000146678
0.000147175
0.000145829
0.00014483
0.00015241
0.000166901
0.000174615
0.000147095
3.62325e-05
3.12342e-05
3.29145e-05
3.88222e-05
0.000139995
0.000494591
0.000156502
0.000144666
0.000139672
0.000138076
0.000136148
0.00013576
0.000136048
0.000137
0.00013774
0.000136908
0.000135374
0.000130772
0.00011795
9.47944e-05
7.43973e-05
6.72576e-05
6.93879e-05
8.28505e-05
0.000105794
0.000117399
0.00012165
0.00012505
0.000128907
0.000132739
0.000135218
0.000136498
0.000137811
0.000139817
0.000142271
0.000143849
0.000144221
0.000144228
0.000144107
0.000143711
0.000142831
0.000141516
0.000139885
0.000137886
0.000134974
0.000131291
0.000127536
0.000124336
0.000122031
0.000121211
0.000122385
0.000126763
0.000135021
0.000146123
0.000154224
0.000156584
0.000159292
0.00016309
0.000169629
0.000168396
5.03896e-05
3.01703e-05
3.20287e-05
3.71399e-05
0.000107995
0.000529273
0.000159792
0.000146545
0.000141998
0.000143256
0.000143028
0.000141781
0.000138379
0.000138182
0.000141953
0.000143974
0.000143362
0.000139788
0.000131474
0.000114306
8.79861e-05
6.93031e-05
6.69803e-05
7.37264e-05
9.49546e-05
0.000115758
0.000121854
0.000123351
0.000123275
0.000123009
0.000123596
0.000126551
0.000133817
0.000144602
0.000150164
0.000150219
0.000150029
0.000149196
0.000148663
0.000148052
0.000146354
0.000143612
0.000140837
0.00013862
0.000137187
0.000136592
0.000136092
0.00013589
0.000135785
0.000135726
0.000137409
0.000142905
0.000154407
0.00016619
0.00017011
0.000173029
0.000174914
0.000181665
0.000199898
0.000186271
5.3944e-05
3.4735e-05
3.68646e-05
4.25303e-05
0.000109498
0.000572638
0.000165232
0.000144351
0.000137928
0.000138602
0.000138918
0.000139085
0.000139046
0.000140657
0.000144497
0.000148701
0.00015171
0.000149099
0.000135679
0.000101495
6.51352e-05
4.81352e-05
4.66886e-05
5.25704e-05
7.97216e-05
0.000126914
0.000139294
0.000140586
0.000140718
0.000139998
0.000139142
0.000139397
0.000141653
0.000145222
0.000147051
0.00014612
0.000144557
0.000142172
0.000143671
0.00014672
0.00014895
0.000149786
0.000149829
0.000149122
0.000147472
0.000145711
0.000144464
0.000143705
0.000143631
0.000143633
0.000143787
0.000145614
0.000151598
0.000161021
0.000164451
0.000164071
0.000167897
0.000180588
0.000194498
0.00017893
4.6676e-05
3.33559e-05
3.52821e-05
4.08928e-05
0.000115619
0.000550991
0.000174415
0.000162168
0.000153031
0.000145666
0.000139081
0.000136883
0.000136706
0.000138639
0.000142336
0.000147946
0.000152287
0.000153312
0.000149837
0.000132557
7.48144e-05
4.0238e-05
3.40223e-05
3.59144e-05
4.57327e-05
8.76444e-05
0.000146432
0.000148985
0.000148896
0.000146502
0.000143189
0.000139557
0.000137877
0.00013827
0.000141606
0.000144619
0.000145527
0.000140061
0.000133669
0.000140509
0.000147981
0.000151084
0.000150043
0.000146031
0.000123019
0.000119639
0.000121121
0.000136273
0.000142812
0.00014152
0.000142312
0.000147252
0.000153623
0.000155646
0.000157871
0.000151951
0.000165043
0.000180377
0.000185884
0.000174363
4.04804e-05
3.13732e-05
3.25378e-05
3.62558e-05
0.000133803
0.00053728
0.000172387
0.000160518
0.000153817
0.000148712
0.000141402
0.000136764
0.000133399
0.000132953
0.00013504
0.000139531
0.00014484
0.000149321
0.000149037
0.000136967
9.94224e-05
5.46227e-05
3.43972e-05
2.87321e-05
2.85608e-05
3.33539e-05
6.53019e-05
0.00013922
0.000146564
0.000146857
0.000146801
0.000145179
0.000140615
0.000138081
0.000138956
0.000142969
0.000144972
0.000145118
0.000133718
0.000131789
0.000140328
0.000148433
0.000149144
0.000147938
0.000146735
0.00013379
0.00011853
0.00012553
0.000141623
0.000146326
0.000146074
0.000141983
0.00013153
0.000137161
0.000150031
0.000157669
0.000173896
0.000182422
0.000186355
0.000173722
4.23988e-05
3.11148e-05
3.22711e-05
3.61096e-05
0.000134385
0.000557454
0.000163361
0.000133761
0.000130481
0.000133315
0.00013398
0.000131522
0.00012383
0.000106986
8.65333e-05
8.10628e-05
8.63593e-05
0.000107492
0.000135481
0.000142757
0.000143309
9.35951e-05
3.89703e-05
2.75508e-05
2.64213e-05
2.72771e-05
3.4552e-05
7.82316e-05
0.000140221
0.000142357
0.000140679
0.000138996
0.000138942
0.000139732
0.000142504
0.000145759
0.00014639
0.00014706
0.000145207
0.000145075
0.000147729
0.000149615
0.00014994
0.000149597
0.000148421
0.00014646
0.000143538
0.000143111
0.000143889
0.000145693
0.000144104
0.000136281
0.000128915
0.000136423
0.000144195
0.000147299
0.000160417
0.000188865
0.000200437
0.000146116
3.97399e-05
3.4299e-05
3.59593e-05
4.33894e-05
0.000138899
0.000550751
0.000169445
0.000149096
0.000139145
0.000137392
0.000134234
0.000125847
0.00010418
7.01928e-05
4.50999e-05
4.01523e-05
4.27179e-05
5.52927e-05
9.66022e-05
0.000131097
0.000127771
0.000103855
6.49882e-05
3.74843e-05
2.77346e-05
2.65104e-05
2.76399e-05
3.72481e-05
9.24592e-05
0.000141561
0.000143659
0.000144519
0.000145446
0.000145448
0.000144421
0.000143236
0.000137942
0.000134318
0.000136435
0.00014477
0.000154895
0.000154319
0.000153242
0.000152299
0.000148795
0.000138886
0.000130942
0.000133297
0.000141338
0.000147269
0.000146636
0.000144692
0.000143423
0.00014532
0.000147094
0.000149529
0.000165153
0.00019706
0.000205252
0.000125387
3.81897e-05
3.63077e-05
3.86038e-05
5.1357e-05
0.0001686
0.000533475
0.000164561
0.000152741
0.000143708
0.000136923
0.000125284
0.000103475
7.32931e-05
5.93695e-05
6.39866e-05
9.96971e-05
0.00012299
0.00012615
0.000128319
0.000126811
0.000104597
6.51229e-05
4.58761e-05
4.10944e-05
3.92491e-05
3.89824e-05
4.33349e-05
6.69831e-05
0.000121183
0.000135347
0.000137938
0.000138582
0.000136628
0.000130877
0.00012364
0.00012388
0.000130466
0.000145085
0.000154444
0.000155329
0.000148849
0.000114797
0.000112146
0.000112942
0.000137479
0.000148166
0.000144302
0.000147149
0.000154875
0.00015591
0.000140915
0.000139906
0.00014146
0.000144676
0.000150083
0.000166433
0.0001861
0.000198295
0.000203938
0.000130349
3.67728e-05
3.56024e-05
3.81153e-05
5.25122e-05
0.000166613
0.000574378
0.000177664
0.000167697
0.000159055
0.000150886
0.00014424
0.000138801
0.000135177
0.000133217
0.000132721
0.000133185
0.000132565
0.000130741
0.000128733
0.000126894
0.000125106
0.000123431
0.000122073
0.000119806
0.000114842
0.000112304
0.000118595
0.000131988
0.000139716
0.00014221
0.000142646
0.000140458
0.000138307
0.000140452
0.000142963
0.00014603
0.000151203
0.000154316
0.000154636
0.000146102
0.000125177
0.000122452
0.000127352
0.000138638
0.000150717
0.000154569
0.000154814
0.000156
0.000157635
0.000157791
0.00015468
0.000151853
0.000154052
0.000156605
0.000161815
0.00016413
0.000164819
0.00016687
0.000169717
9.31222e-05
3.18679e-05
3.14099e-05
3.45672e-05
4.67351e-05
0.000186736
0.000805164
0.000195723
0.00018922
0.000183844
0.000179196
0.000174394
0.000169199
0.000163694
0.000158079
0.000153484
0.000152821
0.000150027
0.000146441
0.000142915
0.00013966
0.000137055
0.000135645
0.000135714
0.000136545
0.00013739
0.000138625
0.000141421
0.000144865
0.000147379
0.000148752
0.000149472
0.000150256
0.000152269
0.000154817
0.000156758
0.00015803
0.000159056
0.000159689
0.000159778
0.000159166
0.000158139
0.000156926
0.000156532
0.000156626
0.000156321
0.000156237
0.000156062
0.000155819
0.000155777
0.000155154
0.000153272
0.000149252
0.000144479
0.000140602
0.00013905
0.000142003
0.000145496
0.000150087
0.000135511
5.77881e-05
3.35179e-05
3.21017e-05
3.52095e-05
4.93733e-05
0.000214614
0.000878014
0.000227607
0.000208463
0.000201651
0.000197421
0.00019352
0.000189687
0.000185732
0.000182287
0.0001782
0.000174562
0.000171168
0.000168404
0.000166012
0.000163746
0.000161526
0.00015955
0.000157813
0.000155973
0.000153709
0.000151701
0.000152604
0.000155156
0.000157863
0.00015999
0.00016127
0.000162336
0.000163781
0.000165847
0.000168275
0.000171817
0.000177133
0.000178727
0.000178748
0.000178623
0.000178496
0.000178216
0.000177922
0.000177594
0.000177127
0.000176246
0.000173222
0.000170307
0.000166332
0.000161076
0.000155718
0.000150384
0.000146559
0.000143916
0.000140753
0.000136599
0.000135575
0.000132129
0.000108241
6.81093e-05
4.86747e-05
4.51365e-05
4.89042e-05
7.04495e-05
0.000269037
0.000811181
0.000331086
0.000283345
0.000242925
0.000221882
0.000209634
0.000202594
0.000197743
0.000194363
0.000190973
0.000188084
0.000185742
0.000183779
0.000182026
0.00018025
0.00017819
0.000175731
0.000172866
0.000169606
0.000166057
0.000162565
0.000162567
0.00016493
0.000168156
0.00017062
0.00017202
0.000173541
0.000176708
0.000183049
0.000193522
0.000210455
0.000226843
0.000228899
0.000229661
0.000229541
0.0002283
0.000225602
0.000221578
0.000216306
0.00020995
0.000202552
0.000194222
0.000185665
0.000177355
0.000169481
0.000162069
0.0001548
0.000147216
0.00013917
0.000132516
0.000127824
0.000124711
0.000127112
0.000136682
0.00014465
0.000137253
0.000133172
0.000137596
0.000169045
0.000373951
0.000721868
0.000341747
0.000327608
0.000319627
0.000308017
0.000294214
0.000278242
0.000262739
0.000251828
0.000244652
0.000239241
0.000232568
0.000223129
0.000211599
0.000200534
0.000192169
0.000186261
0.000181793
0.00017802
0.000174536
0.000172248
0.000173563
0.000177572
0.000183158
0.000188506
0.00019457
0.000204612
0.000222654
0.000247869
0.000270198
0.000282567
0.000283576
0.000278423
0.00027152
0.000263277
0.000254007
0.000244053
0.000233725
0.000223244
0.000212789
0.00020253
0.00019267
0.000183411
0.000174799
0.000166744
0.000159049
0.000151399
0.000143245
0.000134223
0.000127432
0.000125226
0.000126313
0.000130262
0.000138905
0.000149666
0.000159714
0.000169109
0.000180046
0.000216519
0.000441002
0.000645917
0.000324091
0.000309792
0.000305224
0.000300516
0.000298898
0.00029688
0.000295478
0.000291571
0.000286185
0.000280263
0.000275845
0.000273919
0.000275008
0.000279179
0.00028429
0.000283552
0.000269634
0.000248788
0.000230877
0.000223912
0.000230191
0.000247688
0.000270071
0.000292558
0.000315191
0.00033622
0.000350108
0.00035365
0.00034977
0.000342017
0.000331792
0.00031934
0.000304948
0.000289031
0.000272467
0.000256345
0.00024144
0.00022791
0.000215479
0.000203884
0.000193038
0.000183005
0.000173683
0.000164762
0.000156201
0.000148152
0.000140813
0.000134728
0.000130289
0.000128066
0.000128668
0.000131355
0.000136614
0.000145083
0.000155144
0.00016811
0.000190716
0.000266086
0.000486133
0.000541015
0.000305688
0.000287319
0.00028098
0.000275496
0.000272845
0.000270353
0.000268659
0.000265683
0.000261823
0.000257669
0.000254409
0.00025285
0.000253541
0.000257121
0.00026419
0.000275471
0.000289779
0.0003031
0.000309837
0.000316271
0.000323219
0.000330533
0.000337824
0.000344929
0.000351497
0.000357398
0.000362404
0.000366472
0.000369314
0.000370565
0.000370137
0.000370039
0.000369575
0.000367304
0.000361626
0.000351599
0.000337489
0.0003203
0.000300851
0.000279574
0.000256914
0.000233806
0.000210865
0.000189326
0.000170545
0.000157051
0.0001482
0.000143128
0.000141
0.000141647
0.000145349
0.00015206
0.000162156
0.000173462
0.000183391
0.000193483
0.000219695
0.000311402
0.000608623
0.000327632
0.000294554
0.000259836
0.000249136
0.00024154
0.000236867
0.000233392
0.000230825
0.000228753
0.000226937
0.000225329
0.000223982
0.000223086
0.000222807
0.000223286
0.000224562
0.000226634
0.000229432
0.00023292
0.000236958
0.000241315
0.00024593
0.000250899
0.000256246
0.000261862
0.000267568
0.000273409
0.000279361
0.000285547
0.000291928
0.000298463
0.000305048
0.000311606
0.00031814
0.000324627
0.000330832
0.000336396
0.000340716
0.000343214
0.000343454
0.000341259
0.000336984
0.000331562
0.000326812
0.000324624
0.000326688
0.000333286
0.00034386
0.000358937
0.000378616
0.000403084
0.000432636
0.000467413
0.000508619
0.000554904
0.000606748
0.000662803
0.000718584
0.000715888
0.000598176
0.000343254
0.000300132
0.000263471
0.000251594
0.000243144
0.000238469
0.000234665
0.000232091
0.000230086
0.000228476
0.000227343
0.000226444
0.000226074
0.000226021
0.000226574
0.000227554
0.000229155
0.000231249
0.000233905
0.000237106
0.000240878
0.000245236
0.000250225
0.000255876
0.000261986
0.000268409
0.000275196
0.000282238
0.000289514
0.000296899
0.000304423
0.000312063
0.000319835
0.000327625
0.000335331
0.000342785
0.000349604
0.000355104
0.000358431
0.000358752
0.000355496
0.000348846
0.000340184
0.000332301
0.000328185
0.000331026
0.000340279
0.000354253
0.000371992
0.000392823
0.000416705
0.000443904
0.00047439
0.000509068
0.000547522
0.000590915
0.000636938
0.000677747
0.000663084
0.000567441
0.000569531
0.000316615
0.000295873
0.000289149
0.00028433
0.000282867
0.000280717
0.000280677
0.000279571
0.000278847
0.000277548
0.000276781
0.000275863
0.000276351
0.000277272
0.000279964
0.000283897
0.000289028
0.000295139
0.000301578
0.000308664
0.000315855
0.000323143
0.000330547
0.000337737
0.000344789
0.000351559
0.000357456
0.000362139
0.000365574
0.00036842
0.00037102
0.000373256
0.000374712
0.000374728
0.0003723
0.000366318
0.000356359
0.000342599
0.000325672
0.000306069
0.000283975
0.000259577
0.000234173
0.000210497
0.000194767
0.000183784
0.000176739
0.000172645
0.000170459
0.000169573
0.000169955
0.000171085
0.000172795
0.000175233
0.000179071
0.000186284
0.000206275
0.000270278
0.000588796
0.000693622
0.000340592
0.000324223
0.000320896
0.000318649
0.000320407
0.000320354
0.000323827
0.000324343
0.000325272
0.000324375
0.000323715
0.000322856
0.000324077
0.000325882
0.000330349
0.000335946
0.000341496
0.000345756
0.000347302
0.000346625
0.000343842
0.000339422
0.000333613
0.000326419
0.000317448
0.00031085
0.000307055
0.000306729
0.000307327
0.00030606
0.000300708
0.000293516
0.000284989
0.000275278
0.00026485
0.00025422
0.000243761
0.000233501
0.000223278
0.00021279
0.000201779
0.000190271
0.000178845
0.000168244
0.000158789
0.000150371
0.000145124
0.00014252
0.000141392
0.000141204
0.000142517
0.000145447
0.000149696
0.000155086
0.000161705
0.000171009
0.000188324
0.000238974
0.000484895
0.000792278
0.000363756
0.000350566
0.000350952
0.00035014
0.000352061
0.000347786
0.000340836
0.000327528
0.000311339
0.000294317
0.000277602
0.000261875
0.000247787
0.000236077
0.000226676
0.000219636
0.000214724
0.000211448
0.000209394
0.000208169
0.000207702
0.00020794
0.000208502
0.00020878
0.00020849
0.000208148
0.000209341
0.000211998
0.000216554
0.000220391
0.000222923
0.000224759
0.00022496
0.000222767
0.00021825
0.000212069
0.000204978
0.000197413
0.000189812
0.000182048
0.000174196
0.000166426
0.000158927
0.00015182
0.000145177
0.000138939
0.000132861
0.00012492
0.000113135
0.000105032
0.000103618
0.000110301
0.000125454
0.000135841
0.000145419
0.000154731
0.000165865
0.000191067
0.000411559
0.000887575
0.000377915
0.000351708
0.000318375
0.000284903
0.000259073
0.000243485
0.000231841
0.000223439
0.000216337
0.000210073
0.000204641
0.000199999
0.000196104
0.000192891
0.00019024
0.000188025
0.000186154
0.00018463
0.00018346
0.000182345
0.000181438
0.00018094
0.000180727
0.000180413
0.00017985
0.000179143
0.00017883
0.000179217
0.000180145
0.000181036
0.000181298
0.000181475
0.000182829
0.000185503
0.000188862
0.000191105
0.000190329
0.000186636
0.00018339
0.000179494
0.000174523
0.000168112
0.000161279
0.000154559
0.000145937
0.000128738
0.000115079
0.000105857
0.000101071
9.90235e-05
9.83736e-05
0.000105467
0.000114341
0.000128555
0.00013418
0.00012474
0.000115723
0.000115381
0.000275694
0.000973579
0.000284979
0.000226947
0.0002078
0.00020348
0.000201958
0.000201217
0.000200114
0.000198436
0.000195947
0.000193101
0.000190208
0.000187282
0.00018428
0.000181159
0.000177933
0.000174741
0.000171765
0.000169256
0.000167327
0.00016572
0.000164407
0.000163694
0.00016336
0.000163159
0.00016289
0.000162662
0.000162719
0.000163301
0.000164246
0.000164874
0.000164232
0.000163156
0.000162174
0.000161351
0.000160824
0.000160558
0.000160601
0.000160083
0.000157994
0.000156361
0.000159494
0.00016619
0.000163189
0.000156156
0.000145654
0.000137527
0.000130661
0.000122281
0.000112726
0.000108579
0.000110965
0.000110358
0.000102546
0.000103841
9.02557e-05
6.41607e-05
5.01678e-05
5.24661e-05
0.000190973
0.000984668
0.000186964
0.000175697
0.000171512
0.000171877
0.000174023
0.00017759
0.000181349
0.000183579
0.000183352
0.00018113
0.00017794
0.000174155
0.000170064
0.000165929
0.000161968
0.000158461
0.000155297
0.000152565
0.000150666
0.000149283
0.0001483
0.000147758
0.000147491
0.000147391
0.000147326
0.000147377
0.000147619
0.000148198
0.000148972
0.000149463
0.000149155
0.000148181
0.000146997
0.000145622
0.000144327
0.000143123
0.000142315
0.000141179
0.00014022
0.000138159
0.000136703
0.000137408
0.000140763
0.000145094
0.000145936
0.00014647
0.000144199
0.000139485
0.000133949
0.000129614
0.00012894
0.000128996
0.000127079
8.17665e-05
4.30325e-05
3.02555e-05
3.01043e-05
3.7214e-05
0.000216646
0.000783344
0.000168297
0.000159829
0.000156656
0.000156086
0.000155823
0.00015595
0.000156577
0.000158562
0.000161083
0.000159838
0.000157456
0.00015463
0.000151271
0.000147817
0.00014458
0.000141841
0.000139646
0.000138015
0.000136979
0.000136366
0.000135997
0.000135899
0.00013597
0.000136169
0.000136403
0.00013667
0.000136965
0.000137368
0.000137941
0.000138495
0.000138717
0.000138405
0.000137626
0.000136312
0.000134672
0.000132864
0.000131181
0.000129545
0.000128111
0.000127396
0.000126836
0.000126497
0.000126745
0.000127012
0.000126865
0.00012718
0.000129346
0.000133365
0.000137762
0.000140383
0.000141523
0.000144439
0.000146919
8.28263e-05
2.96756e-05
2.65793e-05
2.88771e-05
3.77912e-05
0.00026242
0.000505086
0.000156982
0.00014717
0.00014276
0.000140074
0.000136341
0.000132082
0.000129071
0.000129031
0.000132312
0.000135145
0.00013616
0.000136808
0.000137683
0.00013787
0.000137079
0.000135675
0.000134356
0.000133361
0.000132761
0.000132587
0.000132718
0.00013307
0.000133565
0.00013411
0.000134563
0.000134844
0.000134996
0.000135144
0.000135505
0.000136038
0.000136309
0.000136385
0.000136658
0.000136668
0.000136561
0.000136509
0.000136838
0.000137833
0.000138817
0.000139516
0.000139491
0.000138791
0.000138239
0.000137948
0.00013785
0.000138222
0.000138275
0.00013748
0.000136589
0.00013861
0.000145034
0.000157842
0.000163872
0.000109358
2.9682e-05
2.86081e-05
3.09066e-05
4.18906e-05
0.000275432
0.000445996
0.000137752
0.000128819
0.00012401
0.000120797
0.000119518
0.000119545
0.000119874
0.000119123
0.000115699
0.000113405
0.000115683
0.000118687
0.00012328
0.000128769
0.000133252
0.000135421
0.000135237
0.000133878
0.000131827
0.000129366
0.000127002
0.000125716
0.000126682
0.000128805
0.000129605
0.000129761
0.000130634
0.000132982
0.00013596
0.000137353
0.000137877
0.00013796
0.000136551
0.000133464
0.000129261
0.000124321
0.000119105
0.000113633
0.000107782
0.000102637
9.93179e-05
9.78375e-05
9.76015e-05
9.82075e-05
0.000100415
0.000106496
0.000117778
0.000132814
0.000141713
0.000143864
0.000149363
0.000167335
0.000189572
0.000147014
3.63429e-05
3.39372e-05
3.6671e-05
4.57563e-05
0.000175317
0.000495222
0.000152358
0.000129947
0.000122048
0.000104987
9.54884e-05
9.8102e-05
0.00010546
0.000109046
0.000107148
9.6679e-05
8.56237e-05
8.32515e-05
8.48117e-05
8.73414e-05
0.000109086
0.000132115
0.000136378
0.000138279
0.000140165
0.000141916
0.000143224
0.000144053
0.000144533
0.000145034
0.000145739
0.000146524
0.00014733
0.000148139
0.000148898
0.000149262
0.000148786
0.000146739
0.00014381
0.000141373
0.000139961
0.00013948
0.000138853
0.00013675
0.000132959
0.000127361
0.00011997
0.000112513
0.000108345
0.000108001
0.000109462
0.00011467
0.000125484
0.00013755
0.000144533
0.00015176
0.000165508
0.00019252
0.000208781
0.000153068
4.04749e-05
3.81571e-05
4.11967e-05
5.22514e-05
0.000161769
0.000537005
0.00017021
0.000135418
0.000125551
0.000109308
8.25727e-05
5.87086e-05
4.55193e-05
4.07223e-05
3.75565e-05
3.21811e-05
2.64387e-05
2.44993e-05
2.43978e-05
2.74474e-05
5.1426e-05
0.000111918
0.000109387
0.000113942
0.000130072
0.00013846
0.000138543
0.000135869
0.000132205
0.000133593
0.000139275
0.000145925
0.000148689
0.000146795
0.000143298
0.00013962
0.000139932
0.000141376
0.000143309
0.000144454
0.000144457
0.000143376
0.000141926
0.000140413
0.000138216
0.000133585
0.000125129
0.000118836
0.000118807
0.000122195
0.000128698
0.00013649
0.000147655
0.000154013
0.000145328
0.000155985
0.000188275
0.000210016
0.00021851
0.000116189
3.96082e-05
3.90408e-05
4.19084e-05
5.61363e-05
0.000153772
0.000531805
0.000160916
0.000132968
0.000127188
0.000127123
0.000125244
0.00011546
0.000105877
0.000100148
8.90071e-05
6.49933e-05
4.37578e-05
3.40537e-05
3.25749e-05
3.55937e-05
4.72717e-05
5.4e-05
5.8912e-05
7.43767e-05
0.000112129
0.000135763
0.000138724
0.000139486
0.000137723
0.000137204
0.00013875
0.000142516
0.000146694
0.000148997
0.000150073
0.000141827
0.000139039
0.000143578
0.00015215
0.000151318
0.000149596
0.000149605
0.000149923
0.000150292
0.000150354
0.000149689
0.000148039
0.000143568
0.000135064
0.000129746
0.000131594
0.000138106
0.000147701
0.000152256
0.000149078
0.000148805
0.00017437
0.000202162
0.000210989
0.000125337
4.05026e-05
3.85541e-05
4.11538e-05
5.25117e-05
0.000141604
0.000530428
0.00015339
0.000144372
0.000137075
0.000136465
0.000134076
0.000132781
0.000132714
0.000132685
0.000130556
0.000125245
0.000114435
9.93638e-05
8.05131e-05
5.87084e-05
4.49722e-05
4.16031e-05
4.58271e-05
6.75173e-05
0.000124654
0.00014931
0.000151364
0.000152389
0.000153034
0.000153555
0.000153768
0.0001535
0.000152744
0.000151928
0.000151718
0.000152153
0.000152289
0.000152304
0.000152725
0.000153219
0.000153302
0.00015325
0.000152964
0.000152757
0.000153088
0.000153062
0.000152255
0.000150809
0.000147307
0.000141702
0.000139632
0.000141515
0.000148503
0.000154567
0.000158339
0.000160505
0.000168024
0.000186358
0.000206694
0.000183216
4.67731e-05
3.63594e-05
3.83453e-05
4.36727e-05
0.000118813
0.000470053
0.000163869
0.000153985
0.000150289
0.000151246
0.000148842
0.000147236
0.000145759
0.000145128
0.000144553
0.000143586
0.000141943
0.000137526
0.000120562
8.70091e-05
6.98608e-05
7.15299e-05
8.80873e-05
0.000126662
0.000144927
0.000148468
0.000150894
0.000152316
0.000153041
0.00015344
0.00015358
0.000153308
0.000152512
0.000150414
0.000148228
0.000145717
0.000142987
0.000142176
0.000143086
0.000144774
0.000146118
0.000146027
0.000145253
0.000144005
0.000142252
0.000140951
0.000141098
0.000141853
0.000143392
0.000146066
0.000149513
0.000152581
0.000154658
0.000155194
0.000153987
0.000153562
0.000169292
0.000203513
0.000214308
0.000191955
4.70361e-05
3.58783e-05
3.67555e-05
3.93516e-05
0.000108675
0.00044406
0.000190681
0.000185177
0.000178795
0.000173473
0.000168927
0.000165581
0.000163031
0.000160781
0.000158445
0.000155481
0.00015232
0.000148644
0.000143271
0.000136941
0.000134533
0.000135495
0.000137477
0.000139478
0.000140452
0.00013936
0.000138119
0.000137966
0.000138869
0.00014132
0.000144584
0.000145135
0.000138739
0.00013701
0.000138412
0.000145701
0.000150417
0.000149012
0.000129873
0.000127506
0.000138368
0.000145598
0.000144154
0.000135733
0.000120343
0.000125775
0.000138018
0.000140322
0.000129631
0.000144141
0.000151927
0.000155341
0.000156859
0.000155915
0.000145739
0.000151094
0.000166047
0.000189382
0.000201304
0.00018759
5.04516e-05
3.32758e-05
3.41566e-05
3.70557e-05
0.000109245
0.000528818
0.000191344
0.000182271
0.000174914
0.000169523
0.000165171
0.000162012
0.000159628
0.000157615
0.000155181
0.000151643
0.000147613
0.000143125
0.000139068
0.000135788
0.000134252
0.000133731
0.000134947
0.000137211
0.000138972
0.000140075
0.000140736
0.000140911
0.000141087
0.000141509
0.000142034
0.000141638
0.000138807
0.000139173
0.000142632
0.000146822
0.000147699
0.000145539
0.00014356
0.000143968
0.000145098
0.000145056
0.000144037
0.000141103
0.000138921
0.00014064
0.000145583
0.000149629
0.000149919
0.000142661
0.000138217
0.000140919
0.000144559
0.000149228
0.000156737
0.000168355