/*--------------------------------*- C++ -*----------------------------------*\
| =========                 |                                                 |
| \\      /  F ield         | OpenFOAM: The Open Source CFD Toolbox           |
|  \\    /   O peration     | Version:  2.1.1                                 |
|   \\  /    A nd           | Web:      www.OpenFOAM.org                      |
|    \\/     M anipulation  |                                                 |
\*---------------------------------------------------------------------------*/
FoamFile
{
    version     2.0;
    format      ascii;
    class       volVectorField;
    location    "0.00135";
    object      U;
}
// * * * * * * * * * * * * * * * * * * * * * * * * * * * * * * * * * * * * * //

dimensions      [0 1 -1 0 0 0 0];

internalField   nonuniform List<vector> 
36520
(
(-0.520375 -0.99277 -0.853714)
(-0.297669 -0.259107 -0.0732588)
(-1.50943 0.0271919 0.166934)
(-1.91188 0.394315 0.132378)
(-2.38344 0.586256 0.123489)
(-2.75743 0.737569 0.116223)
(-3.15035 0.830841 0.115599)
(-3.50187 0.845534 0.0984943)
(-3.75819 0.807794 0.0752885)
(-3.90504 0.788979 0.0518091)
(-3.96605 0.847256 0.0470337)
(-4.10189 1.04573 0.0706637)
(-4.41745 1.33084 0.12143)
(-5.051 1.63054 0.182928)
(-5.94435 1.78338 0.228093)
(-6.98375 1.68613 0.23183)
(-7.9123 1.28225 0.178007)
(-8.48814 0.644609 0.0731501)
(-8.55864 -0.0606683 -0.047988)
(-8.15382 -0.655403 -0.150252)
(-7.41865 -1.01423 -0.21504)
(-6.58975 -1.06261 -0.213468)
(-5.92184 -0.847263 -0.163212)
(-5.54865 -0.527728 -0.106799)
(-5.40748 -0.237819 -0.069558)
(-5.39551 -0.0202313 -0.0498017)
(-5.42876 0.136109 -0.0414908)
(-5.48172 0.249691 -0.0331167)
(-5.54332 0.340084 -0.0215379)
(-5.62755 0.414846 -0.00727419)
(-5.73566 0.478512 0.00688583)
(-5.871 0.532147 0.0176318)
(-6.02019 0.577935 0.0236732)
(-6.17423 0.619619 0.0249622)
(-6.32224 0.663107 0.0234008)
(-6.46185 0.708662 0.0189559)
(-6.58366 0.758981 0.0134481)
(-6.68926 0.822358 0.00729396)
(-6.77713 0.902165 0.00173524)
(-6.86252 1.01031 -0.000600901)
(-6.97181 1.14471 0.00540563)
(-7.11279 1.285 0.0240661)
(-7.31288 1.39642 0.0621706)
(-7.6484 1.43009 0.131105)
(-8.15827 1.31967 0.237772)
(-8.83408 1.05692 0.381164)
(-9.73597 0.665765 0.557459)
(-10.9042 0.0614467 0.778134)
(-12.3438 -0.665479 1.02598)
(-14.0856 -1.5833 1.17587)
(-15.8773 -2.72735 1.07085)
(-17.3865 -3.93312 0.913816)
(-18.4573 -5.12025 0.714616)
(-19.1302 -6.25528 0.513355)
(-19.5453 -7.38753 0.362965)
(-19.8293 -8.64579 0.217505)
(-19.8437 -10.3422 0.0796295)
(-20.6994 -13.0237 -0.0835089)
(-17.2016 -18.3098 -1.03518)
(-11.854 -23.599 -3.41408)
(-2.18483 -0.903732 -0.699461)
(-2.78046 0.189884 0.0886476)
(-3.65435 0.283021 0.330839)
(-4.02217 0.641006 0.251386)
(-4.46193 0.714796 0.269184)
(-4.82437 0.879379 0.254514)
(-5.20986 0.931751 0.270076)
(-5.56987 0.93023 0.227644)
(-5.83805 0.852146 0.177283)
(-5.97652 0.805547 0.113462)
(-6.04603 0.825043 0.107243)
(-6.16639 1.01528 0.172969)
(-6.47404 1.29641 0.319784)
(-7.09851 1.61169 0.493711)
(-7.98703 1.77135 0.6368)
(-9.02846 1.6763 0.659305)
(-9.95396 1.22537 0.517212)
(-10.5005 0.524491 0.230975)
(-10.5339 -0.246799 -0.092073)
(-10.0854 -0.888127 -0.380874)
(-9.31462 -1.2652 -0.568164)
(-8.4671 -1.30105 -0.580153)
(-7.8017 -1.03863 -0.453685)
(-7.4559 -0.68253 -0.305841)
(-7.33269 -0.375663 -0.208121)
(-7.33318 -0.157357 -0.157223)
(-7.36069 -0.00484778 -0.131996)
(-7.40398 0.106841 -0.109329)
(-7.4482 0.196262 -0.0746667)
(-7.51566 0.268111 -0.0311937)
(-7.60316 0.327328 0.0138298)
(-7.71842 0.377376 0.0533394)
(-7.84368 0.419307 0.0828143)
(-7.97625 0.457497 0.102601)
(-8.10567 0.495588 0.115133)
(-8.22807 0.532262 0.120011)
(-8.33623 0.572933 0.118082)
(-8.42581 0.62033 0.111633)
(-8.49546 0.681788 0.103839)
(-8.55639 0.773316 0.102672)
(-8.63169 0.887453 0.124037)
(-8.72565 1.0024 0.18872)
(-8.84571 1.08298 0.329506)
(-9.0275 1.08741 0.561935)
(-9.29595 0.982514 0.861433)
(-9.70702 0.759975 1.19746)
(-10.3622 0.423216 1.56525)
(-11.2986 -0.0615436 1.99222)
(-12.5142 -0.64243 2.39811)
(-14.061 -1.47237 2.75323)
(-15.7971 -2.70626 2.92152)
(-17.3989 -4.1164 2.63778)
(-18.725 -5.53448 2.04233)
(-19.5765 -6.94257 1.50197)
(-20.081 -8.15623 1.02399)
(-20.3123 -9.51561 0.432008)
(-20.4928 -11.1897 0.0347689)
(-21.2063 -13.8211 -0.48842)
(-18.9565 -19.3983 -2.97106)
(-14.3279 -26.0889 -10.5141)
(-2.67852 -0.871946 -0.273937)
(-3.69601 0.266824 0.346219)
(-4.49076 0.395941 0.530335)
(-4.84544 0.700919 0.413365)
(-5.18222 0.767991 0.448395)
(-5.51406 0.953582 0.41191)
(-5.88881 0.99967 0.439081)
(-6.24211 0.992242 0.360994)
(-6.49443 0.887647 0.281986)
(-6.59678 0.812528 0.190381)
(-6.62934 0.808088 0.180994)
(-6.68446 1.03339 0.28045)
(-6.94732 1.36972 0.488222)
(-7.54073 1.77294 0.743364)
(-8.44311 2.00634 0.945639)
(-9.52293 1.93392 0.98284)
(-10.4935 1.42235 0.769554)
(-11.0447 0.583838 0.343531)
(-11.0487 -0.348345 -0.130722)
(-10.5538 -1.1139 -0.557835)
(-9.69996 -1.56596 -0.843352)
(-8.7613 -1.58827 -0.857963)
(-8.04834 -1.23314 -0.658131)
(-7.7167 -0.793556 -0.436743)
(-7.61787 -0.439439 -0.299011)
(-7.63913 -0.203729 -0.234221)
(-7.6715 -0.0429578 -0.203358)
(-7.71414 0.0699935 -0.174644)
(-7.75362 0.16758 -0.12875)
(-7.82007 0.248774 -0.0688031)
(-7.90538 0.315662 -0.00662509)
(-8.01959 0.368798 0.0491535)
(-8.14307 0.410356 0.0870046)
(-8.27369 0.445683 0.108299)
(-8.4004 0.481636 0.117191)
(-8.52016 0.520082 0.110085)
(-8.62582 0.561916 0.0848208)
(-8.70949 0.609166 0.0571465)
(-8.77276 0.672986 0.0282113)
(-8.82325 0.771752 0.0141441)
(-8.87971 0.905199 0.035525)
(-8.93852 1.06277 0.120185)
(-9.00467 1.21518 0.306952)
(-9.122 1.32286 0.616358)
(-9.30594 1.34091 1.02213)
(-9.5686 1.30889 1.51709)
(-9.94554 1.19055 2.14184)
(-10.4516 0.900894 2.90433)
(-11.0687 0.37097 3.64911)
(-11.8399 -0.542529 4.20287)
(-12.6279 -1.8434 4.37248)
(-13.2206 -3.46899 3.97209)
(-14.2797 -5.26438 3.12933)
(-16.265 -6.95168 2.31124)
(-17.7866 -8.38151 1.53146)
(-18.556 -9.7122 0.834801)
(-19.0835 -11.2038 0.327548)
(-19.7487 -13.8947 -0.675329)
(-19.9517 -19.7813 -3.74081)
(-14.7384 -29.7462 -18.7136)
(-2.82521 -0.870767 0.269173)
(-3.95413 0.370708 0.559589)
(-4.76841 0.493923 0.634532)
(-5.13056 0.771555 0.49018)
(-5.3863 0.909582 0.53685)
(-5.68925 1.10677 0.515315)
(-6.05441 1.17968 0.541116)
(-6.41856 1.14461 0.452133)
(-6.67271 0.981007 0.35352)
(-6.74399 0.828469 0.254547)
(-6.7181 0.773327 0.275741)
(-6.71898 1.00028 0.40204)
(-6.93811 1.43615 0.644573)
(-7.52464 1.98 0.927784)
(-8.45738 2.36435 1.15483)
(-9.57521 2.35542 1.18998)
(-10.5804 1.76965 0.931357)
(-11.1374 0.718379 0.411778)
(-11.0935 -0.455095 -0.136648)
(-10.5468 -1.43167 -0.6285)
(-9.59197 -2.01149 -0.974716)
(-8.5465 -2.01699 -0.999406)
(-7.77631 -1.51624 -0.765041)
(-7.46807 -0.938051 -0.519651)
(-7.40931 -0.509096 -0.382421)
(-7.45696 -0.239028 -0.331449)
(-7.49826 -0.0573003 -0.311922)
(-7.53494 0.0778688 -0.28691)
(-7.56247 0.199851 -0.233234)
(-7.61628 0.305591 -0.144271)
(-7.68791 0.399334 -0.0400358)
(-7.78854 0.478047 0.0494365)
(-7.90371 0.539654 0.106011)
(-8.03015 0.592146 0.129166)
(-8.16258 0.647351 0.12777)
(-8.29729 0.705506 0.103024)
(-8.42127 0.758403 0.0564938)
(-8.52236 0.80886 -0.000635036)
(-8.59086 0.866794 -0.063764)
(-8.6374 0.950596 -0.114901)
(-8.6691 1.06821 -0.114902)
(-8.66724 1.21311 -0.0430455)
(-8.61254 1.37151 0.152694)
(-8.51591 1.53293 0.503931)
(-8.3149 1.65832 0.946267)
(-7.89428 1.72431 1.47715)
(-7.18356 1.71778 2.11186)
(-6.23772 1.54637 2.92449)
(-5.04022 1.16735 3.80871)
(-3.76215 0.66587 4.61904)
(-2.42146 -0.147546 5.10279)
(-1.40209 -1.53993 4.88968)
(-0.687487 -2.94871 4.17926)
(-2.19593 -4.52859 3.764)
(-6.84405 -6.89387 3.05355)
(-11.5292 -8.8081 1.49436)
(-13.3664 -10.4296 -3.68249e-05)
(-14.4752 -13.0423 -1.41437)
(-18.334 -19.1553 -4.36601)
(-8.66279 -33.4683 -28.291)
(-2.79477 -0.498409 0.929044)
(-4.11034 0.504401 0.857168)
(-4.8305 0.554992 0.860397)
(-5.16421 0.827147 0.620005)
(-5.37895 1.00915 0.663177)
(-5.71423 1.22834 0.655917)
(-6.13396 1.34249 0.656783)
(-6.53674 1.30864 0.542808)
(-6.78132 1.08907 0.431482)
(-6.8087 0.868917 0.363414)
(-6.68461 0.784447 0.460661)
(-6.58991 1.08572 0.63621)
(-6.7067 1.69302 0.883524)
(-7.17241 2.42888 1.11681)
(-7.97216 2.9784 1.28446)
(-8.96711 3.02788 1.27348)
(-9.85599 2.36065 0.980988)
(-10.2615 1.05445 0.435368)
(-10.0973 -0.493503 -0.168508)
(-9.61071 -1.74933 -0.624077)
(-8.70762 -2.48553 -0.912857)
(-7.62892 -2.4496 -0.938125)
(-6.82934 -1.74441 -0.735218)
(-6.53125 -0.999076 -0.520991)
(-6.48318 -0.494235 -0.420431)
(-6.52726 -0.199959 -0.406621)
(-6.56393 -0.00862359 -0.413719)
(-6.57512 0.136971 -0.405296)
(-6.57032 0.273832 -0.356935)
(-6.57145 0.40436 -0.261617)
(-6.57702 0.526317 -0.148207)
(-6.59349 0.624697 -0.0499267)
(-6.62778 0.702479 0.0129887)
(-6.69385 0.765168 0.0400224)
(-6.81815 0.826668 0.0320883)
(-6.99224 0.894216 -0.0140944)
(-7.1854 0.971752 -0.0986005)
(-7.36874 1.06337 -0.198829)
(-7.51725 1.15656 -0.312695)
(-7.66263 1.29386 -0.421024)
(-7.78187 1.49045 -0.489973)
(-7.84699 1.73978 -0.51691)
(-7.85412 2.07891 -0.445362)
(-7.81038 2.54927 -0.21993)
(-7.69459 3.03487 0.069204)
(-7.44126 3.45691 0.468117)
(-6.90834 3.80897 1.02516)
(-6.01559 4.04802 1.82526)
(-4.71816 4.19804 2.82448)
(-2.84175 4.00628 3.85499)
(-0.307767 2.9712 4.50291)
(3.84998 1.16541 4.01163)
(8.18388 -0.705295 2.84194)
(10.0185 -1.62537 2.61165)
(9.49589 -2.11312 2.69613)
(6.64035 -3.30315 2.45315)
(2.37201 -5.66363 1.85181)
(0.442454 -8.43365 0.333804)
(-10.5927 -14.555 -4.80305)
(2.22437 -33.1257 -34.621)
(-3.15566 -0.222233 1.22254)
(-4.3398 0.669612 0.935457)
(-4.97426 0.724682 0.912439)
(-5.29189 0.964416 0.62248)
(-5.44818 1.22964 0.667231)
(-5.73564 1.5244 0.644822)
(-6.10787 1.67439 0.632548)
(-6.46999 1.60531 0.484257)
(-6.62111 1.25996 0.400363)
(-6.48251 0.907846 0.415985)
(-6.1718 0.772889 0.642088)
(-5.87759 1.09303 0.903625)
(-5.7534 1.82247 1.132)
(-5.88211 2.72122 1.21491)
(-6.13503 3.35686 1.16997)
(-6.42449 3.49772 1.0012)
(-6.40232 2.77639 0.672473)
(-6.06692 1.19991 0.193905)
(-5.71081 -0.723563 -0.23914)
(-5.56998 -2.31199 -0.374484)
(-5.34634 -3.23697 -0.45133)
(-4.68653 -3.13946 -0.553359)
(-4.01942 -2.16447 -0.547178)
(-3.7437 -1.2267 -0.475043)
(-3.66073 -0.645837 -0.482262)
(-3.63043 -0.33512 -0.551356)
(-3.59832 -0.135412 -0.608604)
(-3.4877 0.0214263 -0.645064)
(-3.35857 0.182037 -0.630952)
(-3.18428 0.351573 -0.548405)
(-2.97235 0.486724 -0.408732)
(-2.7162 0.566062 -0.245835)
(-2.45881 0.601028 -0.0978579)
(-2.30346 0.617209 -0.00373962)
(-2.26879 0.626425 0.0229866)
(-2.42027 0.675473 -0.0460904)
(-2.62551 0.75313 -0.218713)
(-2.88484 0.850659 -0.440502)
(-3.15292 0.972701 -0.704511)
(-3.51614 1.11566 -0.977185)
(-3.97269 1.31123 -1.16471)
(-4.37291 1.51931 -1.25284)
(-4.75947 1.83273 -1.17878)
(-5.12659 2.46196 -0.870464)
(-5.16519 3.20149 -0.646159)
(-5.09418 3.8893 -0.51002)
(-4.8432 4.5503 -0.300036)
(-4.33439 5.21919 0.134482)
(-3.40637 5.77077 0.827079)
(-1.97894 5.80227 1.79914)
(1.34724 4.62908 2.49976)
(6.54525 2.08622 2.11855)
(10.0697 -0.13823 1.68201)
(11.3541 -1.07779 1.94941)
(12.9475 -1.18599 1.65041)
(14.5832 -1.4035 0.612936)
(14.7522 -1.90518 -0.177304)
(14.579 -2.71779 -0.668927)
(9.43606 -4.42887 -2.37214)
(10.6195 -28.6934 -33.3873)
(-3.44183 1.80901 2.06887)
(-4.44959 0.987465 1.16036)
(-5.00419 0.882435 1.13708)
(-5.18904 1.01348 0.776722)
(-5.20286 1.39029 0.811809)
(-5.29726 1.77813 0.743135)
(-5.50212 2.02517 0.588587)
(-5.67883 1.91091 0.281477)
(-5.52448 1.39102 0.22039)
(-5.06237 0.872474 0.382678)
(-4.40538 0.65132 0.840782)
(-3.72132 0.940544 1.23562)
(-3.05383 1.76877 1.44473)
(-2.34843 2.80357 1.28103)
(-1.49869 3.63525 0.840537)
(-0.500895 3.93716 0.309902)
(0.761993 3.41927 -0.192268)
(2.10366 1.94654 -0.543132)
(2.85719 -0.0317157 -0.678696)
(2.56531 -1.93778 -0.344304)
(1.83321 -3.36272 0.285262)
(1.51378 -3.49811 0.584221)
(1.71333 -2.48151 0.31723)
(1.7087 -1.36555 -0.0812227)
(1.51156 -0.684931 -0.363793)
(1.29924 -0.327955 -0.574381)
(1.10063 -0.0795506 -0.765247)
(1.04849 0.144134 -0.950841)
(1.09403 0.367387 -1.04482)
(1.27783 0.580205 -1.0196)
(1.55538 0.747365 -0.901304)
(1.93673 0.839445 -0.710686)
(2.39852 0.855636 -0.443922)
(2.88807 0.816716 -0.184052)
(3.34192 0.749285 0.0178423)
(3.70061 0.68002 0.120696)
(4.00457 0.618973 0.0778009)
(4.0702 0.58056 -0.0752354)
(4.04958 0.598967 -0.317753)
(3.96653 0.687025 -0.644903)
(3.4654 0.925397 -0.991097)
(2.93916 1.25107 -1.34758)
(2.12698 1.44527 -1.6074)
(1.3596 1.82543 -1.60932)
(1.50856 2.23862 -1.66374)
(2.36306 2.85394 -1.89918)
(3.34922 3.51421 -2.17648)
(4.06295 4.03731 -2.0303)
(4.62817 4.56895 -1.42254)
(5.49433 4.70258 -0.526062)
(7.25661 4.1224 0.31008)
(8.58811 2.95234 0.955426)
(9.5652 1.45124 1.46691)
(10.9111 1.14858 1.47069)
(16.4066 0.33709 0.200534)
(18.8933 -0.56781 -0.628898)
(19.3631 -1.02864 -0.946708)
(19.0918 -1.44545 -1.28762)
(17.7982 -2.42421 -2.53423)
(16.0786 -25.1723 -28.1094)
(-4.1572 0.977728 1.65306)
(-4.67028 0.777808 0.842488)
(-4.38752 1.18617 1.08388)
(-4.07838 1.35401 0.563063)
(-3.44397 1.85447 0.550002)
(-3.04804 2.29878 0.286108)
(-2.54794 2.34849 0.0010656)
(-1.9042 1.7508 -0.256096)
(-0.951735 0.856422 -0.125259)
(0.221233 0.200812 0.432952)
(1.33959 -0.173827 1.30904)
(2.3825 -0.0245988 1.99948)
(3.70786 0.904852 2.13772)
(5.59514 2.06149 1.59223)
(7.54487 2.91934 0.535314)
(9.34794 3.29662 -0.505375)
(10.9651 3.21281 -1.10497)
(12.2778 2.49033 -1.31328)
(12.8487 1.21346 -1.16521)
(12.3226 -0.491371 -0.553269)
(10.827 -2.01623 0.312738)
(9.79141 -2.50035 0.871248)
(9.97741 -2.09735 0.792732)
(10.1657 -1.41046 0.354796)
(9.86842 -1.01049 0.0230575)
(9.296 -0.829509 -0.248235)
(8.64067 -0.683776 -0.579401)
(8.05489 -0.478068 -0.91318)
(7.57133 -0.156175 -1.14094)
(7.30867 0.250152 -1.24114)
(7.26855 0.628142 -1.23975)
(7.39961 0.894352 -1.10115)
(7.69219 1.03341 -0.817294)
(8.10941 1.05304 -0.478173)
(8.62919 1.01664 -0.169473)
(9.14539 0.943207 0.0487216)
(9.75025 0.807637 0.131574)
(10.2019 0.660952 0.112689)
(10.5952 0.522912 -0.0330501)
(10.959 0.451112 -0.289515)
(11.0277 0.461008 -0.526163)
(10.9987 0.60509 -0.806468)
(10.8021 0.838155 -1.0953)
(10.0726 1.30483 -1.40037)
(9.88411 1.77341 -1.94552)
(10.0429 2.35562 -2.68607)
(10.2414 3.10892 -3.30553)
(10.5055 3.80614 -3.51867)
(10.8713 4.54196 -3.22364)
(11.5488 5.01116 -2.16951)
(12.468 5.03349 -0.81825)
(13.5099 4.86575 -0.343493)
(14.7779 4.24145 -0.700078)
(18.5597 1.38036 -2.63246)
(22.2766 -0.885997 -2.23806)
(22.3596 -0.613172 -0.876915)
(21.8199 -0.885295 -0.876763)
(21.1114 -1.31292 -1.11957)
(20.2263 -2.65652 -2.25774)
(19.2518 -29.0722 -22.9281)
(-3.61098 17.4628 4.07336)
(-4.4198 3.39488 0.954852)
(-2.89542 0.895403 1.09613)
(-1.895 0.573645 0.379771)
(-0.359964 0.170151 0.500482)
(0.982647 0.0250274 0.283326)
(2.22429 0.0628496 0.0604124)
(3.13337 0.330936 -0.307906)
(3.59685 0.466442 -0.568662)
(4.36763 0.508649 -0.352445)
(6.17335 0.51362 0.345413)
(8.88725 0.557644 0.953741)
(12.3249 0.506212 1.10681)
(15.8661 0.535413 0.72722)
(18.3171 0.618848 -0.0560933)
(19.2415 0.616105 -0.651762)
(19.3465 0.505526 -0.884694)
(19.0268 0.270464 -0.923794)
(18.0355 -0.122368 -0.780849)
(17.1169 -0.473064 -0.361153)
(17.0502 -0.578426 0.0586567)
(17.7177 -0.606537 0.245912)
(18.7019 -0.526868 0.252806)
(19.323 -0.406486 0.239871)
(19.501 -0.308977 0.276641)
(19.3721 -0.252873 0.330189)
(18.8652 -0.216562 0.320916)
(17.8365 -0.0907756 0.127388)
(16.2915 0.186102 -0.322663)
(14.9294 0.493016 -0.904647)
(14.3012 0.599222 -1.22114)
(14.2142 0.555883 -1.20764)
(14.3589 0.481358 -0.947817)
(14.7194 0.416688 -0.557086)
(15.2583 0.333193 -0.24179)
(15.9483 0.198813 -0.0259752)
(16.7285 0.0881473 0.0830382)
(17.5074 0.0189039 0.122328)
(18.2301 0.0152107 0.0790556)
(18.7564 0.0456811 -0.01094)
(18.9971 0.0689436 -0.0969456)
(19.007 0.07893 -0.144288)
(18.9393 0.0995014 -0.177194)
(18.7491 0.141736 -0.251858)
(18.5904 0.255463 -0.467967)
(18.3824 0.503079 -0.913875)
(18.1203 0.869018 -1.4946)
(18.0239 1.26479 -2.06507)
(18.4184 1.6345 -2.44556)
(19.2038 2.07025 -2.22192)
(21.418 2.3734 -1.32355)
(25.8113 1.75751 -0.661984)
(27.9124 0.627583 -0.629884)
(27.2576 -0.00269109 -0.852024)
(25.1317 -0.345041 -1.8369)
(24.4613 -0.216835 -0.566611)
(22.72 -0.79572 -0.528624)
(21.8057 -1.42623 -0.749067)
(20.9917 -4.0244 -1.70993)
(19.8284 -34.0309 -15.4472)
(-2.61795 18.4942 6.7486)
(-3.62073 4.03822 2.08291)
(-1.16068 1.48174 1.18541)
(0.219255 0.900182 0.361903)
(2.70007 0.217493 0.374769)
(4.69352 0.00524922 0.320404)
(6.70496 -0.00265992 0.249796)
(8.57748 0.0897806 -0.0344859)
(9.17921 0.129747 -0.507495)
(9.2611 0.218477 -0.805091)
(9.98796 0.215523 -0.74912)
(12.0587 0.243754 -0.382705)
(14.8004 0.500067 0.121469)
(17.5886 0.578591 0.514155)
(19.6024 0.320204 0.504588)
(20.4689 0.0613741 0.164061)
(20.6526 -0.125903 -0.123731)
(20.495 -0.248941 -0.200011)
(19.9238 -0.333708 -0.27134)
(19.2838 -0.340461 -0.387172)
(19.1815 -0.289348 -0.503356)
(19.7082 -0.171735 -0.673907)
(20.6347 -0.117008 -0.58389)
(21.1773 -0.112111 -0.29352)
(21.3077 -0.128096 -0.0288439)
(21.204 -0.149839 0.144133)
(21.0306 -0.174528 0.275027)
(20.8354 -0.168381 0.329766)
(20.4951 -0.100188 0.263637)
(19.6691 0.063967 -0.0724819)
(18.0825 0.306773 -0.701811)
(16.8119 0.460519 -0.993626)
(16.5437 0.421016 -0.846032)
(16.8222 0.315101 -0.573437)
(17.6308 0.201141 -0.216019)
(18.5672 0.0834158 -0.0202336)
(19.4857 -0.00885145 0.0228536)
(20.3025 -0.0354643 -0.00290524)
(20.8855 -0.00963692 -0.0325278)
(21.1663 0.0244907 -0.0689733)
(21.2383 0.0216769 -0.058114)
(21.23 0.0173831 -0.0466083)
(21.1746 0.0178307 -0.033357)
(21.095 0.0289505 -0.0539697)
(21.0216 0.0595942 -0.162881)
(20.8331 0.124472 -0.393548)
(20.6284 0.271328 -0.827612)
(20.6366 0.549855 -1.24243)
(21.0984 0.854275 -1.3999)
(22.3704 0.986534 -1.15636)
(25.6556 0.761332 -0.479491)
(29.6247 0.143013 -0.061784)
(30.8488 -0.358099 -0.210348)
(30.1819 -0.459463 -0.842044)
(27.4699 -0.160985 -1.22499)
(24.3987 -0.311341 -0.0956136)
(22.8049 -0.806233 -0.272692)
(21.8552 -1.49811 -0.571316)
(20.9473 -4.46365 -1.58004)
(19.5351 -36.0767 -10.4495)
(-1.84307 11.5498 4.75588)
(-1.88894 0.959626 1.4011)
(1.35678 -0.123619 0.0336462)
(2.03209 -0.00607437 -0.416443)
(3.89216 0.10738 -0.400473)
(5.90981 0.366477 -0.22093)
(8.4549 0.46141 0.00740547)
(10.1569 0.348596 0.199726)
(9.96899 0.277073 0.278996)
(8.65168 0.327455 -0.0730491)
(8.54721 0.318349 -0.741231)
(10.8665 0.300143 -1.11482)
(14.9694 0.340694 -0.725988)
(18.9434 0.246054 0.022774)
(21.2433 0.0471747 0.315421)
(22.0175 -0.136147 0.0761268)
(22.2797 -0.179643 -0.203549)
(22.2523 -0.10013 -0.323158)
(21.9739 -0.1912 -0.413092)
(21.1943 -0.339703 -0.597649)
(20.3364 -0.223423 -1.09931)
(20.3691 -0.0914448 -1.49503)
(21.0194 -0.0781914 -1.36524)
(21.7877 -0.0734192 -0.678977)
(21.9931 -0.0795198 -0.154142)
(21.8843 -0.0875116 0.120806)
(21.7078 -0.0967531 0.240393)
(21.5518 -0.0895112 0.248248)
(21.3382 -0.0585108 0.169846)
(20.8611 -0.0767128 0.0908824)
(19.6107 -0.148012 -0.0938259)
(17.4969 -0.116841 -0.397092)
(16.3823 0.0403534 -0.587549)
(16.3146 0.148699 -0.555533)
(16.7766 0.22041 -0.433958)
(17.9653 0.220284 -0.282283)
(19.2174 0.159196 -0.207224)
(20.3287 0.0940824 -0.157387)
(21.1105 0.0772937 -0.100274)
(21.4639 0.0529266 -0.0714221)
(21.6075 0.0191462 -0.0505623)
(21.686 -0.0142079 -0.00686993)
(21.7118 -0.0411144 0.0684269)
(21.6979 -0.0612225 0.112453)
(21.6173 -0.103573 0.131982)
(21.5116 -0.156123 0.0564367)
(21.5445 -0.126665 -0.0799244)
(21.6073 0.0854421 -0.283443)
(21.7603 0.679122 -0.517416)
(22.6645 1.91288 -0.787106)
(25.3194 2.91458 -0.458428)
(30.0107 2.02365 0.0743846)
(31.4688 0.462735 -0.195009)
(30.2399 -0.242563 -0.434268)
(26.7793 -0.193438 1.01035)
(24.2598 -0.309733 0.416273)
(22.9012 -0.870587 -0.0323115)
(21.9365 -1.5573 -0.39589)
(20.9651 -4.50856 -1.24791)
(19.9222 -39.2909 -6.66279)
(-3.63008 1.78952 2.7879)
(-3.49107 -0.0374626 0.60971)
(-1.77913 0.36481 -0.0866309)
(-1.5247 0.872449 -0.0202713)
(-0.059925 1.50321 0.237448)
(0.793962 1.76804 0.485596)
(1.79864 1.42055 0.808259)
(2.63577 0.748912 1.03672)
(3.26155 0.200333 0.816809)
(4.27452 0.0164464 -0.165916)
(5.98066 0.323784 -1.41775)
(8.51624 1.14441 -2.11183)
(12.1877 1.75713 -2.06275)
(16.8493 1.77072 -1.1938)
(20.397 1.32916 0.0987514)
(23.1676 0.551415 0.557295)
(24.8757 -0.205517 0.213482)
(25.6052 -0.656002 -0.0885221)
(25.6091 -0.865555 -0.288512)
(25.3249 -0.971949 -0.536759)
(24.4027 -0.951776 -0.879392)
(20.878 -0.797108 -2.1433)
(19.8148 -0.705567 -2.54425)
(19.8883 -0.447475 -1.65626)
(19.7653 -0.234079 -0.471442)
(19.3336 -0.163011 0.130349)
(18.7954 -0.167963 0.372199)
(18.2156 -0.196922 0.425549)
(17.5287 -0.263832 0.403411)
(16.7409 -0.422499 0.415511)
(15.7886 -0.654083 0.362132)
(14.9459 -0.6985 -0.0211521)
(14.4959 -0.317153 -0.387224)
(14.504 0.136392 -0.401044)
(14.9594 0.436201 -0.333381)
(15.6992 0.59368 -0.300742)
(16.4465 0.559799 -0.31487)
(16.9415 0.46832 -0.323594)
(17.1848 0.364911 -0.252923)
(17.2678 0.194559 -0.180129)
(17.3296 0.0419565 -0.132768)
(17.4289 -0.000815589 -0.0183186)
(17.4542 0.0585159 0.126254)
(17.4689 0.0753406 0.202622)
(17.4539 0.0225834 0.271718)
(17.4438 -0.0138749 0.253016)
(17.5971 -0.0291778 0.171146)
(17.9535 0.147759 0.234267)
(18.1601 0.804184 0.286069)
(18.6261 2.81254 0.42955)
(21.1186 4.63573 1.18497)
(26.3663 3.5207 1.35584)
(29.5581 0.408865 0.410381)
(28.2694 -1.52221 0.0650033)
(26.3042 -1.79542 0.972921)
(24.0812 -0.686532 0.288757)
(22.8247 -1.04012 0.0832917)
(21.9949 -1.4375 -0.0383889)
(21.053 -3.15495 -0.236881)
(19.7184 -36.9304 -0.14738)
(-3.72878 1.91282 -3.48697)
(-3.85846 0.0813666 -0.88466)
(-2.61742 0.953279 -0.145352)
(-2.37787 1.47618 0.257058)
(-0.841714 2.19508 0.788413)
(0.25026 2.51121 1.50333)
(1.68918 2.28612 2.23778)
(3.4946 1.47661 2.4398)
(5.22868 0.667775 1.78358)
(7.36942 -0.0814479 0.382376)
(9.59646 -0.317503 -0.898263)
(11.8036 0.520853 -2.20958)
(14.282 1.79963 -2.87685)
(17.1918 2.64668 -2.09305)
(20.735 2.4106 -0.737191)
(24.5727 1.38523 -0.0781683)
(26.9796 0.0109906 -0.238548)
(27.639 -0.903042 -0.38364)
(27.5872 -1.29597 -0.399224)
(27.2766 -1.50641 -0.433792)
(26.6673 -1.58396 -0.521169)
(25.3406 -1.51699 -0.76498)
(21.9162 -0.791541 -1.55507)
(20.6336 -0.272419 -1.27307)
(20.0006 -0.075677 -0.195929)
(19.3149 -0.0168344 0.454553)
(18.6556 -0.0470902 0.627123)
(18.0343 -0.122501 0.487686)
(17.4006 -0.221462 0.224551)
(16.7541 -0.37927 -0.100602)
(15.9313 -0.65592 -0.515512)
(14.8797 -0.763328 -0.657401)
(14.0978 -0.342233 -0.33913)
(14.0092 0.169421 -0.0854781)
(14.4433 0.411043 -0.00976784)
(15.2327 0.533158 0.021474)
(16.026 0.5163 0.0672202)
(16.5828 0.38388 0.168423)
(16.9177 0.234309 0.207267)
(16.9849 0.181418 0.125252)
(16.8493 0.180142 0.0763178)
(16.7869 0.14273 0.142729)
(16.7354 0.120739 0.343898)
(16.5652 0.163706 0.600485)
(16.2253 0.291499 0.895395)
(15.2878 0.455184 1.03987)
(14.1873 0.915174 1.38817)
(14.0371 1.57581 2.32793)
(14.9387 2.57668 3.31015)
(16.922 3.94447 3.76782)
(21.4108 4.24802 4.01094)
(27.64 2.36408 3.27779)
(29.6251 -0.45636 0.811244)
(27.6795 -2.00315 0.171055)
(25.6913 -1.66325 1.29497)
(24.1508 -0.561725 0.382564)
(22.8279 -1.0147 0.0967871)
(21.9986 -1.44742 0.148014)
(21.0702 -3.05765 0.846824)
(19.2963 -35.1224 8.6067)
(-1.91478 12.446 -5.41709)
(-1.57396 1.09574 -1.58115)
(0.283139 0.263884 0.125846)
(0.262927 0.599936 0.759246)
(1.50486 1.12984 1.24748)
(3.49644 1.27545 1.82442)
(7.18392 0.930398 2.21892)
(12.5091 0.417081 1.97357)
(17.4181 -0.275476 1.02179)
(20.4 -0.754858 0.092755)
(21.5308 -0.540298 -0.478039)
(21.5493 0.0944661 -1.02174)
(20.8978 1.83843 -2.18622)
(21.295 3.37661 -3.04269)
(23.6246 2.91701 -2.94065)
(26.9941 1.43059 -2.30601)
(29.5025 0.151892 -1.15976)
(30.6075 -0.785109 -0.235233)
(30.5352 -1.23998 -0.00905877)
(30.092 -1.53779 -0.0183849)
(29.515 -1.67287 -0.146792)
(28.6692 -1.76665 -0.295588)
(26.7987 -1.56053 -0.453627)
(23.7403 -0.619301 -0.809682)
(22.6263 -0.154328 -0.245559)
(22.0617 0.014262 0.278933)
(21.7287 0.0389841 0.408998)
(21.5343 0.0159952 0.347447)
(21.3883 -0.0184511 0.21714)
(21.0604 -0.06604 0.0562871)
(20.2183 -0.138922 -0.0382741)
(17.9589 -0.108236 0.0646434)
(15.6737 0.0867368 0.228191)
(15.1084 0.233908 0.201921)
(15.3725 0.265956 0.105759)
(16.4827 0.203432 -0.0331115)
(17.8817 0.109191 -0.065643)
(19.1002 0.0414756 -0.0274342)
(20.0715 0.000938342 0.0177358)
(20.5833 -0.023225 0.051064)
(20.7076 -0.05692 0.0973664)
(20.6682 -0.0610052 0.157725)
(20.6049 -0.0541518 0.276667)
(20.6273 -0.063754 0.435131)
(20.5423 -0.0420379 0.750833)
(20.0768 0.00757017 1.24187)
(18.5936 0.312377 1.85949)
(17.2355 0.870432 2.92196)
(17.1118 1.69853 3.98104)
(18.0809 2.8514 4.33959)
(20.7753 3.23457 4.16763)
(26.1276 1.77107 3.08721)
(27.0113 -0.211189 0.820602)
(24.8537 -1.10337 0.0811135)
(23.917 -0.779874 0.570039)
(23.6614 -0.469756 0.218584)
(22.8291 -0.904353 0.194253)
(21.8418 -1.65076 0.543527)
(20.633 -4.58748 2.21503)
(19.1774 -39.7609 14.5688)
(-2.31609 20.286 -7.04514)
(-3.5161 6.44705 -2.00968)
(0.117241 2.11826 -0.129984)
(2.15452 0.928827 1.04265)
(5.43319 0.392165 1.77333)
(9.40821 0.117748 2.11151)
(14.0771 -0.252828 1.80991)
(18.2995 -0.747286 0.755248)
(21.5711 -1.30728 0.0653401)
(23.443 -1.48985 -0.290068)
(24.7334 -1.22478 -0.585333)
(26.0054 -0.805892 -0.695125)
(26.7831 -0.475969 -0.509967)
(27.5576 0.226868 -0.27659)
(28.1986 1.11977 -0.556174)
(28.4185 0.832798 -1.48527)
(28.7127 0.188845 -2.45171)
(29.1667 0.476925 -2.26361)
(31.4808 0.40804 -1.38222)
(32.9648 -0.699539 -0.510672)
(32.9166 -1.61461 -0.00296072)
(31.6953 -2.0249 0.328922)
(29.6765 -2.17532 0.696273)
(25.9538 -1.90475 1.06855)
(22.4948 -0.635224 0.944297)
(21.1158 -0.0338208 0.890945)
(20.2543 0.0786535 0.764322)
(19.5962 0.0704316 0.514434)
(18.7977 0.0561337 0.269892)
(17.4566 0.110673 0.261564)
(15.3645 0.282957 0.6643)
(13.5691 0.434606 0.999755)
(13.0685 0.359521 0.876896)
(13.2496 0.251061 0.501914)
(13.825 0.18616 0.0213929)
(14.3725 0.12907 -0.245456)
(14.8632 0.076079 -0.197834)
(15.335 0.043958 -0.0462524)
(15.6837 0.0708383 0.158109)
(15.6663 0.12866 0.319737)
(15.3845 0.197512 0.587705)
(15.3345 0.251754 0.829858)
(15.1987 0.355912 1.08645)
(15.3299 0.481772 1.48504)
(15.4407 0.74788 2.33286)
(15.2919 1.19703 3.36562)
(15.3632 1.6229 4.26599)
(15.7651 2.03196 5.01978)
(16.6432 2.56493 5.70392)
(17.7537 2.91814 5.44589)
(20.0581 2.591 4.2368)
(24.1827 1.30116 2.45022)
(25.0739 -0.351479 0.360336)
(24.1504 -0.973264 -0.182316)
(24.0428 -0.64916 0.187292)
(23.44 -0.628518 0.193832)
(22.4867 -1.02677 0.362583)
(21.4172 -1.77423 0.753913)
(19.7181 -4.89606 2.53016)
(17.2878 -40.9001 16.242)
(-3.73313 17.9095 -2.98682)
(-4.50848 5.24719 -0.962777)
(-1.95807 1.05004 -1.8234)
(-0.106584 0.291274 -1.42049)
(3.51158 -0.317296 -1.5575)
(7.76916 -0.632701 -1.63659)
(13.1899 -0.746814 -1.51431)
(17.7851 -0.838289 -1.04299)
(19.4005 -0.996079 -0.701762)
(19.2203 -0.875192 -0.603697)
(16.8545 -0.411504 -0.438701)
(13.808 0.783401 -0.380323)
(14.2736 2.38537 -0.99959)
(17.0865 2.96004 -1.71094)
(22.4157 2.81488 -2.05427)
(27.3119 1.70586 -1.98436)
(28.69 -0.13739 -1.65298)
(28.0606 -0.873122 -1.43083)
(27.5428 -0.890986 -1.20323)
(27.8048 -0.633275 -0.726204)
(28.2947 -0.709599 0.371867)
(27.7443 -1.23028 1.24865)
(25.5469 -1.14082 2.19471)
(20.3578 -0.259815 3.07895)
(18.1366 0.218323 2.12083)
(17.4813 0.225121 1.23898)
(17.0838 0.184838 0.855056)
(16.3273 0.21377 0.759976)
(14.9662 0.320139 0.906091)
(13.3828 0.480666 1.15415)
(12.2161 0.578573 1.23426)
(11.7759 0.493054 1.08605)
(11.918 0.30929 0.81209)
(12.2571 0.197084 0.472877)
(12.2876 0.293096 0.344902)
(12.1257 0.384425 0.334756)
(11.9243 0.366305 0.390578)
(11.9381 0.330491 0.491265)
(11.9154 0.34009 0.678205)
(11.9621 0.432251 0.899438)
(12.0551 0.515561 1.03667)
(12.355 0.577779 1.12888)
(12.5938 0.699936 1.25465)
(12.8218 0.913152 1.46149)
(13.1457 1.2373 1.96117)
(14.5129 1.74929 3.06008)
(15.4803 2.41875 4.22817)
(16.5307 2.90512 5.32155)
(17.6471 3.22216 6.00176)
(19.4494 3.1905 5.83452)
(22.0258 2.84087 4.48013)
(25.0307 1.94324 2.22293)
(25.3569 -0.50701 -0.0504064)
(23.9941 -1.63522 -0.789914)
(23.9843 -0.7636 -0.140276)
(23.1702 -0.674788 0.224688)
(22.2912 -0.986871 0.512773)
(21.2838 -1.719 0.862642)
(19.5497 -5.30879 1.98101)
(16.5833 -45.7162 16.3179)
(-4.32014 0.567722 -1.49489)
(-4.73186 0.404732 -0.91857)
(-4.36288 0.830697 -1.31479)
(-3.94484 0.888325 -1.26355)
(-3.18203 1.10422 -1.81249)
(-2.57049 1.24318 -2.09638)
(-1.63957 0.965683 -2.20437)
(-0.443862 0.0721973 -1.4296)
(0.634386 -0.836039 -0.307116)
(1.15661 -0.999882 0.745765)
(1.45699 -0.30629 1.22038)
(2.09652 0.726774 0.168451)
(2.98065 1.26886 -1.91001)
(4.38993 1.07904 -3.61106)
(7.06429 0.449848 -4.39419)
(11.224 -0.425608 -3.9479)
(15.3046 -1.34721 -2.6013)
(17.6519 -1.81722 -1.85263)
(18.441 -1.64996 -1.53139)
(18.5857 -0.912704 -0.951909)
(17.7683 0.141077 0.557322)
(15.2254 1.23111 3.01927)
(11.9347 1.99345 4.57093)
(10.7549 1.7807 4.12654)
(10.6086 1.09466 2.46295)
(10.1984 0.535566 1.56079)
(9.5899 0.154791 1.40112)
(8.96552 -0.102781 1.50406)
(8.45621 -0.276727 1.58209)
(8.19379 -0.36511 1.54359)
(8.15836 -0.362466 1.37545)
(8.28565 -0.189753 1.0384)
(8.47423 0.14033 0.705391)
(8.63146 0.480056 0.554074)
(8.78618 0.693227 0.529403)
(9.18091 0.681961 0.570602)
(9.69329 0.535723 0.616296)
(10.1344 0.379533 0.676961)
(10.4358 0.225764 0.803902)
(10.6655 0.16725 1.01685)
(10.8117 0.183885 1.2561)
(10.9875 0.367873 1.55381)
(10.9352 0.767805 2.01181)
(10.8944 1.35298 2.72969)
(10.921 2.09898 3.50587)
(11.745 2.91456 4.44072)
(12.9122 3.66305 5.43623)
(13.9557 4.22245 5.97186)
(15.6213 4.50232 5.87433)
(17.9602 4.88262 4.79193)
(20.899 4.7621 2.83084)
(23.2726 2.31789 1.01001)
(23.2794 -1.23589 -0.135108)
(22.5971 -2.18207 -0.401662)
(22.7534 -0.939498 -0.171849)
(22.0019 -0.781409 0.340854)
(21.3127 -1.04881 0.820619)
(20.5242 -1.68743 1.2453)
(19.1374 -4.67038 1.80042)
(15.4901 -44.4528 16.5103)
(-3.725 1.73982 -1.73104)
(-4.7081 1.25082 -1.01902)
(-5.12179 0.935176 -1.17463)