/*--------------------------------*- C++ -*----------------------------------*\
| =========                 |                                                 |
| \\      /  F ield         | OpenFOAM: The Open Source CFD Toolbox           |
|  \\    /   O peration     | Version:  2.1.1                                 |
|   \\  /    A nd           | Web:      www.OpenFOAM.org                      |
|    \\/     M anipulation  |                                                 |
\*---------------------------------------------------------------------------*/
FoamFile
{
    version     2.0;
    format      ascii;
    class       volVectorField;
    location    "0.00135";
    object      UFLUK;
}
// * * * * * * * * * * * * * * * * * * * * * * * * * * * * * * * * * * * * * //

dimensions      [0 1 -1 0 0 0 0];

internalField   nonuniform List<vector> 
36520
(
(-9.5799e-05 -0.853668 0.992899)
(-0.00012706 -0.073217 0.259297)
(1.03486e-05 0.167018 -0.0269126)
(1.44169e-05 0.132504 -0.39396)
(2.1003e-05 0.123669 -0.585816)
(2.43336e-05 0.116462 -0.737054)
(2.70263e-05 0.115901 -0.830247)
(2.97015e-05 0.0988609 -0.844852)
(3.34514e-05 0.0757241 -0.807014)
(4.06122e-05 0.0523201 -0.788086)
(5.31074e-05 0.0476344 -0.84622)
(7.45415e-05 0.0713786 -1.0445)
(0.000108874 0.122305 -1.32935)
(0.000158395 0.184029 -1.62866)
(0.00022143 0.229505 -1.78097)
(0.000290824 0.233639 -1.68305)
(0.000352482 0.180279 -1.27843)
(0.000393672 0.0759028 -0.640148)
(0.000341856 -0.0447996 0.0654812)
(0.000182862 -0.146891 0.660287)
(2.55318e-05 -0.211765 1.01911)
(-4.22928e-05 -0.210434 1.06737)
(-1.95882e-05 -0.160406 0.851724)
(3.4648e-05 -0.104114 0.531708)
(7.8231e-05 -0.0668976 0.241188)
(9.95264e-05 -0.0471322 0.0229355)
(0.000123299 -0.0388029 -0.134069)
(0.000181443 -0.0303855 -0.248304)
(0.000281568 -0.0187018 -0.339275)
(0.000415535 -0.00420636 -0.41451)
(0.000558607 0.0103635 -0.478552)
(0.000672168 0.0216973 -0.532508)
(0.000714399 0.0284363 -0.578595)
(0.00065883 0.030419 -0.62056)
(0.000504556 0.0294127 -0.664283)
(0.000273084 0.0252631 -0.709999)
(-2.82866e-06 0.0197026 -0.760389)
(-0.000286391 0.0130975 -0.82375)
(-0.000548162 0.0066921 -0.903477)
(-0.000760452 0.0031592 -1.01151)
(-0.00088123 0.00771097 -1.14585)
(-0.000854671 0.0247653 -1.28652)
(-0.000622914 0.0601659 -1.40913)
(-0.000903757 0.119066 -1.4777)
(-0.00219826 0.206165 -1.41603)
(-0.00254896 0.315867 -1.19502)
(-0.00304533 0.323628 -0.806948)
(-0.0036879 0.220298 -0.129994)
(-0.000763413 0.363367 0.652855)
(0.00282734 0.581194 1.58516)
(0.00370985 0.657848 2.72787)
(0.00986349 0.722539 3.93283)
(0.0173607 0.701234 5.11545)
(0.0106318 0.513978 6.27131)
(0.0041717 0.374736 7.42741)
(0.00177306 0.229119 8.69194)
(0.00186626 0.0900684 10.3921)
(0.00721645 -0.0729761 13.073)
(0.0225667 -1.01167 18.395)
(0.0150756 -3.33411 23.7884)
(-6.38051e-05 -0.699291 0.903977)
(-6.50122e-05 0.0889386 -0.189545)
(2.97052e-05 0.331217 -0.282628)
(4.37383e-05 0.251835 -0.640597)
(4.85609e-05 0.26971 -0.714375)
(4.90478e-05 0.255111 -0.878963)
(5.4977e-05 0.270751 -0.931343)
(6.23987e-05 0.228403 -0.929832)
(7.24003e-05 0.17814 -0.851755)
(8.91889e-05 0.114432 -0.805157)
(0.000116962 0.108355 -0.824634)
(0.000164174 0.174262 -1.01483)
(0.000236465 0.321321 -1.2959)
(0.000326799 0.49556 -1.61112)
(0.000411714 0.639016 -1.77074)
(0.000455232 0.661868 -1.6757)
(0.000428489 0.520021 -1.22488)
(0.000339518 0.233928 -0.524209)
(0.000232015 -0.0889188 0.246726)
(0.000139313 -0.37766 0.887647)
(6.74558e-05 -0.564963 1.26472)
(-1.21199e-05 -0.576928 1.3006)
(-8.77207e-05 -0.45043 1.0382)
(-0.000144178 -0.30263 0.682116)
(-0.00017915 -0.204998 0.375254)
(-0.000195007 -0.154214 0.156949)
(-0.000199486 -0.129128 0.0044377)
(-0.000181529 -0.106597 -0.10726)
(-0.000131469 -0.0720252 -0.196706)
(-6.42032e-05 -0.0285825 -0.268602)
(-5.36955e-07 0.0164277 -0.32789)
(4.02082e-05 0.0558957 -0.378022)
(5.28924e-05 0.0852764 -0.420043)
(4.44509e-05 0.104918 -0.458314)
(2.25848e-05 0.117272 -0.496465)
(-8.71328e-06 0.121944 -0.533172)
(-4.83682e-05 0.119776 -0.573843)
(-9.69063e-05 0.11304 -0.621201)
(-0.000157143 0.104893 -0.682602)
(-0.000239907 0.10324 -0.774384)
(-0.000446018 0.123823 -0.88998)
(-0.00434989 0.188069 -1.0087)
(-0.0178124 0.326161 -1.09781)
(-0.0321646 0.537365 -1.14454)
(-0.0216698 0.781496 -1.17636)
(-0.00501098 1.08064 -1.09826)
(0.000623432 1.43145 -0.848086)
(0.00180842 1.84329 -0.425782)
(0.00114755 2.24107 0.119451)
(0.000253199 2.59493 0.927931)
(-9.32179e-06 2.77251 2.15299)
(3.67922e-05 2.51657 3.56924)
(0.00120591 1.94163 5.02679)
(0.0124423 1.42503 6.54876)
(0.0603973 0.976791 8.1549)
(0.0489639 0.466978 9.50324)
(0.0208217 0.0855006 11.3139)
(0.0418381 -0.434596 13.9454)
(0.0968821 -2.85713 19.5782)
(0.0627059 -10.1367 26.2537)
(-3.88232e-05 -0.273611 0.87211)
(-3.40599e-05 0.346581 -0.266686)
(7.00219e-06 0.530759 -0.395818)
(9.61558e-06 0.413817 -0.700831)
(5.24457e-06 0.448879 -0.767937)
(1.23113e-06 0.412424 -0.953563)
(1.26201e-06 0.439641 -0.999694)
(2.69253e-06 0.361596 -0.992332)
(5.98061e-06 0.282645 -0.88782)
(1.42892e-05 0.191109 -0.812762)
(2.78309e-05 0.181818 -0.808357)
(4.61115e-05 0.281381 -1.0337)
(6.67004e-05 0.48929 -1.3701)
(8.33e-05 0.744612 -1.7734)
(8.55122e-05 0.94715 -2.00691)
(5.84141e-05 0.984757 -1.93466)
(-1.58329e-05 0.772132 -1.42336)
(-0.000182587 0.346743 -0.586322)
(-0.000416076 -0.127152 0.342808)
(-0.000234228 -0.556168 1.10358)
(-3.58305e-07 -0.844753 1.55189)
(-2.76452e-07 -0.860191 1.57611)
(-2.2537e-07 -0.659702 1.22376)
(-2.16634e-07 -0.438206 0.784697)
(-2.56088e-07 -0.301258 0.428085)
(-3.39567e-07 -0.237823 0.187733)
(-4.17712e-07 -0.208142 0.0228403)
(-4.96406e-07 -0.180532 -0.0940795)
(-5.8803e-07 -0.135884 -0.196226)
(-6.82626e-07 -0.0772146 -0.282164)
(-7.73565e-07 -0.0162705 -0.353767)
(-8.66927e-07 0.0381993 -0.411991)
(-9.54962e-07 0.0747814 -0.458592)
(-1.02778e-06 0.0950357 -0.498215)
(-1.09127e-06 0.103075 -0.537812)
(-1.15411e-06 0.0951825 -0.579602)
(-1.20708e-06 0.0693146 -0.623981)
(-7.2434e-06 0.0416762 -0.671417)
(-0.000112791 0.0135185 -0.732981)
(-0.000654571 0.00133699 -0.826568)
(-0.0021242 0.0258801 -0.953805)
(-0.00552689 0.114273 -1.10762)
(-0.0283613 0.297654 -1.25877)
(-0.138859 0.548349 -1.38644)
(-0.27483 0.838717 -1.46277)
(-0.338685 1.26432 -1.51891)
(-0.303439 1.83763 -1.52466)
(-0.184942 2.51059 -1.34892)
(-0.0947559 3.08053 -0.876811)
(-0.0413137 3.38707 0.0989802)
(-0.00664956 3.57386 1.21928)
(0.00844939 3.49628 2.55429)
(0.00303945 2.79317 4.32385)
(0.000650612 2.04991 6.13408)
(0.000337015 1.35181 7.7258)
(0.00102358 0.697784 9.19011)
(0.216582 0.457558 11.2072)
(0.133164 -0.507917 13.8524)
(0.0749012 -3.43489 19.8173)
(0.000723787 -18.799 28.9663)
(-5.00528e-05 0.269466 0.870756)
(-4.27367e-05 0.55991 -0.370768)
(-1.18951e-05 0.634917 -0.494039)
(-9.71759e-06 0.490616 -0.771705)
(-1.02792e-05 0.537358 -0.909737)
(-1.37854e-05 0.515893 -1.10692)
(-2.47264e-05 0.541758 -1.17995)
(-3.9726e-05 0.452846 -1.14508)
(-3.96523e-05 0.354364 -0.981732)
(-1.67525e-05 0.255546 -0.829583)
(-9.81204e-08 0.276952 -0.775124)
(-1.26616e-07 0.40361 -1.00311)
(-1.66512e-07 0.647154 -1.43982)
(-2.09551e-07 0.933471 -1.98195)
(-3.10177e-07 1.16572 -2.36558)
(-8.95646e-07 1.194 -2.4034)
(-0.00112021 0.851249 -2.08765)
(-0.00237256 0.229289 -1.34729)
(-0.00427542 -0.392362 -0.398999)
(-0.00695939 -0.887392 0.574145)
(-0.00482179 -1.18428 1.32935)
(-0.00115104 -1.13527 1.58016)
(-0.000207353 -0.847148 1.24556)
(-0.000390804 -0.580571 0.72998)
(-0.000707777 -0.43724 0.318054)
(-0.000800983 -0.383507 0.0548092)
(-0.000752307 -0.360304 -0.116216)
(-0.000807006 -0.331387 -0.239251)
(-0.000835288 -0.274639 -0.350935)
(-0.000772034 -0.18468 -0.452733)
(-0.000781266 -0.0822538 -0.552155)
(-0.000822305 0.00469298 -0.639518)
(-0.000724941 0.0590894 -0.70912)
(-0.000510544 0.0807226 -0.767825)
(-0.000291983 0.078566 -0.826848)
(-4.03927e-05 0.0538503 -0.886952)
(0.000485443 0.00703339 -0.941465)
(0.00126765 -0.0507621 -0.99384)
(0.00213683 -0.115108 -1.05405)
(0.00287797 -0.167302 -1.14043)
(0.00306904 -0.167518 -1.26192)
(0.00228507 -0.0966672 -1.41389)
(-0.00574061 0.0971826 -1.58646)
(-0.0602641 0.429335 -1.76635)
(-0.182959 0.746598 -1.86193)
(-0.191721 1.09796 -1.78033)
(-0.152111 1.6171 -1.70337)
(-0.114566 2.29956 -1.51367)
(-0.0863243 3.01345 -1.13646)
(-0.185283 3.58388 -0.674749)
(-0.508199 3.86558 -0.00785802)
(-0.468446 3.48898 1.18804)
(-0.120989 2.72591 2.39784)
(0.0793948 2.61887 3.70031)
(0.0996297 2.42253 5.97189)
(0.0390366 1.18918 8.04564)
(0.00745808 -0.197696 9.82244)
(5.10002e-05 -1.58206 12.5216)
(-0.0133525 -4.53108 18.6073)
(-0.00404119 -28.5292 32.6373)
(-5.9751e-05 0.929442 0.498258)
(-5.64598e-05 0.857695 -0.504552)
(-3.65993e-05 0.861105 -0.555561)
(-1.53275e-05 0.620788 -0.829011)
(-9.70179e-08 0.664098 -1.01328)
(-6.62801e-05 0.657144 -1.2364)
(-0.000239514 0.658067 -1.35801)
(-0.000391391 0.544672 -1.33377)
(-0.000550222 0.435839 -1.12391)
(-0.000924848 0.370017 -0.924969)
(-0.00138912 0.464433 -0.889301)
(-0.000930891 0.614725 -1.31818)
(0.00157 0.767368 -2.23298)
(0.00126158 0.847628 -3.40253)
(-0.00407545 0.85478 -4.39439)
(-0.0148218 0.683682 -4.8875)
(-0.0198895 0.235009 -4.65639)
(-0.0176911 -0.443406 -3.71614)
(-0.01297 -1.13687 -2.41364)
(-0.0215903 -1.52418 -0.967401)
(-0.0611373 -1.58958 0.343366)
(-0.0687169 -1.42652 1.01282)
(-0.0373138 -1.07766 0.787593)
(-0.0219058 -0.783889 0.238768)
(-0.0127942 -0.650623 -0.219108)
(-0.00581569 -0.622846 -0.504706)
(-0.00145416 -0.615388 -0.673686)
(-0.00191414 -0.594274 -0.784907)
(-0.00626979 -0.533851 -0.882669)
(-0.0111726 -0.430081 -0.984974)
(-0.0134232 -0.317356 -1.10646)
(-0.0123475 -0.231102 -1.23813)
(-0.00891223 -0.182716 -1.35685)
(-0.00413206 -0.166636 -1.45162)
(0.00328309 -0.179435 -1.52862)
(0.00901225 -0.224834 -1.59518)
(0.0120018 -0.306963 -1.66534)
(0.0154658 -0.40457 -1.75207)
(0.0172589 -0.516126 -1.84106)
(0.0165136 -0.610323 -1.93914)
(0.0127948 -0.651362 -2.05439)
(0.00715313 -0.649452 -2.21501)
(0.00236659 -0.547589 -2.45904)
(-0.0043822 -0.310894 -2.90386)
(-0.0204806 -0.0300659 -3.40639)
(-0.042398 0.330723 -3.85662)
(-0.0828528 0.792024 -4.22406)
(-0.148163 1.43568 -4.43507)
(-0.271206 2.30316 -4.58484)
(-0.609401 3.31922 -4.48314)
(-1.16879 3.9761 -3.38493)
(-1.45409 3.40933 -1.70757)
(-0.703734 1.69139 0.132365)
(-0.113823 1.28027 1.20304)
(0.0495292 1.43084 1.49993)
(0.106541 1.61248 2.36503)
(0.0628946 1.46872 4.78622)
(0.0172938 0.0865927 7.7345)
(-0.00370989 -5.00199 13.9743)
(-0.0392059 -34.8824 32.3329)
(-5.56068e-05 1.22235 0.219275)
(-0.000296896 0.932709 -0.683854)
(-0.00121493 0.905186 -0.76368)
(-0.00242233 0.610186 -1.04782)
(-0.00359431 0.651201 -1.37351)
(-0.00530611 0.617246 -1.76781)
(-0.00561591 0.578245 -2.06561)
(-0.00315408 0.376327 -2.19776)
(-0.00396856 0.236269 -2.06378)
(-0.00925176 0.182517 -1.95279)
(-0.02189 0.325989 -2.092)
(-0.0621931 0.468128 -2.74959)
(-0.152288 0.486857 -3.9081)
(-0.260987 0.299625 -5.36722)
(-0.41253 -0.166495 -6.64334)
(-0.549703 -1.08731 -7.33405)
(-0.484126 -2.77927 -6.62613)
(-0.227607 -4.59407 -4.48037)
(0.0233106 -5.54583 -2.26738)
(0.180718 -5.49583 -0.480449)
(0.233818 -4.57769 0.418059)
(-0.062353 -2.24937 -0.195783)
(-0.315264 -1.61853 -0.465607)
(-0.223073 -1.47178 -0.953139)
(-0.144993 -1.46716 -1.36203)
(-0.101685 -1.54968 -1.60429)
(-0.0972218 -1.62188 -1.73902)
(-0.0848039 -1.59563 -1.86696)
(-0.0635119 -1.44293 -2.02935)
(-0.0697211 -1.27302 -2.18935)
(-0.0992844 -1.09403 -2.33889)
(-0.117205 -0.925032 -2.4805)
(-0.105177 -0.811338 -2.62892)
(-0.0756265 -0.779522 -2.77408)
(-0.0337658 -0.818462 -2.87053)
(0.032086 -0.970325 -2.92796)
(0.0849332 -1.14131 -3.0026)
(0.0904583 -1.38561 -3.0557)
(0.0784077 -1.67403 -3.11183)
(0.0735482 -1.95587 -3.14697)
(0.0582562 -2.12531 -3.13267)
(0.0252946 -2.07543 -3.15416)
(0.017118 -1.71298 -3.23607)
(0.0117426 -1.17776 -3.45079)
(-0.00441467 -0.869939 -3.97333)
(-0.0445241 -0.716399 -4.6066)
(-0.112514 -0.53636 -5.25052)
(-0.174593 -0.127034 -5.91595)
(-0.186437 0.575668 -6.51079)
(-0.218988 1.53347 -6.60953)
(-0.480713 2.23909 -5.53158)
(-1.38568 2.02017 -2.64695)
(-1.79358 1.78326 0.11949)
(-1.7028 1.40542 1.22324)
(-0.253254 0.456737 1.02945)
(-0.0286531 -0.188683 0.412272)
(0.0479344 -0.71585 0.824388)
(0.101404 -1.04574 1.74947)
(0.169486 -2.62935 3.73061)
(0.180522 -33.6911 28.0035)
(-0.0187096 2.06755 -1.81948)
(-0.0407105 1.16038 -1.03798)
(-0.0725482 1.18023 -1.01638)
(-0.0949361 0.975296 -1.23848)
(-0.145884 1.28251 -1.43912)
(-0.275687 1.43874 -1.80998)
(-0.573053 1.52687 -2.0821)
(-0.858959 1.52732 -2.02895)
(-0.273251 0.0814195 -3.40245)
(-0.0363155 -0.189256 -3.2652)
(-0.0525349 -0.516287 -3.16978)
(-0.119263 -0.462268 -3.74921)
(-0.294018 -0.273194 -5.22218)
(-0.466741 -0.670609 -7.02287)
(-0.529 -1.96869 -8.48263)
(-0.522375 -4.81735 -7.93598)
(-0.327619 -7.44911 -4.41021)
(-0.146316 -8.47937 -1.35124)
(-0.0292157 -8.82205 1.01963)
(0.0742049 -8.43057 2.84836)
(0.149987 -7.47084 4.1328)
(0.271605 -6.51306 3.69957)
(-0.188311 -2.77562 -2.58376)
(-0.362778 -1.11764 -3.74722)
(-0.144085 -1.48547 -4.01372)
(-0.0580025 -1.8749 -4.06352)
(-0.152615 -2.69207 -3.8736)
(-0.309748 -3.57611 -3.47102)
(-0.401126 -3.48436 -3.64937)
(-0.453702 -3.09024 -3.97625)
(-0.483539 -2.49181 -4.32882)
(-0.450629 -1.85645 -4.57994)
(-0.321794 -1.31709 -4.72646)
(-0.175735 -1.19628 -4.77751)
(-0.17417 -2.83475 -3.91167)
(-0.168747 -3.61514 -3.11113)
(-0.12865 -2.72675 -4.2438)
(-0.0526814 -1.83561 -4.8005)
(0.0963997 -1.28162 -4.96193)
(0.243505 -1.46962 -4.94852)
(0.102933 -2.05902 -4.90191)
(-0.12408 -2.36799 -4.95395)
(-0.210537 -2.37946 -4.89119)
(-0.00415232 -2.1402 -4.79798)
(0.183368 -2.12886 -4.76214)
(0.125033 -2.59057 -5.02972)
(-0.0524756 -2.82536 -5.46616)
(-0.442493 -2.53271 -5.70721)
(-1.04349 -1.97579 -5.60327)
(-1.22584 -0.835634 -5.38019)
(-1.18202 0.500816 -4.82771)
(-0.679251 1.89711 -2.84416)
(-0.396739 2.21388 -0.544971)
(-1.06228 2.07706 -0.404621)
(-1.58997 0.423288 -0.140336)
(-1.09536 -1.31006 0.07785)
(0.0013363 -1.53535 0.120485)
(0.251784 -1.75479 0.594768)
(0.663788 -2.90648 1.75898)
(0.995289 -28.3957 24.7802)
(-0.050722 1.65946 -0.971925)
(-0.131062 0.922547 -0.732305)
(-0.16553 1.48025 -1.08429)
(0.0823543 1.46116 -1.2132)
(0.00477773 -1.05272 -1.45144)
(0.00107343 -1.80417 -1.78412)
(0.00129134 -2.61573 -1.70024)
(1.71592e-05 -3.44144 -0.958877)
(-0.0107091 -3.8143 0.0602314)
(-0.0134 -3.76696 0.815662)
(-0.00409566 -3.33159 1.18738)
(-0.0193905 -3.05604 0.787084)
(-0.268402 -2.25862 -4.06316)
(-0.299938 0.632615 -7.84518)
(-0.165423 -0.378518 -9.35135)
(-0.0823321 -1.72865 -10.237)
(-0.0508972 -3.76328 -10.2796)
(-0.0279012 -8.08256 -6.57724)
(-0.0109258 -9.36035 -1.01079)
(0.0211745 -8.83017 1.97034)
(0.0878424 -7.96978 3.62873)
(0.208851 -7.4409 3.15147)
(0.249437 -4.16192 -4.30428)
(-0.129746 -0.35637 -6.29246)
(-0.214511 -0.368686 -6.35453)
(-0.124178 -0.520518 -6.14369)
(-0.0471408 -0.77391 -5.88567)
(-0.0792703 -1.22875 -5.72549)
(-0.17897 -1.84654 -5.74598)
(-0.325062 -2.53046 -5.84315)
(-0.43201 -2.79114 -5.99048)
(-0.472433 -2.59882 -6.14905)
(-0.441086 -1.99703 -6.29568)
(-0.455651 -1.0733 -6.39659)
(-1.02617 -0.744388 -6.36505)
(-2.60678 -0.737201 -6.08595)
(-2.81937 -0.685103 -5.99768)
(-0.542585 -0.468415 -6.27127)
(1.16331 -0.283882 -6.08448)
(0.624893 -0.435673 -5.93825)
(-0.0374099 -0.636259 -5.77134)
(-0.138556 -0.940839 -5.6324)
(-0.0606036 -1.32696 -5.55693)
(0.0440562 -1.57703 -5.63583)
(0.0830609 -1.91626 -5.62665)
(0.0401098 -2.5263 -5.76018)
(-0.00912093 -2.89994 -6.11758)
(-0.0356094 -2.62021 -6.40375)
(-0.394643 -1.31729 -6.16535)
(-0.783676 -0.121085 -4.54414)
(-0.19397 0.365763 -3.63496)
(0.217244 0.417031 -3.40087)
(0.155124 0.0232389 -2.8421)
(-0.359665 -1.83907 -0.0414724)
(-1.85261 -1.92276 1.32484)
(-1.70183 -0.652318 1.01897)
(-0.787034 -1.61084 0.212112)
(0.533632 -1.79225 0.687932)
(1.02327 -2.75889 2.29242)
(1.16085 -23.1725 28.8651)
(0.000691146 3.41398 -17.7072)
(0.00110878 0.0484318 -3.78339)
(0.00174877 -0.430322 -1.53424)
(0.00232104 -1.68747 -1.42342)
(0.00276099 -1.96944 -1.18537)
(0.00328699 -2.65974 -1.22987)
(0.00358449 -3.14844 -1.39166)
(0.00379339 -3.71088 -1.76244)
(0.00351317 -4.11958 -1.99601)
(-0.00135489 -4.06442 -2.13518)
(-0.0465396 -3.55381 -2.29132)
(-0.151749 -3.14688 -2.47817)
(-0.307497 -3.25516 -2.5011)
(-0.310455 -3.96028 -2.54835)
(-0.194016 -5.07021 -2.68838)
(-0.0809617 -5.9542 -2.80344)
(-0.015093 -6.3881 -2.86452)
(0.0654448 -6.59095 -2.79951)
(0.155001 -6.57765 -2.57317)
(0.159444 -6.31922 -2.30142)
(0.063646 -6.07643 -2.22519)
(0.0312609 -6.00816 -2.23059)
(0.0295702 -6.07641 -2.30486)
(0.0306627 -6.14936 -2.40577)
(0.0260238 -6.15268 -2.47859)
(0.0180056 -6.1209 -2.50214)
(0.0129953 -6.13383 -2.49185)
(0.010598 -6.27636 -2.54092)
(0.00711387 -6.56111 -2.70142)
(-0.00413381 -6.88294 -2.90073)
(-0.0432455 -6.92706 -2.98432)
(-0.0582695 -6.68841 -2.94484)
(-0.0492466 -6.23718 -2.89014)
(-0.057457 -5.69244 -2.83277)
(-0.0695881 -5.28193 -2.71779)
(-0.0644471 -5.0326 -2.50577)
(-0.0454303 -4.92471 -2.28346)
(-0.0268676 -4.87568 -2.14105)
(-0.0169389 -4.88492 -2.09275)
(-0.0122499 -4.92823 -2.0715)
(-0.0100958 -4.94494 -2.03543)
(-0.00906449 -4.87966 -1.97335)
(-0.00671144 -4.75258 -1.90065)
(-0.00265862 -4.62215 -1.8299)
(0.00287454 -4.5722 -1.80226)
(0.011053 -4.7027 -1.88941)
(0.0213608 -4.94709 -2.09421)
(0.0293315 -5.20268 -2.3469)
(0.0262676 -5.32613 -2.61233)
(0.012122 -4.88635 -2.9781)
(0.00307213 -3.79768 -3.22178)
(0.00219864 -2.98966 -2.57124)
(0.00214409 -2.79786 -1.40443)
(-0.0249342 -2.76645 -0.669781)
(-2.08665 -2.64126 0.0314694)
(-2.06381 -0.55541 0.46938)
(-1.41608 -1.23541 1.06214)
(0.493156 -1.69415 1.21509)
(0.844304 -2.36175 3.71891)
(1.09673 -15.7313 33.855)
(0.000547339 6.13523 -18.6227)
(0.00085142 1.31838 -4.22886)
(0.00142751 -0.235317 -1.82063)
(0.00178658 -1.47824 -1.3238)
(0.00128248 -1.77496 -0.711343)
(-0.00169067 -2.07225 -0.546519)
(-0.00504358 -2.32841 -0.576098)
(-0.000824081 -2.79957 -0.711007)
(0.00367208 -3.44472 -0.796995)
(0.00453132 -3.86553 -0.928019)
(0.000238005 -3.9157 -0.961185)
(-0.0348249 -3.69248 -1.01154)
(-0.148127 -3.35833 -1.27618)
(-0.269695 -3.14638 -1.37655)
(-0.259292 -3.34294 -1.23176)
(-0.146925 -3.90643 -1.13602)
(-0.0515868 -4.40193 -1.09951)
(0.0188726 -4.66594 -1.08288)
(0.0875942 -4.90546 -1.06798)
(0.126407 -5.18332 -1.01356)
(0.0657359 -5.42666 -1.01184)
(0.0163147 -5.68556 -1.14763)
(0.00696759 -5.68909 -1.21647)
(0.005822 -5.52828 -1.23568)
(0.00759237 -5.43041 -1.24629)
(0.0124302 -5.43434 -1.2582)
(0.0221541 -5.47289 -1.26502)
(0.0330252 -5.57716 -1.29545)
(0.0319791 -5.79407 -1.38014)
(0.0170826 -6.22397 -1.54768)
(0.00183101 -6.79174 -1.76796)
(-0.0192797 -6.86517 -1.87602)
(-0.0566035 -6.42713 -1.81261)
(-0.0599174 -5.88973 -1.64348)
(-0.0641056 -5.32525 -1.45106)
(-0.0637337 -4.98505 -1.27751)
(-0.0438498 -4.84565 -1.16275)
(-0.0191402 -4.8021 -1.13615)
(-0.00458673 -4.77873 -1.16801)
(0.000889159 -4.76414 -1.2012)
(0.00221648 -4.68111 -1.18274)
(0.0026627 -4.56635 -1.14885)
(0.00298647 -4.41553 -1.10595)
(0.00312541 -4.25087 -1.05973)
(0.00513231 -4.13884 -1.02059)
(0.00904383 -4.11899 -1.00408)
(0.013183 -4.25418 -1.05726)
(0.0135133 -4.32184 -1.23434)
(0.00751908 -4.10342 -1.43801)
(0.000705914 -3.49774 -1.48423)
(-0.00112409 -2.52588 -1.19563)
(0.000191028 -1.88852 -0.535755)
(0.00616516 -1.85199 -0.00258128)
(-0.00334964 -2.30012 0.131757)
(-1.16543 -2.15025 -0.0806334)
(-1.53236 -0.298822 0.176186)
(-0.837505 -1.05642 0.726776)
(0.309612 -1.38066 1.56015)
(0.656889 -2.29173 4.43513)
(1.04838 -10.7977 36.0456)
(0.0001667 4.25306 -11.6454)
(0.000276665 0.722132 -1.11066)
(0.00055817 -1.57065 -0.186915)
(0.000759217 -2.64164 -0.406965)
(0.000825216 -2.86816 -0.557614)
(0.000898904 -2.90376 -0.851192)
(0.000987083 -2.89614 -0.987593)
(0.00108809 -2.94727 -0.926688)
(0.00106322 -3.03425 -0.895417)
(0.000223801 -3.45022 -0.968402)
(-0.00471708 -4.15515 -0.960069)
(-0.659709 -4.6008 0.239726)
(-3.03877 -2.13203 2.07508)
(-1.25991 -3.82278 -0.49782)
(-0.665816 -3.89585 -0.74273)
(-0.273153 -4.44481 -0.795713)
(-0.0812912 -4.94533 -1.00674)
(0.032651 -5.23835 -1.34632)
(0.15976 -5.49357 -1.39364)
(0.294895 -5.8269 -1.3183)
(0.157411 -6.5492 -1.10066)
(0.017995 -7.0926 -1.1313)
(0.00166553 -7.06952 -1.17042)
(0.000239097 -6.4985 -1.18657)
(0.000338652 -6.10078 -1.19377)
(0.00263374 -5.97346 -1.21288)
(0.00754424 -6.01568 -1.24764)
(0.0130959 -6.17994 -1.31208)
(0.01424 -6.42959 -1.40266)
(0.00873209 -6.65978 -1.41635)
(-0.00237472 -6.92458 -1.33998)
(-0.039543 -7.15414 -1.31799)
(-0.152715 -7.10281 -1.44699)
(0.0345786 -6.60738 -2.15718)
(0.108368 -6.52724 -1.21268)
(0.021528 -6.28299 -0.869404)
(-0.000237703 -6.10787 -1.07065)
(-0.00173228 -6.01177 -1.21316)
(-0.00282967 -5.94137 -1.31277)
(-0.00283819 -5.89144 -1.3904)
(-0.00249013 -5.82402 -1.3652)
(-0.00189477 -5.68113 -1.30518)
(-0.000759168 -5.46914 -1.20968)
(1.05068e-05 -5.23096 -1.13148)
(0.00016724 -4.96331 -1.03025)
(0.0019922 -4.724 -0.89337)
(0.00744296 -4.46786 -0.812268)
(0.0134909 -4.19867 -0.898121)
(0.0101534 -3.88188 -1.35572)
(-0.00628865 -3.59132 -2.44704)
(-0.0185561 -2.79653 -3.36988)
(0.00868809 -1.96664 -2.37919)
(0.0712832 -2.0249 -0.694229)
(-0.084529 -2.01305 -0.0710884)
(-1.76023 0.622291 0.0874456)
(-1.65367 0.326865 0.135536)
(-0.867437 -0.723764 0.375444)
(0.450394 -1.18825 1.21394)
(0.681202 -2.03323 4.3976)
(0.912208 -7.16237 39.3053)
(0.0641828 3.20766 -1.94176)
(-0.142711 0.304668 -0.684602)
(-0.442525 0.0330228 -1.44393)
(-0.0877375 -1.23541 -1.90627)
(0.0155055 -1.60116 -2.47835)
(0.00535287 -1.92107 -2.89216)
(5.61291e-05 -2.00521 -2.69084)
(-0.00072523 -2.10165 -2.16741)
(-0.00460874 -2.48926 -1.72454)
(-0.0128789 -3.48363 -1.61432)
(-0.248941 -4.30924 -2.49701)
(-2.52188 -5.09248 -0.0089106)
(-1.20745 -5.43574 0.0847494)
(-1.87247 -4.83088 -0.0585401)
(-4.10545 -3.01478 0.19147)
(-5.521 -2.0482 0.617037)
(-3.54011 -4.17994 -0.859397)
(-0.145284 -4.67373 -2.17607)
(0.227808 -4.86891 -2.39027)
(0.358887 -5.20046 -2.62576)
(0.466212 -5.68148 -2.93413)
(0.516176 -7.2068 -3.0478)
(0.025298 -8.59047 -1.67325)
(-0.0499447 -8.01602 -1.75462)
(-0.109195 -6.99923 -2.13314)
(-0.136209 -6.53466 -2.32134)
(-0.103035 -6.40366 -2.44968)
(0.00451493 -6.39023 -2.70426)
(0.212982 -6.38738 -2.95882)
(0.602843 -6.32556 -2.9674)
(0.597326 -6.95404 -0.788076)
(-6.54291 -3.78274 5.06075)
(-7.29867 -1.22689 4.9273)
(-2.65567 -0.736921 -6.22765)
(2.27254 -4.95164 -4.47596)
(1.22519 -6.05904 -3.20145)
(0.410934 -6.58699 -2.07779)
(-0.367613 -6.74463 -1.70778)
(-4.12394 -6.12738 -1.39192)
(-7.20643 -4.59899 -0.603605)
(-1.36879 -2.63584 -6.02941)
(3.70494 -0.652647 -5.892)
(4.0318 -4.37275 -3.52264)
(0.491833 -5.88615 0.0495007)
(-0.452571 -5.31459 1.21977)
(0.428718 -4.79181 1.51771)
(1.02092 -4.50071 0.43852)
(0.428053 -3.07455 -2.16275)
(-0.0256724 -1.9087 -2.7941)
(-0.699106 -1.36925 -4.09145)
(-0.631665 0.498913 -5.95727)
(0.945106 -0.209823 -3.36058)
(0.799138 -1.18201 -0.0641592)
(-2.15687 0.116716 1.50426)
(-2.07728 0.988045 1.79517)
(-1.94479 0.379165 0.658615)
(-1.4679 -0.469116 0.623521)
(0.808759 -0.875912 0.978706)
(1.25225 -0.827279 2.96549)
(1.17275 -0.508836 36.9008)
(-0.354714 -3.07786 -1.78354)
(-1.02709 -0.735709 0.0117845)
(-1.09967 0.340433 -1.45268)
(-0.315813 -0.721012 -2.45695)
(-0.164301 -1.09568 -2.35449)
(-0.0675368 -0.911987 -1.99601)
(-0.00955717 -0.609365 -1.34397)
(-0.00833347 -0.947786 -0.360299)
(-0.0277205 -2.1435 -0.280875)
(-0.0295514 -2.58923 -2.45578)
(-0.00696253 -2.04464 -3.20192)
(0.00067842 -3.25755 -4.07742)
(-0.122628 -4.1498 -5.49118)
(-2.12992 -5.63227 -2.76814)
(-2.68451 -3.61336 -0.147569)
(-3.09327 -2.25424 1.59046)
(-2.66729 -2.75152 3.00012)
(-1.2804 -4.34128 2.79111)
(-0.42227 -5.13573 1.35379)
(0.611373 -5.27087 -0.171398)
(1.84101 -4.89436 -1.79974)
(3.58166 -4.19257 -3.16027)
(4.92466 -6.07104 -3.03532)
(0.243988 -7.87129 2.69968)
(0.0069158 -6.8643 2.82725)
(-0.0318053 -6.3046 2.83808)
(-0.134716 -6.21952 2.90784)
(-0.182365 -6.44444 3.03439)
(-0.0365725 -6.81619 3.08167)
(0.543268 -7.27048 2.93054)
(2.26013 -7.60823 2.75716)
(-5.67451 -5.66671 4.51889)
(-8.40869 -1.12128 4.09764)
(-7.09317 0.164781 4.01635)
(1.56873 -5.92697 1.8942)
(2.41608 -6.01969 0.806742)
(1.28676 -6.25687 0.544386)
(0.229082 -6.31542 0.671473)
(-0.0359235 -6.29342 1.19951)
(-1.41538 -4.69989 4.25966)
(-3.97553 -3.32027 4.73837)
(-1.88189 -2.83035 5.39342)
(5.2417 -4.68045 1.34203)
(2.94363 -5.14024 0.460695)
(0.463504 -4.6634 1.11508)
(-0.768797 -3.95805 0.82174)
(-2.90894 -2.26445 -1.948)
(-1.07089 0.898351 -4.08206)
(0.667529 1.73654 -4.19974)
(0.348794 2.19825 -4.94302)
(0.380637 2.82429 -5.20093)
(0.685467 2.11343 -3.3223)
(0.772411 -0.994441 0.362713)
(-2.29637 0.159032 1.79044)
(-2.26565 1.2852 1.58084)
(-2.10946 0.363368 0.357649)
(-1.45539 -0.473135 1.7012)
(0.689853 -0.531663 2.30601)
(1.20765 0.262803 3.50318)
(1.17003 8.22652 35.2636)
(-7.6352e-05 -5.95648 -12.3433)
(-0.000214436 -2.32294 -0.933258)
(-0.00241479 -1.68223 0.0568462)
(-0.00566741 -1.48806 -0.227383)
(-0.00857669 -1.1538 -0.756979)
(-0.0141539 -0.890227 -0.863085)
(-0.0200687 -0.86196 -0.448739)
(-0.0295477 -1.49764 0.124803)
(-0.0449444 -2.79519 0.771215)
(-0.043479 -3.94993 0.860671)
(-0.00594821 -4.60615 0.296835)
(0.0830694 -4.97346 -0.937402)
(0.421915 -4.7257 -4.43604)
(1.096 -4.12918 -6.54692)
(-0.217767 -2.81397 0.626406)
(-2.43576 -0.935903 1.41123)
(-3.95323 -0.180307 1.88306)
(-4.15311 -1.43485 2.73023)
(-0.961198 -3.63976 2.39595)
(0.0253889 -4.15881 2.15758)
(0.877607 -4.77905 1.74853)
(1.97849 -5.38948 0.88757)
(2.34032 -6.20365 0.511043)
(0.263779 -7.26636 1.60506)
(-0.00136388 -6.89354 1.39297)
(-0.00571904 -6.49156 1.27581)
(-0.00306849 -6.42968 1.2845)
(0.00103349 -6.53878 1.33408)
(0.00622087 -6.72452 1.38277)
(0.0120774 -6.95842 1.4278)
(0.0112033 -7.12302 1.4766)
(-0.00209061 -6.96776 1.35706)
(-0.10146 -6.5616 0.796564)
(-0.766829 -6.19781 0.69232)
(-0.253629 -5.49791 2.30987)
(0.0688231 -5.82134 1.51858)
(0.013059 -5.95067 0.998292)
(-0.00275871 -5.90724 1.05111)
(-0.00496287 -5.85862 1.10505)
(-0.00648979 -5.81221 1.12451)
(-0.0088723 -5.70576 1.14418)
(-0.00630638 -5.52053 1.13562)
(7.80155e-06 -5.23437 1.07018)
(0.00409208 -4.8683 1.01224)
(0.00229929 -4.29837 0.930916)
(-0.0100802 -3.49416 0.801934)
(-0.0220104 -2.37003 0.38879)
(-0.00612409 -0.568114 -0.299832)
(0.011584 1.25474 -1.27493)
(-0.00943504 2.20368 -2.56055)
(-0.00661355 2.37538 -3.05442)
(0.21482 1.44536 -1.72308)
(0.262633 -0.676632 0.472341)
(-0.590092 -1.24609 1.36552)
(-1.7338 0.328988 0.776579)
(-1.43024 -0.273588 0.0629771)
(-0.47999 -0.723242 1.45519)
(0.432598 -0.1643 2.31301)
(0.63837 1.42234 4.99052)
(0.629223 13.9255 39.9286)
(-0.000129396 -7.63046 -20.1662)
(-0.00880897 -2.55279 -6.30804)
(-0.279333 -1.29437 -1.83276)
(-1.89043 0.358622 -1.66181)
(-0.28999 -0.197812 -0.28279)
(-0.108481 -0.0332927 0.207846)
(-0.0994544 -0.437729 0.630868)
(-0.15887 -1.53672 1.10027)
(-0.21836 -2.24887 1.70846)
(-0.0969386 -2.77101 1.98927)
(-0.00654209 -3.35581 1.79784)
(0.065953 -3.77964 1.43683)
(0.12352 -3.90786 1.16072)
(0.144355 -3.95629 0.516273)
(0.0835113 -4.48985 -0.299291)
(-0.361909 -5.70931 -0.191863)
(-2.28792 -6.58896 -0.299723)
(-3.47846 -2.86346 3.16785)
(-2.17822 -1.30187 3.73233)
(-1.22138 -3.41444 3.87227)
(-0.00735902 -4.29858 3.22968)
(0.804105 -4.625 3.14543)
(2.2998 -4.8498 3.16054)
(3.58759 -4.8616 3.01309)
(0.394574 -5.77857 2.00107)
(0.0066683 -5.97516 1.47137)
(0.00813371 -6.17109 1.39861)
(0.00947334 -6.48896 1.4124)
(0.00208668 -6.79495 1.38406)
(-0.0121702 -6.78713 1.2108)
(-0.0747987 -6.18252 0.850217)
(-0.321236 -5.52279 0.297637)
(-1.13085 -5.28587 -0.472354)
(5.29381 1.45404 4.08126)
(5.58635 0.275014 3.86916)
(3.59586 -4.3446 2.86392)
(-0.119453 -3.89999 -4.24086)
(-0.0671538 -5.32851 -2.11366)
(-0.0953816 -5.48514 -0.648492)
(-0.281834 -5.19094 0.625597)
(-0.429743 -4.6633 0.760534)
(-0.180792 -4.18152 0.562917)
(0.212388 -3.62817 0.45644)
(0.334633 -2.8967 0.427724)
(0.139482 -1.78381 0.0584529)
(-0.041441 -0.504873 -0.836872)
(-0.0513936 0.828417 -1.16249)
(-0.0263307 2.09881 -1.54816)
(-0.0301875 3.28114 -2.20882)
(-0.0491743 3.45404 -2.64049)
(0.00364693 2.57584 -2.25492)
(0.14278 1.01063 -0.917332)
(0.120867 -0.945234 0.665133)
(-1.37241 -0.490379 1.44774)
(-1.43731 0.470981 0.660742)
(-1.27101 -0.151449 0.293865)
(-0.176499 -0.569967 1.00091)
(0.441718 -0.0333625 1.99818)
(0.552852 1.78836 5.13944)
(0.494297 15.6146 41.0771)
(-0.00019467 -3.5871 -17.7137)
(-0.00025626 -1.66275 -4.97337)
(-0.0240755 -2.97655 -0.576454)
(-0.137828 -3.06449 0.417325)
(-0.298889 -3.54694 1.22891)
(-0.379253 -3.98443 1.66507)
(-0.326096 -4.24394 1.8738)
(-0.127992 -4.17347 2.08242)
(-0.0115051 -4.29412 2.43135)
(0.0816752 -4.70089 2.70445)
(0.124854 -4.89267 2.8062)
(0.07559 -4.18249 2.95752)
(-0.00754923 -1.1594 3.13601)
(-0.260552 -1.07749 2.72489)
(-2.95927 -6.66126 0.00111798)
(-3.16216 -7.19758 0.538724)
(-1.35292 -7.4956 2.48391)
(-0.321456 -7.51885 3.30839)
(-0.135749 -7.28097 3.71607)
(-0.0665256 -5.94742 4.88644)
(0.165975 -2.64626 6.65676)
(0.899954 -0.284047 7.83449)
(2.72429 -0.166224 7.69263)
(4.19478 -2.538 4.50137)
(0.321945 -4.78532 2.55589)
(-0.00124089 -5.57544 2.42449)
(-0.0200485 -5.92909 2.3677)
(-0.0672525 -5.97274 2.25244)
(-0.133372 -5.65477 2.05689)
(-0.108162 -5.10784 1.78213)
(0.036169 -4.68811 1.58335)
(0.569697 -4.44393 1.81838)
(3.12081 -2.53591 3.83984)
(2.11984 1.52495 5.06318)
(-5.13112 4.65954 0.585366)
(-5.17857 1.20881 -4.34258)
(-4.31133 1.64516 -4.48986)
(-0.809705 2.20359 -5.00406)
(5.28343 1.82164 -3.4591)
(6.20027 -1.07949 0.410955)
(0.74379 -1.70596 2.83637)
(-0.248592 -1.2825 2.66741)
(0.450281 -1.73494 1.70243)
(0.341969 -1.52208 1.07487)
(-1.40641 -0.456918 0.714697)
(-2.27108 5.7641 -1.71963)
(-0.306496 6.97913 -3.19624)
(0.00375763 7.83803 -3.35422)
(0.0353393 8.223 -3.15937)
(0.74133 7.37149 -2.40638)
(0.718109 5.57857 -1.87629)
(0.496367 3.36841 -1.12163)
(0.0843896 1.30588 0.569468)
(-0.158944 0.459274 1.6526)
(-1.43949 0.388323 0.765615)