/*--------------------------------*- C++ -*----------------------------------*\
| =========                 |                                                 |
| \\      /  F ield         | OpenFOAM: The Open Source CFD Toolbox           |
|  \\    /   O peration     | Version:  2.1.1                                 |
|   \\  /    A nd           | Web:      www.OpenFOAM.org                      |
|    \\/     M anipulation  |                                                 |
\*---------------------------------------------------------------------------*/
FoamFile
{
    version     2.0;
    format      ascii;
    class       Cloud<solidParticle>;
    location    "0.00105";
    object      positions;
}
// * * * * * * * * * * * * * * * * * * * * * * * * * * * * * * * * * * * * * //

45192
(
(0.000759377 0.00899507 0.0010072) 20041
(0.0182658 0.00644295 0.00219574) 6096
(0.0182056 0.00644245 0.00219398) 6096
(0.0181411 0.00644213 0.00219212) 6096
(0.0180743 0.00644193 0.00219016) 6096
(0.0180042 0.00644188 0.00218809) 6096
(0.0179304 0.00644195 0.00218581) 6095
(0.0178524 0.0064422 0.00218337) 6095
(0.0177714 0.00644253 0.00218072) 6095
(0.0176866 0.00644299 0.00217788) 6095
(0.0175976 0.00644358 0.00217481) 13415
(0.0175047 0.00644434 0.00217155) 13415
(0.0174072 0.0064453 0.00216809) 13414
(0.0173049 0.00644656 0.00216451) 13414
(0.0171993 0.00644814 0.00216096) 13414
(0.0170911 0.00645 0.00215746) 13414
(0.0169805 0.00645224 0.0021541) 13413
(0.0187314 0.00645518 0.00220676) 6097
(0.018685 0.0064537 0.00220437) 6097
(0.0186367 0.0064523 0.00220195) 6097
(0.0185866 0.00645094 0.00219952) 6097
(0.0185344 0.00644963 0.00219704) 6097
(0.0184796 0.00644839 0.00219449) 6096
(0.0184218 0.00644725 0.00219189) 6096
(0.0183616 0.00644619 0.00218924) 6096
(0.0182973 0.00644525 0.00218648) 6096
(0.0182311 0.00644443 0.00218369) 6096
(0.0181608 0.00644375 0.00218077) 6096
(0.0180873 0.00644319 0.00217774) 6096
(0.01801 0.00644283 0.00217461) 13416
(0.017929 0.00644264 0.00217135) 13415
(0.017844 0.0064426 0.00216792) 13415
(0.017756 0.00644274 0.00216437) 13415
(0.0176632 0.00644315 0.00216067) 13415
(0.0175668 0.00644386 0.00215685) 13415
(0.0191027 0.00647252 0.00222384) 6098
(0.0174655 0.00644495 0.00215293) 13414
(0.0190637 0.00647051 0.00222109) 6098
(0.015541 0.00304813 0.00322937) 751
(0.0173612 0.00644635 0.00214889) 13414
(0.0190236 0.00646852 0.00221823) 6098
(0.0154428 0.00304486 0.00322916) 750
(0.0172528 0.00644825 0.00214492) 13414
(0.0189822 0.00646655 0.0022153) 6097
(0.0153402 0.00304163 0.00322918) 750
(0.0171427 0.00645063 0.00214114) 13414
(0.0189393 0.00646461 0.00221233) 6097
(0.0152294 0.00303804 0.00322958) 750
(0.0170293 0.00645363 0.00213756) 13414
(0.018895 0.00646271 0.00220932) 6097
(0.0151091 0.00303392 0.00323045) 750
(0.0169124 0.00645739 0.00213422) 13413
(0.0188492 0.00646085 0.00220626) 6097
(0.0149781 0.00302913 0.00323184) 749
(0.0188016 0.00645903 0.00220314) 6097
(0.0148368 0.00302354 0.00323377) 749
(0.0187522 0.00645723 0.00219994) 6097
(0.014685 0.00301693 0.0032363) 749
(0.0187008 0.00645548 0.00219668) 6097
(0.0145245 0.00300913 0.00323945) 749
(0.018647 0.00645379 0.00219338) 6097
(0.0143577 0.00299997 0.00324326) 31104
(0.01859 0.00645218 0.00219001) 6097
(0.0141904 0.00298963 0.00324753) 31104
(0.0185296 0.0064506 0.00218652) 6097
(0.0184673 0.00644913 0.00218309) 6096
(0.0184006 0.00644779 0.00217956) 6096
(0.0183304 0.00644654 0.00217591) 6096
(0.0166126 0.00307319 0.00323146) 813
(0.0182565 0.00644535 0.00217204) 13416
(0.0165465 0.00307116 0.00322922) 813
(0.0181781 0.00644436 0.00216805) 13416
(0.0164781 0.00306897 0.00322724) 752
(0.0180953 0.0064436 0.00216395) 13416
(0.016406 0.00306651 0.00322559) 752
(0.0180082 0.00644318 0.00215976) 13416
(0.0193821 0.00648913 0.00223744) 6098
(0.0163315 0.0030639 0.00322411) 752
(0.0179168 0.00644304 0.00215546) 13415
(0.0193469 0.0064867 0.00223458) 6098
(0.0162533 0.00306104 0.00322283) 752
(0.0178211 0.00644334 0.00215117) 13415
(0.0193107 0.0064843 0.00223163) 6098
(0.0161719 0.00305803 0.00322174) 752
(0.0177209 0.00644409 0.00214688) 13415
(0.0192734 0.00648193 0.00222861) 6098
(0.0160874 0.00305487 0.00322083) 752
(0.0176168 0.00644532 0.00214261) 13415
(0.0192351 0.00647963 0.00222555) 6098
(0.0159994 0.00305168 0.00322006) 751
(0.0175075 0.00644716 0.0021384) 13415
(0.0191957 0.00647738 0.00222247) 6098
(0.0159066 0.00304839 0.00321948) 751
(0.0173937 0.00644973 0.00213438) 13414
(0.0191548 0.00647516 0.00221932) 6098
(0.0158098 0.00304515 0.00321903) 751
(0.0172763 0.00645301 0.0021306) 13414
(0.0191126 0.006473 0.00221612) 6098
(0.0157084 0.00304197 0.00321873) 751
(0.0171545 0.00645713 0.00212708) 13414
(0.0190688 0.00647088 0.00221287) 6098
(0.0155985 0.0030384 0.0032188) 751
(0.0170274 0.0064622 0.00212383) 13414
(0.0190234 0.00646881 0.00220955) 6098
(0.0154784 0.00303431 0.00321933) 750
(0.0168949 0.00646847 0.00212093) 13413
(0.0189762 0.00646678 0.00220618) 6097
(0.0153475 0.00302952 0.00322037) 750
(0.0189269 0.0064648 0.00220273) 6097
(0.0152059 0.00302386 0.00322196) 750
(0.0188755 0.00646285 0.00219919) 6097
(0.0150529 0.00301703 0.00322418) 750
(0.0188216 0.00646098 0.00219558) 6097
(0.0153284 0.00468307 0.000970568) 11550
(0.0148915 0.0030089 0.00322705) 749
(0.0187648 0.00645917 0.00219188) 6097
(0.0153008 0.00468811 0.000968859) 11550
(0.0147239 0.00299924 0.00323062) 31248
(0.01729 0.00308233 0.00323635) 814
(0.018705 0.00645739 0.00218803) 6097
(0.0152724 0.00469301 0.000967104) 11550
(0.0145568 0.00298831 0.00323463) 31248
(0.017233 0.00308125 0.00323333) 814
(0.0186421 0.00645567 0.00218408) 6097
(0.0152432 0.0046978 0.000965343) 11550
(0.0144002 0.00297685 0.00323865) 31104
(0.0171741 0.00308 0.00323042) 814
(0.0185754 0.00645402 0.00218002) 6097
(0.0152134 0.00470246 0.000963581) 11610
(0.0171131 0.00307858 0.00322763) 814
(0.0185048 0.00645242 0.0021758) 13417
(0.0151829 0.00470701 0.00096181) 11610
(0.0170497 0.00307696 0.00322497) 754
(0.0184302 0.00645099 0.00217152) 13416
(0.0151519 0.00471143 0.000960035) 11610
(0.0169838 0.00307513 0.00322246) 753
(0.0183503 0.00644975 0.00216707) 13416
(0.0196211 0.00650658 0.00224987) 6099
(0.0151204 0.00471575 0.000958254) 11610
(0.0169161 0.00307312 0.0032201) 753
(0.0182667 0.00644873 0.00216252) 13416
(0.019588 0.00650384 0.00224737) 6099
(0.0150883 0.00471995 0.000956466) 11610
(0.0168455 0.00307086 0.003218) 753
(0.0181776 0.00644805 0.00215786) 13416
(0.0195536 0.00650114 0.00224469) 6099
(0.0150555 0.00472405 0.000954664) 11610
(0.0167725 0.00306837 0.00321617) 753
(0.0180833 0.00644783 0.00215312) 13416
(0.0195186 0.00649848 0.00224192) 6099
(0.0150216 0.00472808 0.000952841) 11610
(0.0166972 0.00306567 0.00321446) 753
(0.0179835 0.00644809 0.00214831) 13415
(0.0194825 0.00649587 0.00223902) 6098
(0.014987 0.00473205 0.000950991) 11609
(0.0166186 0.0030627 0.00321293) 753
(0.0178791 0.00644895 0.00214357) 13415
(0.0194453 0.00649331 0.00223605) 6098
(0.0149515 0.00473597 0.000949114) 11609
(0.016538 0.00305961 0.00321151) 753
(0.0177699 0.00645046 0.00213896) 13415
(0.0194069 0.00649081 0.002233) 6098
(0.0164546 0.00305638 0.00321023) 752
(0.0176548 0.00645273 0.00213447) 13415
(0.0193672 0.0064884 0.00222989) 6098
(0.0163683 0.00305313 0.00320905) 752
(0.0175338 0.00645587 0.00213015) 13415
(0.0193263 0.00648607 0.00222673) 6098
(0.0162782 0.0030499 0.00320799) 752
(0.0174071 0.00646001 0.00212614) 13414
(0.0192839 0.00648381 0.00222352) 6098
(0.0161674 0.00523066 0.000771879) 11912
(0.0161841 0.00304672 0.00320701) 752
(0.0172746 0.00646525 0.00212246) 13414
(0.01924 0.00648164 0.00222029) 6098
(0.0161333 0.00523504 0.000773555) 11912
(0.016085 0.00304362 0.00320614) 752
(0.017136 0.00647172 0.00211915) 13414
(0.0191946 0.00647952 0.002217) 6098
(0.0160978 0.00523924 0.000775073) 11912
(0.0159768 0.00304012 0.00320561) 751
(0.0169894 0.00647971 0.00211625) 13413
(0.0191473 0.00647747 0.00221364) 6098
(0.015928 0.00466387 0.000974263) 11551
(0.0160611 0.00524332 0.000776458) 11912
(0.015858 0.00303608 0.00320549) 751
(0.0179602 0.00308886 0.00324569) 815
(0.0190977 0.00647549 0.00221016) 6098
(0.0159015 0.00466936 0.000972695) 11551
(0.016023 0.00524726 0.000777632) 11912
(0.0157275 0.00303126 0.00320581) 751
(0.0179081 0.0030885 0.00324206) 815
(0.0190461 0.00647356 0.0022066) 6098
(0.0158739 0.00467466 0.000971143) 11551
(0.0159837 0.00525109 0.000778679) 11911
(0.015585 0.00302544 0.00320671) 751
(0.0178547 0.00308807 0.00323854) 815
(0.0189926 0.00647169 0.00220296) 6097
(0.0158453 0.00467979 0.000969599) 11551
(0.0159433 0.00525483 0.000779618) 11911
(0.01543 0.00301824 0.00320828) 750
(0.0177999 0.00308753 0.00323513) 815
(0.0189363 0.00646986 0.00219918) 6097
(0.0158159 0.00468479 0.000968062) 11551
(0.015902 0.00525851 0.000780462) 11911
(0.0152647 0.00300943 0.00321059) 750
(0.0177434 0.00308686 0.00323183) 815
(0.0188767 0.00646812 0.00219526) 6097
(0.0157856 0.00468964 0.000966528) 11551
(0.0158595 0.00526214 0.000781214) 11911
(0.0150946 0.00299905 0.00321363) 31392
(0.0176852 0.00308606 0.00322863) 815
(0.0188146 0.00646639 0.00219117) 6097
(0.0157545 0.00469437 0.000964996) 11551
(0.0158162 0.00526575 0.000781896) 11911
(0.0149269 0.00298733 0.00321717) 31248
(0.0176251 0.00308512 0.0032255) 815
(0.0103946 0.00368146 0.00345117) 14480
(0.0187483 0.00646476 0.00218697) 6097
(0.0198892 0.00653002 0.00226253) 6099
(0.0157231 0.00469898 0.000963641) 11611
(0.0157725 0.00526937 0.000782682) 11911
(0.0147739 0.00297549 0.00322085) 31248
(0.0175629 0.00308401 0.00322258) 755
(0.017769 0.00655051 0.00169573) 6755
(0.0103709 0.0036814 0.0034512) 14480
(0.0103432 0.00377579 0.0036731) 14540
(0.0186787 0.00646317 0.0021826) 6097
(0.0198565 0.00652697 0.00226103) 6099
(0.0156913 0.00470354 0.000962264) 11611
(0.0157279 0.00527302 0.000783385) 11911
(0.0146514 0.00296542 0.00322349) 31248
(0.0174991 0.00308273 0.00321969) 754
(0.017683 0.00655575 0.00169415) 6755
(0.0103472 0.00368131 0.00345123) 14480
(0.0103199 0.00377571 0.00367312) 14540
(0.0186047 0.00646165 0.00217804) 13417
(0.0198233 0.00652397 0.00225934) 6099
(0.0156588 0.00470802 0.000960871) 11611
(0.0156826 0.00527668 0.00078402) 11911
(0.0174328 0.00308122 0.00321688) 754
(0.0175909 0.00656179 0.00169247) 6755
(0.0103267 0.00639443 0.00288453) 13520
(0.0103235 0.00368121 0.00345127) 14480
(0.0102966 0.00377562 0.00367315) 14540
(0.0185264 0.00646028 0.00217334) 13417
(0.0197898 0.00652099 0.00225748) 6099
(0.0156259 0.00471243 0.000959455) 11611
(0.0156368 0.00528038 0.0007846) 11911
(0.0169794 0.00518645 0.000760295) 11913
(0.0173654 0.00307953 0.00321413) 754
(0.017492 0.00656877 0.00169072) 6754
(0.0103039 0.00639441 0.00288458) 13520
(0.0102998 0.00368109 0.00345131) 14480
(0.010797 0.00367711 0.00345253) 14481
(0.0102733 0.00377553 0.00367318) 14540
(0.018443 0.00645905 0.00216843) 13416
(0.0197556 0.00651807 0.00225543) 6099
(0.0155926 0.00471678 0.000958017) 11611
(0.0155903 0.0052841 0.000785118) 11911
(0.0169594 0.00519288 0.000763988) 11913
(0.0172963 0.00307764 0.00321147) 754
(0.0173881 0.0065767 0.00168898) 6754
(0.0102812 0.00639441 0.00288461) 13520
(0.0102762 0.00368095 0.00345135) 14480
(0.0107734 0.00367733 0.00345251) 14481
(0.0102501 0.00377542 0.00367323) 14540
(0.0107378 0.00377255 0.00367725) 14541
(0.0183545 0.00645813 0.00216338) 13416
(0.0197205 0.00651518 0.00225321) 6099
(0.0155589 0.00472109 0.000956554) 11611
(0.0155433 0.00528788 0.00078559) 11911
(0.0169362 0.00519882 0.000767298) 11913
(0.0172246 0.00307549 0.00320906) 754
(0.0173012 0.00658051 0.00168782) 6754
(0.0102584 0.00639443 0.00288464) 13520
(0.0107305 0.0064001 0.00288233) 13521
(0.0102525 0.0036808 0.0034514) 14480
(0.0107497 0.00367753 0.00345248) 14481
(0.0102269 0.0037753 0.00367328) 14540
(0.010714 0.00377268 0.00367712) 14541
(0.0182608 0.00645756 0.00215821) 13416
(0.019685 0.00651236 0.00225084) 6099
(0.0155245 0.00472535 0.000955059) 11611
(0.0154953 0.00529173 0.000786006) 11910
(0.0169119 0.00520449 0.000770426) 11913
(0.0171514 0.00307312 0.00320686) 754
(0.0172309 0.0065827 0.00168741) 6754
(0.0102356 0.00639446 0.00288467) 13520
(0.0107087 0.00639974 0.00288246) 13521
(0.0102289 0.00368063 0.00345145) 14480
(0.010726 0.00367773 0.00345246) 14481
(0.0102038 0.00377516 0.00367334) 14540
(0.0106903 0.0037728 0.00367699) 14541
(0.0181613 0.00645746 0.00215295) 13416
(0.0196484 0.00650959 0.00224831) 6099
(0.0154894 0.0047296 0.000953528) 11610
(0.0154465 0.00529566 0.000786387) 11910
(0.0168867 0.00520991 0.000773393) 11913
(0.0170756 0.00307045 0.00320486) 754
(0.0171649 0.00658458 0.00168714) 6754
(0.0102127 0.00639452 0.00288469) 13520
(0.0106868 0.0063994 0.00288258) 13521
(0.0102053 0.00368045 0.0034515) 14480
(0.0107023 0.00367791 0.00345244) 14481
(0.0101807 0.00377502 0.00367341) 14540
(0.0106666 0.00377291 0.00367687) 14541
(0.0180559 0.00645792 0.00214764) 13416
(0.0196107 0.00650691 0.00224564) 6099
(0.0154538 0.00473384 0.000951959) 11610
(0.0168604 0.00521509 0.000776199) 11913
(0.0169988 0.00306766 0.00320292) 753
(0.0171033 0.00658664 0.00168716) 6754
(0.0101898 0.00639459 0.0028847) 13520
(0.0106649 0.00639908 0.0028827) 13521
(0.0101818 0.00368025 0.00345156) 14480
(0.0106786 0.00367807 0.00345242) 14481
(0.0101577 0.00377487 0.00367349) 14540
(0.0106429 0.003773 0.00367675) 14541
(0.0179445 0.00645915 0.00214234) 13415
(0.0195721 0.00650431 0.00224286) 6099
(0.0154174 0.00473808 0.000950349) 11610
(0.0168329 0.00522005 0.000778839) 11913
(0.0169196 0.00306463 0.00320112) 753
(0.0170515 0.00658904 0.00168787) 6754
(0.0101669 0.00639468 0.0028847) 13520
(0.0106429 0.00639877 0.00288282) 13521
(0.0101583 0.00368004 0.00345162) 14480
(0.0106549 0.00367822 0.0034524) 14481
(0.0101347 0.00377471 0.00367358) 14540
(0.0106192 0.00377309 0.00367664) 14541
(0.0178267 0.00646125 0.00213718) 13415
(0.0195325 0.00650179 0.00224) 6099
(0.0153805 0.0047423 0.000948695) 11610
(0.0168041 0.00522479 0.00078131) 11913
(0.0168382 0.00306147 0.00319942) 753
(0.0170051 0.00659163 0.00168892) 6754
(0.010144 0.00639479 0.0028847) 13520
(0.0106209 0.00639848 0.00288293) 13521
(0.0100425 0.00420414 0.00185148) 14120
(0.0101348 0.0036798 0.00345168) 14480
(0.0106312 0.00367836 0.00345238) 14481
(0.0111251 0.00367062 0.00345406) 14482
(0.0101117 0.00377454 0.00367367) 14540
(0.0105956 0.00377316 0.00367654) 14541
(0.0101467 0.00639874 0.00312487) 15260
(0.0177018 0.00646442 0.00213226) 13415
(0.0194916 0.00649935 0.00223703) 6098
(0.0153428 0.00474651 0.000946997) 11610
(0.0167739 0.00522931 0.0007836) 11913
(0.016754 0.00305819 0.00319785) 753
(0.0186394 0.00309064 0.00325393) 817
(0.0169581 0.00659423 0.00168984) 6753
(0.010121 0.00639491 0.00288469) 13520
(0.0105988 0.00639821 0.00288304) 13521
(0.0100205 0.00420399 0.00185146) 14120
(0.0101114 0.00367956 0.00345174) 14480
(0.0106075 0.00367848 0.00345237) 14481
(0.0111016 0.00367094 0.00345399) 14482
(0.0100888 0.00377436 0.00367377) 14540
(0.0105719 0.00377322 0.00367644) 14541
(0.00995616 0.00500599 0.00438782) 14839
(0.0101238 0.00639888 0.00312493) 15260
(0.0106023 0.00640129 0.00312478) 15261
(0.0175703 0.00646871 0.00212766) 13415
(0.0194495 0.00649699 0.00223396) 6098
(0.0153045 0.0047507 0.000945261) 11610
(0.0165283 0.00465043 0.000978887) 11553
(0.0167421 0.00523365 0.000785711) 11913
(0.0166663 0.00305494 0.00319636) 753
(0.0185906 0.00309103 0.00325039) 817
(0.0169105 0.00659681 0.00169064) 2493
(0.010098 0.00639506 0.00288467) 13520
(0.0105766 0.00639796 0.00288314) 13521
(0.0110288 0.00640843 0.00287994) 13522
(0.00999865 0.00420383 0.00185142) 14119
(0.010088 0.0036793 0.00345181) 14480
(0.0105837 0.00367858 0.00345236) 14481
(0.0110782 0.00367127 0.00345393) 14482
(0.0100659 0.00377417 0.00367387) 14540
(0.0105483 0.00377327 0.00367635) 14541
(0.0110409 0.00376788 0.00368183) 14542
(0.00993372 0.00500589 0.00438809) 14839
(0.0104077 0.00500798 0.00438808) 14840
(0.0101009 0.00639903 0.003125) 15260
(0.01058 0.00640107 0.00312479) 15261
(0.0174314 0.00647428 0.00212342) 13414
(0.0194058 0.00649471 0.00223081) 6098
(0.0152654 0.00475486 0.000943489) 11610
(0.0165033 0.00465648 0.000977675) 11553
(0.0167088 0.0052378 0.000787652) 11913
(0.0165755 0.00305182 0.00319492) 753
(0.0185402 0.00309135 0.00324696) 817
(0.0168627 0.00659932 0.00169131) 2493
(0.010075 0.00639521 0.00288465) 13520
(0.0105544 0.00639772 0.00288324) 13521
(0.0110081 0.0064079 0.00288008) 13522
(0.00997678 0.00420366 0.00185138) 14119
(0.0104288 0.00420201 0.0018486) 14120
(0.0100646 0.00367902 0.00345188) 14480
(0.01056 0.00367867 0.00345235) 14481
(0.0110547 0.00367158 0.00345387) 14482
(0.0100431 0.00377397 0.00367399) 14540
(0.0105248 0.00377331 0.00367626) 14541
(0.0110171 0.0037681 0.00368166) 14542
(0.0099113 0.00500578 0.00438837) 14839
(0.0103848 0.00500782 0.00438806) 14840
(0.010078 0.00639921 0.00312507) 15260
(0.0105575 0.00640086 0.0031248) 15261
(0.0172859 0.00648134 0.00211964) 13414
(0.0193606 0.00649253 0.00222759) 6098
(0.0152255 0.00475898 0.00094166) 11610
(0.0164782 0.00466233 0.000976467) 11552
(0.016674 0.00524181 0.000789434) 11913
(0.016479 0.00304873 0.00319358) 752
(0.0184886 0.00309157 0.00324362) 816
(0.0168145 0.00660177 0.00169186) 2493
(0.010052 0.00639539 0.00288462) 13520
(0.0105321 0.0063975 0.00288333) 13521
(0.0109873 0.00640738 0.00288022) 13521
(0.00995493 0.00420348 0.00185134) 14119
(0.0104067 0.00420208 0.00184875) 14120
(0.0100412 0.00367873 0.00345196) 14480
(0.0105362 0.00367873 0.00345234) 14481
(0.0110313 0.00367188 0.00345382) 14482
(0.0100202 0.00377376 0.00367411) 14540
(0.0105012 0.00377333 0.00367619) 14541
(0.0109933 0.00376831 0.00368149) 14541
(0.0098889 0.00500569 0.00438866) 14839
(0.0103619 0.00500767 0.00438806) 14840
(0.010055 0.00639939 0.00312514) 15260
(0.0105351 0.00640067 0.00312481) 15261
(0.0171315 0.00649022 0.00211638) 13414
(0.0193136 0.00649044 0.00222427) 6098
(0.0164521 0.00466798 0.000975274) 11552
(0.0166376 0.00524569 0.000791057) 11913
(0.0163732 0.00304527 0.00319252) 752
(0.0184346 0.00309165 0.00324042) 816
(0.0167657 0.00660419 0.00169228) 2493
(0.0185027 0.00654789 0.00169941) 6757
(0.0100289 0.00639558 0.00288458) 13520
(0.0105097 0.00639731 0.00288342) 13521
(0.0109663 0.00640688 0.00288036) 13521
(0.0099331 0.0042033 0.00185128) 14119
(0.0103846 0.00420213 0.00184889) 14120
(0.0100178 0.00367842 0.00345203) 14480
(0.0105124 0.00367879 0.00345234) 14481
(0.0110078 0.00367218 0.00345376) 14482
(0.00999747 0.00377354 0.00367424) 14539
(0.0104777 0.00377335 0.00367612) 14540
(0.0109696 0.00376852 0.00368132) 14541
(0.00986651 0.00500559 0.00438895) 14839
(0.010339 0.00500751 0.00438807) 14840
(0.0100321 0.00639959 0.00312521) 15260
(0.0105125 0.0064005 0.00312483) 15261
(0.0169651 0.0065015 0.00211374) 13413
(0.0192654 0.00648844 0.00222091) 6098
(0.0164247 0.00467342 0.000974093) 11552
(0.0165997 0.00524945 0.000792538) 11913
(0.016256 0.00304123 0.00319185) 752
(0.0183795 0.00309166 0.0032373) 816
(0.0167167 0.00660669 0.00169255) 2493
(0.0184529 0.00654985 0.00169984) 6756
(0.0100058 0.00639578 0.00288454) 13520
(0.0104872 0.00639713 0.00288351) 13520
(0.0109453 0.00640638 0.0028805) 13521
(0.00991129 0.00420311 0.00185122) 14119
(0.0103625 0.00420217 0.00184902) 14120
(0.0099945 0.0036781 0.00345211) 14479
(0.0104886 0.00367882 0.00345234) 14480
(0.0109843 0.00367246 0.00345371) 14481
(0.00997474 0.00377331 0.00367437) 14539
(0.0104542 0.00377335 0.00367606) 14540
(0.0109458 0.00376871 0.00368115) 14541
(0.00984414 0.0050055 0.00438926) 14839
(0.0103162 0.00500735 0.0043881) 14840
(0.0100091 0.00639981 0.00312529) 15260
(0.0104899 0.00640035 0.00312484) 15260
(0.0192149 0.00648655 0.00221744) 6098
(0.0163961 0.00467868 0.000972919) 11552
(0.0165604 0.00525312 0.000793888) 11913
(0.0161257 0.00303636 0.0031917) 752
(0.0183233 0.00309158 0.00323424) 816
(0.0166684 0.00660926 0.00169274) 2493
(0.0183974 0.0065522 0.00169981) 6756
(0.00998264 0.006396 0.00288449) 13519
(0.0104647 0.00639697 0.00288359) 13520
(0.0109242 0.0064059 0.00288064) 13521
(0.0098895 0.00420291 0.00185116) 14119
(0.0103404 0.0042022 0.00184914) 14120
(0.0099712 0.00367776 0.00345219) 14479
(0.0104648 0.00367883 0.00345235) 14480
(0.0109608 0.00367274 0.00345366) 14481
(0.00995204 0.00377308 0.00367451) 14539
(0.0104308 0.00377334 0.00367602) 14540
(0.010922 0.0037689 0.00368099) 14541
(0.00982179 0.00500541 0.00438958) 14839
(0.0102933 0.0050072 0.00438814) 14840
(0.00998607 0.00640003 0.00312537) 15259
(0.0104672 0.00640022 0.00312487) 15260
(0.0191622 0.00648472 0.00221385) 6098
(0.0163664 0.00468376 0.000971747) 11552
(0.0165197 0.00525671 0.00079511) 11913
(0.0159818 0.00303039 0.00319216) 751
(0.018265 0.00309137 0.0032313) 816
(0.0166203 0.00661183 0.00169278) 2493
(0.0183362 0.006555 0.00169936) 6756
(0.00995947 0.00639624 0.00288443) 13519
(0.0104421 0.00639683 0.00288367) 13520
(0.0109031 0.00640543 0.00288078) 13521
(0.0102827 0.004415 0.00172881) 14060
(0.00986772 0.0042027 0.00185109) 14119
(0.0103183 0.00420222 0.00184925) 14120
(0.00994794 0.00367741 0.00345227) 14479
(0.010441 0.00367883 0.00345236) 14480
(0.0109372 0.00367301 0.00345361) 14481
(0.00992937 0.00377284 0.00367466) 14539
(0.0104074 0.00377332 0.00367598) 14540
(0.0108982 0.00376908 0.00368083) 14541
(0.00979945 0.00500532 0.0043899) 14839
(0.0102705 0.00500704 0.0043882) 14840
(0.00996306 0.00640027 0.00312546) 15259
(0.0104445 0.00640011 0.00312489) 15260
(0.0191075 0.00648296 0.00221015) 6098
(0.0163357 0.0046887 0.000970576) 11552
(0.0164777 0.00526024 0.000796218) 11912
(0.0158247 0.00302294 0.0031933) 751
(0.0182053 0.00309106 0.00322843) 816
(0.0165715 0.00661441 0.00169263) 2493
(0.0182695 0.00655828 0.00169862) 6756
(0.00993628 0.00639649 0.00288436) 13519
(0.0104194 0.00639672 0.00288374) 13520
(0.0108818 0.00640497 0.00288091) 13521
(0.00981519 0.00441441 0.00173017) 14059
(0.0102608 0.004415 0.0017289) 14060
(0.00984597 0.00420249 0.00185101) 14119
(0.0102962 0.00420223 0.00184934) 14120
(0.00992471 0.00367705 0.00345236) 14479
(0.0104171 0.0036788 0.00345238) 14480
(0.0109136 0.00367326 0.00345357) 14481
(0.00990673 0.00377259 0.00367482) 14539
(0.010384 0.00377329 0.00367594) 14540
(0.0108744 0.00376926 0.00368068) 14541
(0.00977712 0.00500524 0.00439023) 14839
(0.0102477 0.00500689 0.00438827) 14840
(0.00994004 0.00640052 0.00312555) 15259
(0.0104218 0.00640002 0.00312492) 15260
(0.0108892 0.00640745 0.00312551) 15261
(0.0190499 0.00648124 0.00220626) 6098
(0.0201264 0.00655206 0.00226676) 6100
(0.016304 0.0046935 0.000969403) 11552
(0.0164345 0.00526373 0.000797225) 11912
(0.0175616 0.005159 0.000753827) 11915
(0.0156561 0.00301364 0.00319521) 751
(0.018145 0.00309066 0.00322562) 816
(0.0165214 0.00661693 0.00169221) 2493
(0.0181972 0.00656219 0.00169764) 6756
(0.00991306 0.00639675 0.00288429) 13519
(0.0103967 0.00639662 0.00288381) 13520
(0.0108605 0.00640452 0.00288105) 13521
(0.00979333 0.00441431 0.00172996) 14059
(0.0102388 0.004415 0.00172897) 14060
(0.00982422 0.00420227 0.00185092) 14119
(0.0102742 0.00420223 0.00184943) 14120
(0.0107236 0.00419714 0.00184363) 14121
(0.00990151 0.00367668 0.00345244) 14479
(0.0103933 0.00367876 0.0034524) 14480
(0.01089 0.00367351 0.00345353) 14481
(0.00988413 0.00377233 0.00367498) 14539
(0.0103606 0.00377325 0.00367592) 14540
(0.0108506 0.00376942 0.00368053) 14541
(0.0097548 0.00500516 0.00439057) 14839
(0.010225 0.00500674 0.00438835) 14840
(0.009917 0.00640077 0.00312565) 15259
(0.0103989 0.00639994 0.00312496) 15260
(0.0108676 0.00640702 0.00312549) 15261
(0.0189895 0.00647958 0.00220218) 6097
(0.0200932 0.00654896 0.00226658) 6100
(0.0162714 0.00469817 0.000968222) 11552
(0.0163902 0.00526718 0.000798132) 11912
(0.0175566 0.0051675 0.00075913) 11915
(0.0154827 0.0030025 0.00319792) 750
(0.0180825 0.00309012 0.0032229) 816
(0.0164693 0.00661938 0.00169146) 2492
(0.0181195 0.00656678 0.00169649) 6756
(0.00988982 0.00639702 0.00288421) 13519
(0.0103739 0.00639654 0.00288387) 13520
(0.0108391 0.00640409 0.00288118) 13521
(0.00977147 0.0044142 0.00172974) 14059
(0.0102168 0.00441499 0.00172902) 14060
(0.0098025 0.00420204 0.00185083) 14119
(0.0102521 0.00420221 0.00184951) 14120
(0.0107019 0.00419734 0.00184392) 14121
(0.00987834 0.0036763 0.00345253) 14479
(0.0103695 0.00367871 0.00345243) 14480
(0.0108664 0.00367374 0.00345349) 14481
(0.00986155 0.00377207 0.00367515) 14539
(0.0103373 0.0037732 0.00367591) 14540
(0.0108268 0.00376958 0.00368039) 14541
(0.00973249 0.00500509 0.00439092) 14839
(0.0102022 0.00500659 0.00438845) 14840
(0.00989396 0.00640104 0.00312575) 15259
(0.0103761 0.00639989 0.003125) 15260
(0.010846 0.00640661 0.00312547) 15261
(0.018926 0.00647788 0.00219784) 6097
(0.0200596 0.00654584 0.00226614) 6100
(0.016238 0.00470274 0.000967035) 11612
(0.0163449 0.00527062 0.000798947) 11912
(0.0175492 0.00517553 0.000764135) 11915
(0.0153138 0.00299004 0.00320113) 31392
(0.0180187 0.00308944 0.00322022) 756
(0.0164152 0.00662172 0.00169034) 2492
(0.0180359 0.0065722 0.00169522) 6756
(0.00986656 0.00639731 0.00288413) 13519
(0.0103511 0.00639648 0.00288392) 13520
(0.0108177 0.00640367 0.00288131) 13521
(0.00974961 0.0044141 0.00172952) 14059
(0.0101949 0.00441498 0.00172906) 14060
(0.00978078 0.00420181 0.00185074) 14119
(0.01023 0.00420218 0.00184958) 14120
(0.0106802 0.00419753 0.0018442) 14121
(0.00985521 0.0036759 0.00345261) 14479
(0.0103457 0.00367864 0.00345246) 14480
(0.0108427 0.00367397 0.00345346) 14481
(0.00983901 0.0037718 0.00367533) 14539
(0.010314 0.00377314 0.00367591) 14540
(0.010803 0.00376973 0.00368025) 14541
(0.00971018 0.00500502 0.00439127) 14839
(0.0101795 0.00500644 0.00438856) 14840
(0.00987091 0.00640132 0.00312585) 15259
(0.0103532 0.00639985 0.00312504) 15260
(0.0108243 0.00640621 0.00312546) 15261
(0.0188588 0.00647625 0.00219327) 6097
(0.0200256 0.00654272 0.00226545) 6100
(0.016204 0.00470722 0.000965839) 11612
(0.0162987 0.00527406 0.000799688) 11912
(0.0175394 0.0051831 0.000768852) 11915
(0.0151644 0.00297789 0.00320415) 31392
(0.0179531 0.00308861 0.00321758) 755
(0.0163589 0.00662389 0.00168882) 2492
(0.0179456 0.00657859 0.0016938) 6755
(0.00984327 0.00639761 0.00288404) 13519
(0.0103282 0.00639644 0.00288397) 13520
(0.0107961 0.00640327 0.00288144) 13521
(0.00961852 0.00580598 0.00188391) 13759
(0.00972775 0.00441399 0.00172928) 14059
(0.0101729 0.00441496 0.00172909) 14060
(0.00975908 0.00420157 0.00185063) 14119
(0.0102079 0.00420215 0.00184964) 14120
(0.0106584 0.00419771 0.00184447) 14121
(0.00983209 0.0036755 0.0034527) 14479
(0.010322 0.00367855 0.00345249) 14480
(0.010819 0.00367418 0.00345343) 14481
(0.00981649 0.00377152 0.00367551) 14539
(0.0102908 0.00377306 0.00367592) 14540
(0.0107793 0.00376987 0.00368011) 14541
(0.00968788 0.00500495 0.00439162) 14839
(0.0101568 0.0050063 0.00438868) 14840
(0.00984786 0.00640161 0.00312595) 15259
(0.0103302 0.00639984 0.00312508) 15260
(0.0108025 0.00640582 0.00312545) 15261
(0.018788 0.00647466 0.00218848) 6097
(0.0199915 0.00653956 0.00226454) 6099
(0.0161695 0.00471162 0.000964625) 11612
(0.0162518 0.00527752 0.000800354) 11912
(0.0175258 0.00519007 0.000773157) 11915
(0.0150505 0.00296825 0.00320593) 31392
(0.0178852 0.00308758 0.00321499) 755
(0.0162999 0.0066258 0.0016868) 2492
(0.0178608 0.00658301 0.00169276) 6755
(0.00981997 0.00639793 0.00288395) 13519
(0.0103053 0.00639642 0.00288402) 13520
(0.0107745 0.00640288 0.00288157) 13521
(0.00959637 0.00580615 0.00188366) 13759
(0.00970588 0.00441388 0.00172904) 14059
(0.0101509 0.00441494 0.0017291) 14060
(0.00973738 0.00420133 0.00185052) 14119
(0.0101859 0.0042021 0.00184969) 14120
(0.0106367 0.00419789 0.00184474) 14121
(0.009809 0.00367508 0.00345279) 14479
(0.0102983 0.00367844 0.00345253) 14480
(0.0107954 0.00367439 0.00345341) 14481
(0.00979399 0.00377123 0.00367569) 14539
(0.0102676 0.00377298 0.00367594) 14540
(0.0107555 0.00377 0.00367998) 14541
(0.00966558 0.00500489 0.00439198) 14839
(0.0101342 0.00500616 0.00438882) 14840
(0.0098248 0.0064019 0.00312606) 15259
(0.0103073 0.00639984 0.00312513) 15260
(0.0107806 0.00640545 0.00312544) 15261
(0.0187129 0.00647306 0.00218339) 6097
(0.0199569 0.00653641 0.00226335) 6099
(0.0161344 0.00471596 0.000963392) 11612
(0.016204 0.00528099 0.000800946) 11912
(0.0175091 0.00519656 0.000777108) 11915
(0.0178171 0.0030864 0.0032124) 755
(0.0162375 0.00662745 0.00168424) 2492
(0.0177861 0.00658561 0.00169228) 6755
(0.00979665 0.00639825 0.00288385) 13519
(0.0102823 0.00639642 0.00288406) 13520
(0.0107527 0.00640251 0.0028817) 13521
(0.00957423 0.00580632 0.00188341) 13759
(0.00968401 0.00441377 0.00172879) 14059
(0.010129 0.00441491 0.0017291) 14060
(0.0105735 0.00441363 0.00172298) 14061
(0.00971569 0.00420108 0.00185041) 14119
(0.0101639 0.00420204 0.00184974) 14120
(0.0106148 0.00419806 0.00184499) 14121
(0.00978592 0.00367465 0.00345287) 14479
(0.0102746 0.00367833 0.00345257) 14480
(0.0107717 0.00367458 0.00345338) 14481
(0.00977152 0.00377094 0.00367588) 14539
(0.0102445 0.00377289 0.00367596) 14540
(0.0107317 0.00377012 0.00367986) 14541
(0.00964328 0.00500483 0.00439235) 14839
(0.0101115 0.00500602 0.00438896) 14840
(0.00980174 0.00640221 0.00312616) 15259
(0.0102843 0.00639986 0.00312517) 15260
(0.0107587 0.0064051 0.00312543) 15261
(0.0186329 0.00647155 0.00217807) 13417
(0.0199219 0.00653327 0.00226194) 6099
(0.0160989 0.00472023 0.00096213) 11612
(0.0161557 0.00528452 0.000801485) 11912
(0.0174905 0.00520269 0.000780844) 11914
(0.0177473 0.00308501 0.00320984) 755
(0.0177215 0.00658767 0.00169245) 6755
(0.0097733 0.00639859 0.00288375) 13519
(0.0102593 0.00639644 0.00288409) 13520
(0.0107309 0.00640216 0.00288182) 13521
(0.00955207 0.0058065 0.00188315) 13759
(0.00966215 0.00441365 0.00172853) 14059
(0.010107 0.00441488 0.00172908) 14060
(0.0105519 0.00441372 0.00172327) 14061
(0.009694 0.00420082 0.00185028) 14119
(0.0101419 0.00420197 0.00184977) 14120
(0.010593 0.00419821 0.00184523) 14121
(0.00976286 0.00367422 0.00345295) 14479
(0.0102509 0.00367819 0.00345262) 14480
(0.0107479 0.00367476 0.00345336) 14481
(0.00974906 0.00377064 0.00367607) 14539