/*--------------------------------*- C++ -*----------------------------------*\
| =========                 |                                                 |
| \\      /  F ield         | OpenFOAM: The Open Source CFD Toolbox           |
|  \\    /   O peration     | Version:  2.1.1                                 |
|   \\  /    A nd           | Web:      www.OpenFOAM.org                      |
|    \\/     M anipulation  |                                                 |
\*---------------------------------------------------------------------------*/
FoamFile
{
    version     2.0;
    format      ascii;
    class       scalarField;
    location    "0.00105";
    object      T;
}
// * * * * * * * * * * * * * * * * * * * * * * * * * * * * * * * * * * * * * //


45192
(
561.905
420.22
413.888
407.548
401.323
395.198
389.157
383.207
377.466
371.989
366.824
362.181
358.226
354.95
352.335
350.416
349.058
463.764
455.8
447.77
439.665
431.502
423.283
414.958
406.597
398.187
389.8
381.364
372.961
364.629
356.454
348.442
340.714
333.3
326.338
518.533
319.867
510.418
532.98
314.061
502.161
524.498
308.789
493.687
515.829
304.025
484.999
506.67
299.722
476.013
496.632
295.518
466.843
485.972
457.488
475.005
447.981
463.875
3.91153e+180
454.461
4.72822e+222
447.794
418.643
441.866
408.655
398.704
388.629
378.517
577.526
368.406
571.576
358.338
565.349
348.352
3.91153e+180
338.506
564.379
551.994
328.939
556.313
544.807
319.599
547.985
537.208
310.51
539.437
529.117
301.817
530.69
520.524
293.528
521.722
511.374
285.601
512.523
501.666
278.215
503.09
490.922
3.91153e+180
493.437
478.775
264.303
483.563
465.47
257.227
3.91153e+180
450.988
463.036
434.979
452.299
417.201
441.368
575.896
399.332
1.19354e+190
575.594
380.7
603.564
418.773
2.06697e+161
361.654
597.444
407.191
574.811
341.179
2.06685e+161
395.503
2.06697e+161
584.77
2.06697e+161
573.671
578.231
372.07
572.908
571.55
360.444
604.608
572.003
564.667
348.935
596.828
570.948
6.75387e+87
337.455
2.06697e+161
569.668
550.365
326.102
580.583
568.143
542.821
314.886
572.119
6.75387e+87
9.09155e+223
2.06697e+161
563.409
564.492
526.88
293.469
554.385
518.427
283.27
545.066
509.745
273.48
535.502
500.861
263.84
525.681
620.835
491.678
254.833
515.612
6.75387e+87
482.04
246.026
505.254
621.646
471.709
237.015
4.2695e+257
542.229
621.799
460.401
647.78
483.634
2.06697e+161
621.802
9.09155e+223
4.2695e+257
472.323
538.277
621.659
434.332
633.39
460.697
536.118
621.207
419.23
625.971
448.649
533.835
620.389
401.038
618.413
4.2695e+257
531.429
9.09155e+223
9.09155e+223
610.746
423.469
528.901
617.969
356.868
602.881
403.979
410.435
651.889
526.177
616.445
334.274
594.941
547.298
403.24
445.484
397.136
9.09155e+223
523.302
614.719
313.129
586.869
545.129
402.455
444.223
383.691
637.557
520.254
612.813
578.617
542.888
410.518
401.622
442.884
370.244
630.009
517.04
610.778
607.059
570.174
540.569
409.28
400.734
393.541
441.451
356.89
2.06697e+161
513.645
9.09155e+223
608.412
561.56
538.225
408.031
399.774
392.804
439.893
438.064
343.743
614.17
9.09155e+223
606.19
609.259
552.825
536.08
406.76
416.304
398.673
391.98
438.255
437.101
330.751
605.848
506.197
9.09155e+223
609.799
543.936
534.146
405.431
414.231
397.42
391.078
436.648
436.188
2.06697e+161
597.279
9.09155e+223
600.617
610.069
534.838
532.234
404.184
412.253
396.272
390.28
435.113
435.304
2.06697e+161
588.458
9.09155e+223
9.09155e+223
525.482
530.37
403.051
410.377
395.266
389.586
433.616
434.43
2.06697e+161
579.386
492.889
609.689
515.84
528.578
402.013
408.593
394.317
388.952
432.14
433.557
280.96
570.085
487.681
609.039
506.069
526.752
401.053
406.889
508.138
393.404
388.364
384.041
430.676
432.683
410.633
269.373
9.09155e+223
482.13
608.101
496.07
715.174
524.82
400.162
405.28
505.714
392.522
387.819
383.334
429.222
431.804
420.979
409.57
416.916
258.275
9.09155e+223
476.289
547.613
606.863
485.931
707.813
522.803
399.351
403.767
433.235
503.313
391.672
387.313
382.663
427.775
430.92
427.283
419.593
436.908
408.554
415.27
247.274
540.587
470.186
545.223
605.325
475.717
700.267
520.635
398.615
402.341
430.385
500.927
536.518
390.85
386.843
382.019
426.331
430.021
426.603
418.205
435.554
407.579
413.682
237.045
530.089
9.09155e+223
542.587
603.471
465.411
692.433
518.351
397.948
400.993
427.657
498.549
534.15
390.052
386.394
381.396
424.889
429.112
425.928
416.811
434.182
406.641
412.15
227.091
9.09155e+223
539.791
601.303
455.031
684.422
515.945
576.227
397.351
399.731
425.013
496.179
531.774
389.277
385.96
380.791
423.45
428.189
425.255
415.409
432.789
405.741
410.682
216.764
508.17
536.844
598.832
444.419
676.182
513.392
574.78
396.824
398.564
422.445
493.81
529.384
388.522
385.527
380.212
422.01
427.244
424.585
414.001
431.371
404.874
409.276
496.711
9.09155e+223
596.092
433.794
667.767
510.622
572.946
396.355
397.441
419.938
491.442
526.978
387.776
385.085
379.638
420.566
426.276
423.918
412.585
429.925
404.039
407.929
9.09155e+223
530.42
593.136
423.419
659.19
507.684
570.801
395.901
396.338
417.49
555.377
489.073
524.547
387.026
384.613
379.068
419.119
425.284
423.252
411.159
428.447
403.238
406.629
472.684
9.09155e+223
1.49258e+195
412.4
650.47
504.682
568.386
395.435
395.256
415.093
513.827
552.668
486.699
522.085
386.264
384.113
378.495
417.669
424.264
422.578
409.718
426.956
402.47
405.382
425.904
460.052
691.67
523.264
586.35
9.09155e+223
3.94662e+180
9.09155e+223
501.608
565.789
394.959
394.193
412.754
511.459
549.976
484.317
519.591
557.784
385.489
383.585
377.92
416.216
423.206
421.891
408.283
425.467
401.734
404.184
423.462
446.997
685.207
9.09155e+223
9.09155e+223
607.518
387.466
632.662
498.369
563.117
394.472
393.144
410.471
509.063
547.302
481.912
517.073
554.945
384.701
383.016
377.327
414.749
422.097
421.178
406.871
423.984
401.022
403.022
421.093
433.377
678.453
9.09155e+223
577.794
609.969
374.425
623.503
495.047
560.376
393.97
392.104
408.235
506.679
544.652
479.481
514.564
552.147
383.895
382.396
376.715
413.261
420.928
420.43
405.485
422.521
400.322
401.888
418.795
419.253
671.455
511.056
572.94
611.963
360.326
614.134
491.64
557.542
393.451
391.068
406.043
373.996
504.338
542.059
477.022
512.063
549.406
383.062
381.719
376.081
411.744
419.693
419.637
404.127
421.08
399.627
400.774
416.556
404.735
664.17
506.571
567.71
613.518
346.334
604.555
488.3
554.612
392.914
390.028
403.891
373.071
502.034
539.515
474.588
509.579
546.724
382.204
380.984
375.416
410.191
418.375
418.778
402.822
419.658
398.926
399.662
414.36
389.782
656.637
9.09155e+223
554.747
614.609
594.732
485.051
551.599
392.354
388.975
401.776
372.173
499.77
537.025
579.544
472.185
507.129
544.097
381.313
380.179
374.714
408.59
416.951
417.869
401.564
418.251
398.202
398.539
412.211
374.602
9.09155e+223
496.923
556.132
615.217
584.651
548.535
391.768
387.897
399.744
371.301
497.591
534.585
576.716
469.817
504.706
541.524
380.365
379.259
373.949
406.924
415.474
416.955
400.351
416.86
397.438
397.387
410.128
359.383
9.09155e+223
9.09155e+223
549.787
615.315
574.303
545.367
391.145
386.796
397.777
370.456
495.487
532.196
573.942
467.515
502.311
539
379.32
378.241
373.139
405.236
414.047
416.08
399.185
415.484
396.626
396.226
408.109
344.357
9.09155e+223
510.642
486.258
543.103
614.9
563.727
542.121
390.555
385.747
395.897
369.635
493.446
529.853
571.234
465.274
499.94
536.518
378.29
377.307
372.425
403.594
412.659
415.228
398.061
414.123
395.836
395.095
406.159
329.61
623.606
507.229
480.53
536.034
614.103
552.889
538.903
390.013
384.802
394.105
368.848
491.474
527.551
568.594
463.083
497.589
534.082
377.397
376.473
371.799
402.024
411.293
414.386
396.983
412.775
394.024
404.311
315.109
614.662
503.46
474.396
528.464
613.016
541.642
783.999
535.743
389.563
383.945
392.401
368.081
525.29
565.987
460.947
495.257
531.679
376.584
375.688
371.237
400.511
409.937
413.548
395.949
411.442
393.019
402.552
300.845
605.491
499.325
467.764
520.311
611.606
530.168
777.867
532.479
389.19
383.166
390.784
367.333
523.066
563.398
458.867
492.94
529.311
375.835
374.937
370.723
399.044
408.586
412.714
394.961
410.119
392.064
400.877
9.09155e+223
596.1
494.808
460.711
511.668
609.874
518.369
771.367
528.987
388.882
382.453
389.261
366.603
520.869
560.825
456.835
490.641
526.954
375.141
374.21
370.25
397.613
407.24
411.878
394.019
408.799
391.149
399.28
273.421
586.498
489.958
9.09155e+223
574.044
502.547
607.86
506.401
764.571
525.277
600.64
388.637
381.813
387.826
365.89
518.669
558.267
454.844
488.364
524.61
374.503
373.507
369.813
396.218
405.895
411.039
393.11
407.481
390.269
397.755
260.584
576.678
484.838
445.399
571.418
494.222
605.515
494.216
757.426
521.331
600.961
388.466
381.241
386.476
365.191
516.469
555.71
452.899
486.093
522.276
373.921
372.823
369.408
394.851
404.551
410.195
392.231
406.166
389.423
396.289
248.205
566.631
480.048
437.181
568.503
487.637
602.865
481.964
749.934
517.165
600.909
388.366
380.73
385.2
514.262
553.155
450.992
483.82
519.934
373.393
372.152
369.025
393.512
403.207
409.346
391.379
404.85
388.607
394.89
2.06697e+161
556.375
475.859
476.028
428.629
565.307
480.864
599.873
469.597
742.148
512.768
600.531
388.327
380.277
384.001
512.045
550.59
449.127
481.544
517.588
372.916
371.493
368.645
392.196
401.862
408.485
403.531
387.816
393.551
224.736
2.06697e+161
9.09155e+223
475.477
419.786
561.886
596.553
457.467
734.031
508.153
599.878
388.324
379.882
382.884
509.817
548.015
447.302
479.266
515.239
372.482
370.844
368.281
390.903
400.514
407.605
402.205
387.047
392.269
2.06697e+161
534.927
466.661
474.767
410.699
558.262
592.893
445.586
725.586
503.268
598.937
388.326
379.554
381.806
507.571
545.417
445.514
476.984
512.879
372.085
370.195
367.909
389.63
399.16
406.705
400.873
386.299
391.04
523.499
9.09155e+223
473.883
585.93
585.93
585.93
401.407
554.416
588.885
606.911
433.813
716.824
498.114
597.752
379.216
380.756
505.308
542.806
443.763
474.698
510.503
371.719
369.532
367.519
388.384
397.801
405.782
399.535
385.574
389.86
511.675
472.809
586.155
2.06697e+161
586.155
9.09155e+223
549.896
584.537
610.966
422.352
707.808
492.728
596.315
378.866
379.734
503.024
540.218
442.036
472.406
508.102
371.377
368.856
367.105
387.168
396.436
404.829
398.185
384.868
388.726
2.06697e+161
725.749
471.54
586.285
586.285
586.285
546.058
579.871
614.574
411.248
698.464
487.127
594.616
378.502
378.736
500.706
537.657
440.335
470.102
505.682
371.053
368.168
366.662
385.979
395.063
403.841
396.849
384.183
387.632
486.748
9.09155e+223
9.09155e+223
586.302
586.302
586.302
541.525
574.935
617.722
400.66
688.853
481.273
592.643
378.124
377.753
498.392
535.12
438.66
467.781
503.272
370.738
367.466
366.185
384.81
393.675
402.809
395.536
383.51
386.567
2.06697e+161
713.692
468.401
586.177
586.177
586.177
536.772
569.564
620.424
390.592
679.059
475.158
590.391
377.73
376.78
496.107
532.604
437.007
465.443
500.87
370.423
366.744
365.665
383.658
392.27
401.724
394.247
382.84
385.525
460.051
2.06697e+161
9.09155e+223
4.2695e+257
585.896
585.896
531.783
563.793
622.672
379.888
669.045
468.693
588.001
377.32
375.815
493.853
530.155
435.37
463.119
498.478
370.1
365.998
365.095
382.512
390.838
400.577
392.978
382.168
384.499
446.014
9.09155e+223
542.454
464.368
585.458
585.458
585.458
526.549
557.64
624.54
370.985
658.825
461.894
585.498
376.887
374.852
491.631
527.764
460.819
496.106
369.779
365.218
364.473
381.369
389.368
399.357
391.752
381.486
383.474
431.488
9.09155e+223
9.09155e+223
462.016
584.81
584.81
584.81
521.056
551.09
625.955
360.95
648.291
454.811
582.854
376.431
373.884
489.473
525.421
458.541
493.766
369.455
364.404
363.785
380.218
387.854
398.049
390.571
380.78
382.435
2.06697e+161
686.296
9.09155e+223
459.452
9.09155e+223
583.762
583.762
515.284
544.127
626.885
351.615
637.46
447.596
580.044
375.948
372.902
487.393
523.128
456.295
491.451
369.115
363.541
362.994
379.05
386.282
396.722
389.433
380.036
381.367
400.708
678.813
535.019
456.63
582.525
582.525
582.525
593.473
509.207
536.738
627.315
342.745
626.365
440.196
577.055
375.447
371.938
485.374
520.88
454.104
489.163
368.765
362.598
362.144
377.869
384.717
395.432
388.336
379.261
380.311
384.672
671.087
531.794
9.09155e+223
3.94662e+180
9.09155e+223
581.324
585.754
502.832
528.904
627.234
614.966
848.457
432.633
573.91
374.981
371.023
483.408
518.667
451.967
486.903
368.448
361.688
361.368
376.708
383.184
394.166
387.279
378.501
379.283
368.44
9.09155e+223
528.14
579.965
579.965
579.965
577.577
496.144
520.627
626.645
603.218
844.13
424.94
570.715
374.552
370.195
481.501
516.49
449.876
484.666
368.162
360.884
360.658
375.567
381.707
392.913
386.261
377.755
378.302
2.06697e+161
654.786
9.09155e+223
578.422
578.422
578.422
588.194
588.194
588.194
569.009
489.18
511.907
625.564
591.091
839.443
417.43
567.471
374.197
369.449
479.65
514.341
447.834
482.443
367.907
360.153
359.986
374.448
380.272
391.664
385.281
377.039
377.382
336.042
646.137
2.06697e+161
576.668
9.09155e+223
576.668
589.012
589.012
589.012
560.15
481.711
502.688
624.139
578.652
834.403
410.368
564.013
373.907
368.775
477.858
512.228
445.841
480.239
367.716
359.477
359.338
373.384
378.871
390.417
384.34
376.373
376.507
320.182
9.09155e+223
514.283
574.632
574.632
574.632
589.701
589.701
589.701
551.045
473.68
492.9
622.494
565.844
829.009
403.334
560.283
622.486
373.667
368.167
476.124
510.115
443.892
478.052
367.576
358.841
358.706
372.367
377.502
389.173
383.44
375.745
375.666
304.545
627.91
508.586
590.037
590.037
590.037
541.772
465.16
618.769
482.547
620.62
552.591
823.278
556.313
624.484
373.48
367.621
474.447
508
441.987
475.886
367.483
358.248
358.09
371.391
376.161
387.927
382.567
375.145
374.854
427.147
2.06697e+161
502.315
9.09155e+223
590.061
590.061
590.061
532.414
456.194
616.683
471.643
618.486
539.017
817.175
552.065
626.084
373.355
367.131
472.813
505.876
440.129
473.716
367.433
357.701
357.488
370.446
374.846
386.682
381.72
374.563
374.068
274.059
608.651
495.404
486.605
589.849
589.849
589.849
522.966
446.789
614.326
460.336
616.084
526.142
810.752
547.519
627.298
373.286
366.691
471.197
503.742
438.313
471.545
367.417
357.194
356.896
369.527
373.554
385.435
380.898
373.998
373.302
259.511
9.09155e+223
487.897
485.435
589.482
589.482
589.482
513.369
436.972
611.666
450.428
613.384
566.194
803.991
542.689
628.141
373.267
366.297
469.596
501.594
436.536
469.375
367.428
356.728
356.308
441.738
441.738
441.738
368.629
372.284
384.187
380.1
373.444
372.557
533.18
516.85
245.697
9.09155e+223
480.29
484.107
588.91
588.91
588.91
503.526
426.762
608.687
440.977
610.388
496.686
796.917
537.542
628.696
373.281
365.951
468.011
499.426
434.797
467.197
367.455
356.297
355.732
441.846
441.846
441.846
367.752
371.032
382.932
379.324
372.9
371.831
533.44
518.42
2.06697e+161
578.265
9.09155e+223
482.612
588.301
588.301
588.301
493.521
416.182
605.446
431.316
607.091
482.541
789.456
532.064
629.003
373.301
365.65
466.428
497.245
433.096
465.016
367.488
355.898
355.151
441.942
441.942
441.942
366.896
369.801
381.671
416.682
378.57
372.368
371.125
435.963
547.182
533.648
520.405
2.06697e+161
567.716
464.834
480.934
587.567
587.567
587.567
483.529
405.262
601.953
421.495
603.495
468.628
781.667
526.245
629.091
373.335
365.339
392.463
464.86
495.047
431.431
462.825
455.277
455.277
455.277
367.524
355.52
354.558
442.017
442.017
442.017
366.058
368.594
380.404
417.076
377.836
371.845
370.436
438.62
550.128
534.071
522.834
2.06697e+161
556.891
764.503
456.536
479.056
586.679
586.679
586.679
473.7
394.105
598.175
411.637
599.557
620.464
454.944
773.483
520.055
628.967
373.378
365.017
542.542
392.608
487.047
463.299
492.825
429.798
460.624
474.624
455.622
455.622
455.622
367.573
355.156
353.957
442.082
442.082
442.082
365.256
367.41
379.13
417.436
377.119
371.343
369.762
441.61
553.32
535.122
525.683
706.566
545.805
759.361
9.09155e+223
476.956
585.608
585.608
585.608
382.939
594.129
401.683
595.309
624.598
441.467
765.001
513.509
628.619
373.407
364.685
543.068
392.747
487.086
461.74
490.605
428.193
458.409
475.414
445.912
455.991
455.991
455.991
367.628
354.793
353.346
442.167
442.167
442.167
401.929
364.491
366.244
377.84
417.775
376.418
601.938
370.863
369.101
444.643
556.477
1074.48
964.1
536.581
529.354
704.042
534.377
753.917
438.946
474.614
584.339
584.339
584.339
371.742
589.825
590.69
628.282
428.192
756.181
506.578
627.903
373.402
364.333
543.49
392.872
487.092
460.174
488.402
426.61
456.173
476.129
446.071
456.388
456.388
456.388
367.678
354.434
352.719
442.262
442.262
442.262
401.911
363.758
365.091
376.523
418.095
375.751
600.985
370.395
368.438
812.415
447.841
560.145
922.371
1073.45
962.655
538.579
535.337
702.437
965.573
522.435
748.134
429.69
581.911
472.038
582.843
582.843
582.843
360.334
585.251
585.714
631.522
415.649
747.083
499.221
626.749
373.36
363.959
543.891
392.981
487.091
458.629
486.225
425.052
453.935
476.784
446.218
456.798
456.798
456.798
367.714
354.077
352.077
442.378
442.378
442.378
401.932
375.448
363.056
363.951
375.188
418.405
375.12
600.044
369.93
367.77
862.124
861.349
810.129
451.715
565.383
921.435
1066.42
961.295
540.5
542.974
702.75
1007.07
898.724
964.804
509.986
742.041
580.611
469.227
581.128
581.128
581.128
348.525
580.415
580.383
634.367
403.648
737.764
491.479
625.186
373.284
363.568
544.295
393.082
487.114
457.136
484.08
495.96
495.96
495.96
423.515
451.722
477.394
446.374
457.213
457.213
457.213
367.724
353.722
351.414
442.53
442.53
442.53
402
375.155
362.381
362.817
373.826
418.715
374.528
599.104
369.467
367.095
839.178
860.432
807.521
923.708
1052.25
960.237
981.558
991.66
545.15
706.589
995.513
1140.73
965.629
497.081
735.625
579.04
2.06697e+161
579.151
579.151
579.151
650.58
336.345
575.265
574.652
636.875
391.849
728.171
483.328
623.263
373.17
363.154
544.654
393.18
487.142
455.689
481.968
496.734
496.734
496.734
422.007
449.537
477.949
446.547
457.637
457.637
457.637
367.695
353.366
350.725
442.715
442.715
442.715
402.11
374.896
361.724
361.684
372.43
419.011
373.971
598.173
368.996
366.406
813.455
860.279
805.622
1035.76
959.105
1008.24
971.956
548.173
714.267
980.536
1055.91
955.437
483.596
728.945
577.187
462.862
576.906
576.906
576.906
643.823
569.808
568.502
639.028
380.647
718.303
474.71
621.054
373.017
362.713
544.981
393.286
487.188
454.289
479.927
497.511
497.511
497.511
420.55
447.372
478.449
446.732
458.06
458.06
458.06
367.621
353.002
350.001
442.935
442.935
442.935
402.263
374.665
361.076
360.543
370.991
419.296
399.112
373.453
597.251
368.506
365.688
817.949
858.26
804.404
1015.7
959.447
1033.86
967.144
551.321
968.305
962.808
469.532
9.09155e+223
575.03
459.298
530.88
574.384
574.384
574.384
597.531
597.531
597.531
636.407
564.025
494.195
561.919
640.763
369.868
708.045
465.666
618.616
372.829
362.241
545.292
393.403
377.277
487.251
452.936
477.955
498.278
498.278
498.278
419.148
445.236
478.897
463.03
446.94
458.48
458.48
458.48
418.946
367.506
352.62
349.226
443.182
443.182
443.182
402.451
374.448
360.428
359.386
369.527
419.571
399.917
372.986
596.329
367.983
364.929
821.379
857.186
801.312
744.67
992.237
958.323
1054.95
978.815
554.453
677.216
964.213
962.275
454.871
714.873
572.529
455.491
528.182
571.419
571.419
571.419
599.735
599.735
599.735
628.344
557.903
492.629
554.895
642.045
359.01
697.447
904.529
456.322
615.931
372.643
361.768
545.578
393.533
377.309
487.332
451.632
476.045
499.011
499.011
499.011
417.8
443.155
479.321
465.024
447.171
458.92
458.92
458.92
419.137
367.385
352.239
348.417
443.443
443.443
443.443
402.659
374.237
359.78
358.228
368.069
419.874
400.749
372.577
595.382
367.437
364.157
825.27
856.073
800.235
740.773
969.832
956.895
995.301
557.659
570.761
967.182
961.524
439.517
9.09155e+223
569.593
451.432
525.069
567.774
567.774
567.774
601.628
601.628
601.628
619.839
551.435
490.749
547.427
642.889
348.965
686.51
901.359
446.767
613.051
372.454
361.32
545.828
545.291
393.68
377.341
487.434
450.413
474.191
499.716
499.716
499.716
416.509
441.117
479.728
467.007
447.411
459.386
459.386
459.386
419.346
367.259
351.886
347.631
443.717
443.717
443.717
402.884
374.052
359.148
357.091
366.629
420.214
401.64
372.222
594.394
366.893
363.397
829.746
855.003
799.472
738.057
949.481
955.636
865.652
1034.48
558.43
566.17
963.022
960.665
423.471
9.09155e+223
566.18
447.113
521.528
563.645
563.645
563.645
603.187
603.187
603.187
610.685
544.624
488.469
539.504
643.3
339.05
675.28
897.899
436.969
609.963
372.261
360.896
546.041
546.68
393.839
377.374
487.562
505.223
449.277
472.386
500.383
500.383
500.383
415.286
439.122
480.12
468.973
447.661
459.879
459.879
459.879
419.573
367.122
351.556
346.92
444.002
444.002
444.002
403.122
373.887
358.528
355.968
365.232
420.59
402.575
371.922
593.366
366.352
362.645
830.607
853.877
798.688
736.967
933.181
955.419
861.37
1014.94
915.484
920.036
1001.03
1057.4
560.003
567.689
961.967
959.218
9.09155e+223
692.353
562.272
442.464
517.536
559.383
559.383
559.383
604.399
604.399
604.399
600.836
537.471
485.839
531.14
643.285
328.887
663.717
894.148
426.898
606.65
372.061
360.531
546.211
548.075
394.014
377.409
487.715
505.199
448.222
470.632
501.005
501.005
501.005
414.146
437.177
480.494
470.917
447.921
460.403
460.403
460.403
419.822
389.487
366.975
351.242
346.271
444.299
444.299
444.299
403.37
373.743
357.918
354.862
363.869
421.007
403.558
371.667
592.309
365.814
361.916
830.933
852.431
798.611
736.499
920.069
956.308
858.388
1022.78
915.741
910.469
990.736
991.04
1074.58
886.595
563.051
567.917
962.982
960.958
939.24
389.551
684.481
557.852
437.463
513.109
554.941
554.941
554.941
605.275
605.275
605.275
616.026
1962.57
529.964
482.84
522.332
642.848
651.79
890.073
416.822
603.076
638.258
371.881
360.22
546.33
549.46
394.204
377.45
487.901
505.192
447.257
468.935
501.585
501.585
501.585
469.502
413.082
435.276
480.852
472.835
448.166
434.117
460.954
460.954
460.954
420.089
389.507
366.816
350.985
345.67
444.61
444.61
444.61
403.631
373.622
357.324
353.804
362.533
421.467
404.598
452.489
371.465
591.229
399.463
365.28
361.228
832.955
850.46
797.793
736.221
909.857
956.818
855.648
1032.76
918.761
902.793
986.943
961.91
1094.96
884.967
566.931
569.037
962.071
961.999
895.555
372.167
676.441
552.905
432.112
508.269
550.189
550.189
550.189
605.798
605.798
605.798
608.084
579.15
522.134
479.45
513.081
641.999
624.702
639.615
885.688
406.862
599.209
642.642
371.721
359.954
546.401
550.827
394.414
377.497
488.109
505.208
448.411
446.38
467.287
502.127
502.127
502.127
471.022
412.097
433.42
481.192
474.725
448.391
434.613
461.525
461.525
461.525
420.375
389.528
366.666
350.766
345.107
444.938
444.938
444.938
403.905
373.526
356.75
352.792
361.22
421.979
405.708
453.169
371.315
590.114
399.173
364.776
360.57
836.934
847.314
796.938
735.12
902.946
957.327
853.165
920.985
895.692
997.681
938.55
1126.04
900.945
575.15
571.084
958.818
975.593
868.853
354.777
9.09155e+223
547.416
426.418
508.519
503.017
545.102
545.102
6.22655e+228
605.922
605.922
605.922
599.609
567.389
513.589
656.525
503.31
640.874
625.99
626.948
880.977
397.052
595.044
646.335
371.579
359.736
546.447
552.157
394.655
377.558
488.337
505.246
449.06
445.592
465.694
502.632
502.632
502.632
472.546
411.185
431.609
481.506
476.581
448.597
435.102
462.12
462.12
462.12
420.68
389.553
366.556
350.573
344.584
445.283
445.283
445.283
404.191
373.456
356.227
351.82
359.93
422.557
406.791
453.874
371.219
588.987
398.901
364.303
359.933
843.627
838.846
796.417
733.603
898.811
958.734
850.886
924.309
890.806
1016.7
912.868
928.172
584.063
571.804
946.102
1101.86
872.001
9.09155e+223
659.915
541.386
420.398
507.331
497.359
539.61
539.61
539.61
605.662
605.662
605.662
590.633
555.072
504.667
654.639
492.98
639.54
627.139
613.735
875.98
387.234
590.582
649.383
371.449
359.568
546.45
553.452
394.931
377.639
488.579
505.308
449.829
444.885
464.115
474.074
416.173
410.345
429.845
481.797
478.395
435.581
462.755
462.755
462.755
421.01
389.62
366.48
350.414
344.099
445.648
445.648
445.648
404.488
373.427
355.752
350.884
358.665
423.087
407.857
454.602
371.163
587.852
398.651
363.849
359.316
1091.45
814.465
795.042
732.777
894.349
959.57
848.839
928.127
886.928
1035.35
880.71
575.327
922.111
1184.44
872.706
320.709
651.451
9.09155e+223
414.077
506.044
491.302
533.705
533.705
533.705
605.1
605.1
605.1
581.237
542.226
495.291
652.52
482.129
637.979
628.144
599.934
870.648
377.566
585.811
651.991
371.33
359.443
546.41
554.715
395.247
377.74
488.818
505.396
450.737
444.235
462.545
475.591
416.852
409.575
428.129
482.06
480.164
436.05
463.475
463.475
463.475
421.402
389.717
366.423
350.293
343.647
446.028
446.028
446.028
404.791
373.433
355.312
349.978
357.42
423.561
408.82
455.347
371.138
586.714
398.428
363.4
358.716
1093.29
782.64
794.23
732.015
890.319
961.034
846.809
933.033
883.831
854.153
1065.73
870.783
577.88
903.616
1169.71
872.578
2.06697e+161
642.786
9.09155e+223
407.481
504.646
484.854
527.392
527.392
527.392
604.306
604.306
604.306
571.479
528.908
485.481
650.156
470.791
636.169
628.991
585.461
865.021
367.897
580.736
654.187
371.203
359.356
546.324
555.944
395.595
377.865
489.065
505.505
451.751
443.649
460.986
477.092
447.2
417.615
408.873
426.444
482.293
481.879
436.524
464.259
464.259
464.259
421.833
389.83
366.37
350.203
343.224
446.407
446.407
446.407
405.08
373.449
354.897
349.096
356.195
423.978
409.708
456.095
371.141
585.568
398.276
383.982
362.95
358.127
1094.52
760.182
793.402
731.259
887.411
960.91
844.652
936.001
880.517
852.283
879.124
582.923
892.507
998.156
872.114
288.333
633.886
519.87
400.651
503.123
478.024
520.697
520.697
520.697
603.34
603.34
603.34
561.41
515.165
475.249
647.52
459.145
634.077
629.565
570.031
859.085
358.036
575.354
655.99
371.055
359.298
546.2
557.136
395.97
378.011
366.349
489.326
505.628
482.492
452.871
443.13
459.435
478.577
449.08
418.463
408.238
424.789
482.493
483.532
437.002
465.094
465.094
465.094
422.29
389.953
366.317
350.132
342.833
446.776
446.776
446.776
405.352
373.469
354.499
348.237
354.986
424.345
410.529
456.833
371.168
497.53
398.166
383.719
362.495
357.547
1095.75
753.524
792.602
730.544
886.689
957.104
842.619
937.131
879.69
852.739
889.604
967.77
810.892
589.605
884.694
928.176
870.842
272.896
624.755
9.09155e+223
501.465
470.831
513.335
513.335
513.335
602.877
602.096
602.096
551.062
501.065
464.617
644.612
448.34
631.683
629.835
554.167
852.86
569.655
657.448
370.876
359.248
546.034
558.301
396.376
378.178
366.521
489.573
505.773
485.107
454.131
442.663
457.893
480.048
451.036
419.398
407.673
423.16
482.657
485.126
470.648
437.484
465.969
465.969
465.969
422.767
390.088
366.266
350.073
342.469
447.127
447.127
447.127
405.609
373.495
354.118
347.403
353.791
424.665
411.292
393.997
457.55
385.926
371.217
498.19
398.065
383.456
362.039
356.977
1081.06
755.292
791.713
729.929
887.122
948.655
840.846
945.665
879.699
851.766
902.829
981.407
804.427
597.892
878.535
908.77
868.883
258.136
615.41
502.358
499.653
463.299
505.103
505.103
505.103
600.574
600.574
600.574
540.418
486.646
453.608
641.439
437.584
628.968
629.807
537.939
846.327
563.647
658.624
370.687
359.197
545.815
559.436
396.803
378.366
366.698
489.826
505.935
487.86
455.534
442.245
456.359
481.507
453.075
420.437
407.181
421.557
482.783
486.671
473.981
437.97
466.87
466.87
466.87
423.263
390.239
366.212
350.03
342.118
447.461
447.461
447.461
405.855
373.53
353.755
346.592
352.613
424.937
411.999
395.121
458.232
386.509
371.285
498.789
397.973
383.197
371.726
361.581
356.416
1007.65
1052.31
762.227
790.556
728.881
889.037
937.676
839.349
955.357
881.338
850.798
914.052
1008.63
799.946
604.446
874.308
883.01
863.218
2.06697e+161
605.787
3.94662e+180
493.007
497.676
496.154
496.154
496.154
598.977
598.977
598.977
472.046
442.249
638.036
426.679
625.921
629.536
521.446
839.44
557.296
659.579
381.874
370.502
359.129
560.538
397.247
378.569
366.881
355.973
490.09
506.114
490.763
457.067
441.874
454.826
482.954
455.222
421.592
406.757
419.98
482.876
488.168
477.32
438.46
423.776
390.408
366.176
350.004
341.776
447.777
447.777
447.777
406.096
373.579
353.411
345.818
351.45
425.164
412.672
396.264
458.87
428.267
387.099
371.37
499.344
382.944
371.366
361.131
355.869
1009.98
1040.18
767.186
789.741
726.935
891.521
925.469
838.173
964.154
882.391
847.505
1030.75
796.318
612.391
871.392
881.008
862.853
231.238
595.855
791.5
483.236
617.549
495.527
487.014
487.014
487.014
597.3
597.3
597.3
457.419
430.612
634.45
415.652
622.516
632.098
629.03
504.973
832.218
550.649
660.174
381.605
370.321
359.035
561.602
560.126
397.708
378.787
367.067
356.101
506.312
493.813
458.695
441.547
453.288
484.412
457.481
422.862
406.4
418.428
489.619
480.666
438.954
424.311
390.621
366.168
349.989
341.441
448.08
448.08
448.08
406.331
373.644
353.109
345.082
350.307
425.377
413.332
397.423
459.453
429.065
387.694
371.469
499.853
382.702
371.02
360.7
355.338
1004.8
983.595
771.134
788.787
725.204
913.486
837.248
972.38
884.616
844.506
946.5
1048.8
817.656
793.619
868.728
880.418
859.212
218.387
9.09155e+223
786.62
473.113
617.03
493.193
595.446
595.446
595.446
442.893
418.827
630.684
404.578
618.754
636.543
628.28
488.594
824.672
543.663
660.258
381.367
370.135
358.909
562.625
562.157
379.02
367.257
356.229
506.541
523.779
496.96
460.405
441.26
451.76
485.898
459.856
424.244
406.103
416.895
491.024
484.012
439.453
424.896
390.878
366.185
349.974
341.11
406.597
373.759
352.856
344.383
349.178
425.582
413.978
398.602
459.979
429.837
388.297
371.596
500.317
382.489
370.7
360.285
354.814
991.733
776.54
786.857
723.479
901.705
836.47
979.756
886.813
842.172
981.079
914.477
1064.37
811.432
791.479
880.314
858.164
2.06697e+161
781.369
9.09155e+223
616.33
490.67
593.394
593.394
593.394
428.612
406.936
626.724
393.506
614.62
640.6
627.259
472.523
816.809
536.35
659.812
381.164
369.926
358.751
563.601
564.268
379.264
367.441
356.361
506.801
524.249
500.179
462.228
441.014
450.277
487.409
462.345
425.736
405.864
415.381
492.385
487.364
439.956
425.529
391.175
366.222
349.942
340.781
406.906
373.928
352.652
343.719
348.058
425.785
414.614
399.8
460.452
430.598
388.921
371.753
500.73
382.321
370.405
359.885
354.293
977.313
783.809
785.015
721.849
890.849
835.911
987.327
890.035
835.925