/*--------------------------------*- C++ -*----------------------------------*\
| =========                 |                                                 |
| \\      /  F ield         | OpenFOAM: The Open Source CFD Toolbox           |
|  \\    /   O peration     | Version:  2.1.1                                 |
|   \\  /    A nd           | Web:      www.OpenFOAM.org                      |
|    \\/     M anipulation  |                                                 |
\*---------------------------------------------------------------------------*/
FoamFile
{
    version     2.0;
    format      ascii;
    class       vectorField;
    location    "0.00105";
    object      U;
}
// * * * * * * * * * * * * * * * * * * * * * * * * * * * * * * * * * * * * * //


45192
(
(-0.464815 -0.0158266 0.0156735)
(19.1534 -0.739047 -0.63735)
(19.0643 -0.738709 -0.632899)
(18.9639 -0.7375 -0.627841)
(18.8578 -0.736773 -0.622709)
(18.7441 -0.737137 -0.617767)
(18.6219 -0.736858 -0.612523)
(18.4784 -0.737481 -0.608195)
(18.3237 -0.737074 -0.603624)
(18.1555 -0.735128 -0.598597)
(17.9731 -0.732291 -0.593391)
(17.7845 -0.730148 -0.588711)
(17.5921 -0.726975 -0.583582)
(17.3962 -0.719309 -0.576105)
(17.2019 -0.707005 -0.565294)
(17.0149 -0.691026 -0.55175)
(16.839 -0.675543 -0.537779)
(19.5322 -0.767473 -0.683481)
(19.4702 -0.773241 -0.686679)
(19.404 -0.778742 -0.689355)
(19.3346 -0.7846 -0.691462)
(19.2609 -0.791077 -0.693138)
(19.1884 -0.795017 -0.69251)
(19.0955 -0.80141 -0.693001)
(18.9919 -0.807958 -0.693443)
(18.8767 -0.813677 -0.693284)
(18.7538 -0.818127 -0.692535)
(18.6165 -0.821392 -0.691319)
(18.4694 -0.824562 -0.689945)
(18.3106 -0.82887 -0.6888)
(18.1449 -0.833065 -0.687564)
(17.9727 -0.834102 -0.685363)
(17.7966 -0.831473 -0.681893)
(17.6121 -0.824906 -0.675813)
(17.4256 -0.81619 -0.667713)
(19.8166 -0.749758 -0.66369)
(17.2333 -0.809073 -0.659804)
(19.7774 -0.759084 -0.672359)
(8.71617 -0.425103 0.434763)
(17.0422 -0.799163 -0.651024)
(19.7386 -0.766929 -0.679782)
(8.51415 -0.432984 0.436278)
(16.8489 -0.784418 -0.638306)
(19.7043 -0.770189 -0.68451)
(8.30277 -0.440425 0.438206)
(16.6604 -0.76418 -0.621354)
(19.6577 -0.776858 -0.690613)
(8.06898 -0.448733 0.441155)
(16.4802 -0.741201 -0.602091)
(19.5942 -0.788336 -0.698589)
(7.80684 -0.458498 0.445323)
(16.2891 -0.723103 -0.585785)
(19.526 -0.799567 -0.706103)
(7.51135 -0.470152 0.45091)
(19.4522 -0.810593 -0.713184)
(7.18088 -0.484066 0.457995)
(19.3726 -0.821444 -0.719994)
(6.8112 -0.501322 0.46685)
(19.2865 -0.831847 -0.726406)
(6.40466 -0.52251 0.477603)
(19.1927 -0.842082 -0.732462)
(5.96518 -0.548194 0.490411)
(19.0906 -0.852974 -0.738137)
(5.51328 -0.577294 0.504451)
(18.9792 -0.865019 -0.743547)
(18.864 -0.876117 -0.74749)
(18.7288 -0.888217 -0.751742)
(18.5804 -0.899479 -0.755617)
(10.2055 -0.385625 0.452453)
(18.4202 -0.908496 -0.759313)
(10.0773 -0.391393 0.448626)
(18.2522 -0.912904 -0.762269)
(9.9431 -0.397503 0.445405)
(18.0749 -0.914292 -0.763048)
(9.79824 -0.404333 0.442955)
(17.8921 -0.91445 -0.761279)
(20.0178 -0.702356 -0.595845)
(9.64665 -0.411667 0.440914)
(17.7075 -0.914304 -0.761959)
(19.9895 -0.715978 -0.612362)
(9.48485 -0.419601 0.439426)
(17.517 -0.909437 -0.758829)
(19.9566 -0.729562 -0.628253)
(9.315 -0.427853 0.438436)
(17.3176 -0.900248 -0.751886)
(19.9193 -0.743008 -0.643409)
(9.13687 -0.436407 0.437972)
(17.112 -0.886815 -0.740508)
(19.8772 -0.756041 -0.65766)
(8.95003 -0.444925 0.437943)
(16.9005 -0.873589 -0.726798)
(19.8304 -0.768738 -0.671145)
(8.7508 -0.453682 0.438315)
(16.6771 -0.862688 -0.716981)
(19.7797 -0.781369 -0.683773)
(8.54225 -0.46212 0.438943)
(16.4597 -0.843889 -0.700617)
(19.7253 -0.794098 -0.695517)
(8.3237 -0.470031 0.439914)
(16.2399 -0.817649 -0.678656)
(19.6675 -0.80682 -0.706331)
(8.08084 -0.478852 0.442068)
(16.0205 -0.787669 -0.653936)
(19.6068 -0.819187 -0.716104)
(7.80629 -0.489303 0.445625)
(15.7732 -0.764676 -0.633918)
(19.5486 -0.827005 -0.723115)
(7.49701 -0.501758 0.450572)
(19.47 -0.840558 -0.732632)
(7.1495 -0.517056 0.457413)
(19.3796 -0.855906 -0.742683)
(6.75657 -0.536401 0.466238)
(19.2809 -0.871044 -0.752356)
(6.19434 -0.520748 -0.352057)
(6.32797 -0.559557 0.476979)
(19.1724 -0.885914 -0.761779)
(6.13993 -0.511923 -0.356271)
(5.86732 -0.587471 0.489947)
(10.9829 -0.37792 0.487122)
(19.0523 -0.901046 -0.771319)
(6.08259 -0.503364 -0.360664)
(5.39867 -0.618783 0.503988)
(10.871 -0.38211 0.481472)
(18.9214 -0.915745 -0.780559)
(6.02288 -0.495023 -0.365152)
(4.94608 -0.65264 0.518461)
(10.7545 -0.386725 0.47601)
(18.7788 -0.931503 -0.789537)
(5.96125 -0.486886 -0.369706)
(10.6324 -0.391843 0.47078)
(18.6233 -0.948249 -0.79804)
(5.89773 -0.478984 -0.374319)
(10.5037 -0.39747 0.465836)
(18.4619 -0.963052 -0.805877)
(5.83259 -0.471298 -0.378977)
(10.3686 -0.403499 0.461217)
(18.2909 -0.973252 -0.813299)
(20.0854 -0.66524 -0.502574)
(5.76589 -0.463804 -0.383688)
(10.228 -0.41001 0.456935)
(18.1128 -0.978574 -0.819573)
(20.0761 -0.680027 -0.524168)
(5.69753 -0.45653 -0.388451)
(10.0789 -0.417249 0.4533)
(17.9205 -0.978692 -0.822768)
(20.0638 -0.692571 -0.54402)
(5.62675 -0.449437 -0.393287)
(9.92209 -0.42513 0.450315)
(17.7152 -0.974761 -0.821672)
(20.0513 -0.701696 -0.561916)
(5.55297 -0.442478 -0.398219)
(9.75915 -0.433501 0.447671)
(17.4974 -0.9715 -0.819757)
(20.0404 -0.706451 -0.577901)
(5.47675 -0.435566 -0.403244)
(9.5866 -0.44256 0.445504)
(17.2799 -0.966058 -0.81857)
(20.0211 -0.714014 -0.594411)
(5.39745 -0.428739 -0.408395)
(9.40875 -0.451827 0.44364)
(17.0517 -0.955328 -0.811035)
(19.9886 -0.727641 -0.612694)
(9.2219 -0.461646 0.442142)
(16.8088 -0.939006 -0.79721)
(19.9459 -0.744498 -0.631581)
(9.02861 -0.471374 0.440951)
(16.5571 -0.920575 -0.778694)
(19.8972 -0.760961 -0.649485)
(8.82522 -0.480965 0.440003)
(16.278 -0.908412 -0.767676)
(19.8422 -0.777271 -0.666571)
(7.15576 -0.400272 -0.903323)
(8.61255 -0.489989 0.439161)
(16.0088 -0.884392 -0.747615)
(19.7806 -0.79317 -0.682713)
(7.08137 -0.3933 -0.902696)
(8.38822 -0.498349 0.438512)
(15.7335 -0.850181 -0.720556)
(19.7128 -0.808702 -0.698054)
(7.0027 -0.386647 -0.902444)
(8.13441 -0.507912 0.438956)
(15.434 -0.816242 -0.693244)
(19.6398 -0.82408 -0.712355)
(6.68012 -0.578483 -0.364534)
(6.9207 -0.380203 -0.902484)
(7.84798 -0.519047 0.44062)
(11.8718 -0.36828 0.532956)
(19.5604 -0.839997 -0.72587)
(6.62729 -0.568495 -0.368353)
(6.83454 -0.373956 -0.902988)
(7.52245 -0.532547 0.443826)
(11.7632 -0.370917 0.526177)
(19.4765 -0.856107 -0.738319)
(6.57135 -0.5589 -0.372211)
(6.74485 -0.367865 -0.903769)
(7.152 -0.549395 0.449271)
(11.652 -0.373905 0.519527)
(19.3913 -0.870097 -0.748781)
(6.51224 -0.549646 -0.376131)
(6.65162 -0.361911 -0.904825)
(6.73488 -0.570276 0.456683)
(11.5376 -0.377348 0.51303)
(19.291 -0.885822 -0.759876)
(6.45051 -0.540635 -0.380116)
(6.55479 -0.356079 -0.906155)
(6.27334 -0.596485 0.466455)
(11.419 -0.381255 0.506726)
(19.1713 -0.905062 -0.772404)
(6.38609 -0.531897 -0.384174)
(6.45387 -0.350337 -0.907753)
(5.78672 -0.627205 0.47852)
(11.2962 -0.385532 0.500584)
(19.0423 -0.924151 -0.78479)
(6.31921 -0.523412 -0.388307)
(6.34977 -0.344599 -0.909535)
(5.28708 -0.663335 0.492411)
(11.1684 -0.390291 0.49456)
(22.7396 0.0704365 0.0240149)
(18.8986 -0.942878 -0.797)
(20.0914 -0.528019 -0.301928)
(6.25143 -0.515111 -0.392105)
(6.24416 -0.3388 -0.91109)
(4.82446 -0.699999 0.506846)
(11.0354 -0.395465 0.488933)
(11.1105 -0.1157 -0.717294)
(22.7366 0.0706795 0.0241405)
(22.736 0.0579326 -0.0377252)
(18.7408 -0.961259 -0.809281)
(20.0966 -0.549724 -0.332565)
(6.18203 -0.506896 -0.396005)
(6.13503 -0.332894 -0.912878)
(4.45448 -0.731601 0.517911)
(10.898 -0.400966 0.483305)
(10.8045 -0.0963521 -0.733788)
(22.7336 0.0708617 0.0243011)
(22.7333 0.0579912 -0.0378306)
(18.5674 -0.980144 -0.821555)
(20.0989 -0.57155 -0.363263)
(6.11075 -0.498866 -0.399984)
(6.02293 -0.326895 -0.914853)
(10.7537 -0.40707 0.477833)
(10.466 -0.0714361 -0.750327)
(22.7608 -0.0815392 0.0478921)
(22.7306 0.0709837 0.0244968)
(22.7306 0.0580169 -0.0378625)
(18.3868 -0.997337 -0.833064)
(20.0985 -0.592819 -0.393266)
(6.03819 -0.490952 -0.404056)
(5.90843 -0.320746 -0.916977)
(8.26378 -0.485394 -0.949038)
(10.6055 -0.413785 0.472456)
(10.0914 -0.039872 -0.766761)
(22.7581 -0.0819641 0.048173)
(22.7277 0.071046 0.0247288)
(22.7841 0.0629391 0.022225)
(22.7279 0.0580049 -0.0378299)
(18.2009 -1.01209 -0.843945)
(20.0941 -0.613786 -0.422796)
(5.96427 -0.483155 -0.408218)
(5.79107 -0.314443 -0.919277)
(8.23645 -0.472953 -0.942692)
(10.452 -0.421106 0.467261)
(9.6855 -0.00102828 -0.782442)
(22.7554 -0.0823527 0.0484597)
(22.7247 0.0710491 0.0249991)
(22.7815 0.0634213 0.0224067)
(22.7252 0.0579508 -0.0377429)
(22.7768 0.052614 -0.0304808)
(18.0065 -1.02122 -0.854323)
(20.085 -0.634233 -0.451548)
(5.88897 -0.47544 -0.412485)
(5.67123 -0.307922 -0.921719)
(8.19599 -0.462196 -0.93782)
(10.2904 -0.429111 0.462676)
(9.38585 0.012051 -0.794262)
(22.7528 -0.0827038 0.0487539)
(22.8003 -0.0688723 0.0428686)
(22.7219 0.0709873 0.0253212)
(22.7788 0.0638672 0.0226335)
(22.7226 0.0578626 -0.0376295)
(22.7742 0.0530767 -0.030655)
(17.7989 -1.02446 -0.86174)
(20.073 -0.653893 -0.479014)
(5.81156 -0.467772 -0.41687)
(5.54773 -0.301118 -0.924303)
(8.15204 -0.452053 -0.933391)
(10.1243 -0.437495 0.45858)
(9.16932 0.0165432 -0.802404)
(22.7501 -0.0830173 0.0490579)
(22.7981 -0.0696846 0.0431193)
(22.719 0.0708807 0.0256696)
(22.7762 0.0642899 0.0228853)
(22.72 0.0577533 -0.0375159)
(22.7716 0.0535349 -0.030862)
(17.5741 -1.02098 -0.864596)
(20.0568 -0.672801 -0.505267)
(5.73179 -0.460078 -0.421373)
(5.42109 -0.293975 -0.927)
(8.10472 -0.442473 -0.92934)
(9.94965 -0.446656 0.455039)
(8.97431 0.0196537 -0.809558)
(22.7474 -0.0832925 0.0493466)
(22.796 -0.0704819 0.0433659)
(22.7162 0.0707626 0.0259935)
(22.7735 0.0647186 0.0231044)
(22.7174 0.0576313 -0.0374275)
(22.769 0.053983 -0.0311097)
(17.3314 -1.01431 -0.860935)
(20.0359 -0.690999 -0.530107)
(5.65018 -0.452324 -0.426013)
(8.05394 -0.433413 -0.92566)
(9.77224 -0.456109 0.451608)
(8.79503 0.0235459 -0.815545)
(22.7448 -0.0835299 0.049613)
(22.7938 -0.0712638 0.0436097)
(22.7133 0.070658 0.0262626)
(22.7708 0.0651658 0.0232735)
(22.7148 0.0574904 -0.0373714)
(22.7663 0.0544147 -0.0314042)
(17.0734 -1.00957 -0.861981)
(20.0109 -0.707782 -0.553042)
(5.56616 -0.444559 -0.430816)
(7.99904 -0.424904 -0.922398)
(9.58683 -0.466395 0.448543)
(8.65056 0.0287867 -0.818914)
(22.7421 -0.0837307 0.0498621)
(22.7916 -0.0720305 0.0438527)
(22.7105 0.0705566 0.0264992)
(22.7681 0.0656273 0.0234046)
(22.7123 0.0573237 -0.0373536)
(22.7637 0.0548235 -0.0317518)
(16.8105 -0.999109 -0.856728)
(19.9837 -0.721078 -0.573581)
(5.47986 -0.436749 -0.435783)
(7.93986 -0.416898 -0.919563)
(9.39529 -0.477016 0.445926)
(8.52475 0.0346853 -0.820971)
(22.7394 -0.083896 0.050099)
(22.7894 -0.0727828 0.0440981)
(22.6866 0.0776459 0.0850986)
(22.7077 0.0704545 0.0267124)
(22.7654 0.0661006 0.0235035)
(22.8128 0.0535094 0.0220441)
(22.7098 0.0571242 -0.0373798)
(22.761 0.0552046 -0.0321541)
(22.7492 -0.0753014 0.00053864)
(16.5248 -0.981971 -0.843809)
(19.9576 -0.728728 -0.591502)
(5.39115 -0.428906 -0.440923)
(7.87605 -0.409395 -0.917193)
(9.19527 -0.487965 0.443696)
(12.9627 -0.363628 0.575951)
(8.39769 0.0407435 -0.823294)
(22.7367 -0.0840274 0.0503283)
(22.7871 -0.0735196 0.044349)
(22.6843 0.0774921 0.0850989)
(22.7049 0.070349 0.0269094)
(22.7627 0.066584 0.0235767)
(22.8108 0.0542184 0.0219864)
(22.7073 0.056887 -0.0374508)
(22.7584 0.0555535 -0.0326138)
(22.5264 0.0108328 -0.057439)
(22.7465 -0.0753164 0.000716756)
(22.7994 -0.0670033 -0.00107148)
(16.2259 -0.959095 -0.822769)
(19.9246 -0.737008 -0.609192)
(5.29993 -0.421018 -0.446211)
(7.23791 -0.627116 -0.376568)
(7.80701 -0.402348 -0.915307)
(8.98683 -0.4985 0.441614)
(12.8497 -0.364589 0.569748)
(8.26922 0.0468624 -0.82586)
(22.7341 -0.0841255 0.0505563)
(22.7848 -0.0742416 0.0446092)
(22.817 -0.0555962 0.0390825)
(22.682 0.0773388 0.0850546)
(22.7021 0.0702384 0.0271)
(22.7599 0.0670766 0.0236315)
(22.8087 0.0549379 0.021924)
(22.7048 0.0566069 -0.0375698)
(22.7557 0.0558655 -0.0331338)
(22.8018 0.0452728 -0.0240064)
(22.5238 0.0105944 -0.0570816)
(22.5689 0.0171198 -0.0594533)
(22.7438 -0.0752974 0.000836709)
(22.797 -0.0676312 -0.00112392)
(15.8862 -0.944 -0.810064)
(19.8745 -0.753328 -0.629364)
(5.20594 -0.413103 -0.451648)
(7.18847 -0.615338 -0.379699)
(7.73273 -0.395747 -0.913886)
(8.77133 -0.508172 0.439484)
(12.7334 -0.365791 0.563675)
(8.14149 0.0526433 -0.828554)
(22.7315 -0.0841906 0.0507886)
(22.7825 -0.0749482 0.044882)
(22.8158 -0.0564988 0.039344)
(22.6797 0.0771818 0.0849708)
(22.7214 0.0781336 0.0782045)
(22.6994 0.0701216 0.0272934)
(22.7572 0.0675784 0.0236747)
(22.8066 0.0556698 0.0218635)
(22.7024 0.0562789 -0.0377403)
(22.7531 0.056136 -0.0337167)
(22.7997 0.0458322 -0.0246498)
(22.5213 0.0103481 -0.0566768)
(22.5662 0.0168181 -0.0596922)
(22.7412 -0.0752452 0.00089083)
(22.7946 -0.0682432 -0.00123737)
(15.5549 -0.915942 -0.788828)
(19.813 -0.772801 -0.650037)
(5.10872 -0.405208 -0.457284)
(7.13791 -0.603947 -0.382892)
(7.65332 -0.389502 -0.912914)
(8.53861 -0.517671 0.437336)
(12.6141 -0.367436 0.557776)
(8.01327 0.0582509 -0.831404)
(22.7289 -0.0842227 0.0510302)
(22.7802 -0.0756388 0.0451707)
(22.8146 -0.0573968 0.0396277)
(22.6774 0.0769734 0.0848845)
(22.7189 0.0783022 0.0786469)
(22.6967 0.0699978 0.027499)
(22.7544 0.0680888 0.0237142)
(22.8046 0.0564153 0.0218136)
(22.7001 0.055898 -0.0379661)
(22.7505 0.0563604 -0.0343659)
(22.7977 0.0463405 -0.0253743)
(22.5188 0.0100953 -0.0562219)
(22.5635 0.0165001 -0.0598768)
(22.7387 -0.075161 0.00087114)
(22.7922 -0.0688399 -0.00141875)
(15.2083 -0.873734 -0.758679)
(19.7435 -0.792245 -0.669956)
(7.08434 -0.593037 -0.386039)
(7.56829 -0.383585 -0.912395)
(8.27748 -0.528111 0.436052)
(12.4887 -0.369495 0.552122)
(7.88429 0.06377 -0.834437)
(12.4535 -0.087028 -0.668013)
(22.7263 -0.0842216 0.0512859)
(22.7778 -0.076312 0.0454789)
(22.8133 -0.0582993 0.0399094)
(22.6752 0.0767154 0.0847969)
(22.7163 0.0784369 0.0790918)
(22.694 0.0698665 0.0277262)
(22.7516 0.0686075 0.0237588)
(22.8024 0.0571766 0.0217811)
(22.6979 0.0554572 -0.0382605)
(22.7479 0.0565333 -0.0350858)
(22.7955 0.0468309 -0.0261132)
(22.5164 0.00983744 -0.0557151)
(22.5608 0.016168 -0.0600046)
(22.7362 -0.0750453 0.000769814)
(22.7898 -0.0694231 -0.00167448)
(14.8015 -0.83217 -0.729327)
(19.6675 -0.811035 -0.688685)
(7.02709 -0.582593 -0.389179)
(7.47794 -0.377958 -0.912295)
(7.9803 -0.54007 0.436035)
(12.3612 -0.371873 0.546532)
(7.75374 0.0697033 -0.837754)
(12.3114 -0.0895556 -0.679559)
(22.7238 -0.0841869 0.0515619)
(22.7755 -0.0769656 0.0458171)
(22.812 -0.0592049 0.0401806)
(22.6729 0.0764091 0.0847099)
(22.7137 0.078538 0.0795383)
(22.6914 0.0697362 0.0279879)
(22.7487 0.069143 0.0238196)
(22.8003 0.057962 0.0217756)
(22.6957 0.0549603 -0.0385913)
(22.7453 0.0567001 -0.0357165)
(22.7933 0.0473404 -0.026781)
(22.514 0.00957605 -0.055155)
(22.5582 0.0158242 -0.0600735)
(22.7337 -0.0748982 0.000578996)
(22.7874 -0.0699936 -0.00203431)
(19.5817 -0.829624 -0.706721)
(6.96601 -0.57256 -0.392378)
(7.38283 -0.372505 -0.912573)
(7.63811 -0.554441 0.437682)
(12.2313 -0.374719 0.540997)
(7.62441 0.0760495 -0.841233)
(12.1391 -0.0889725 -0.692836)
(22.7214 -0.0841176 0.0518698)
(22.7731 -0.0776015 0.0461502)
(22.8106 -0.0601109 0.0404434)
(22.6706 0.0760567 0.0846236)
(22.7111 0.0786053 0.079986)
(22.6888 0.0695703 0.0282713)
(22.7459 0.0696427 0.0238884)
(22.7981 0.0587231 0.0217749)
(22.6934 0.0544453 -0.0388181)
(22.7426 0.0568576 -0.0362546)
(22.791 0.0478644 -0.0273794)
(22.5117 0.00931285 -0.0545403)
(22.5556 0.0154706 -0.0600829)
(22.7314 -0.0747193 0.000262696)
(22.7849 -0.0705468 -0.00237865)
(19.4885 -0.848083 -0.723781)
(6.90132 -0.562886 -0.395649)
(7.28281 -0.367161 -0.913221)
(7.24259 -0.572511 0.44154)
(12.096 -0.378128 0.535642)
(7.49514 0.0825686 -0.845006)
(11.9364 -0.0851173 -0.707729)
(22.719 -0.0840106 0.0521524)
(22.7706 -0.0782161 0.0464657)
(22.8091 -0.0610154 0.0406999)
(22.6877 0.0266388 0.108511)
(22.6684 0.0756595 0.0845376)
(22.7084 0.0786387 0.0804348)
(22.6861 0.0693193 0.0285413)
(22.743 0.0700765 0.0239638)
(22.7958 0.0594469 0.021779)
(22.6912 0.0539099 -0.0389434)
(22.7399 0.0570023 -0.0367011)
(22.7887 0.0483989 -0.0279091)
(22.5095 0.00904921 -0.0538706)
(22.5531 0.0151092 -0.0600321)
(22.7291 -0.0745113 1.55731e-06)
(22.7824 -0.0710752 -0.00263312)
(19.39 -0.866803 -0.739675)
(6.83344 -0.553509 -0.398998)
(7.17848 -0.361835 -0.914181)
(6.79935 -0.594847 0.447457)
(11.9578 -0.381834 0.530388)
(7.3639 0.0893161 -0.849216)
(11.7036 -0.0774725 -0.723682)
(22.7165 -0.0838637 0.0524028)
(22.7681 -0.0788068 0.0467677)
(22.8075 -0.0619173 0.0409525)
(22.6458 0.021989 0.111943)
(22.6851 0.0266183 0.10894)
(22.6662 0.0752197 0.0844516)
(22.7058 0.0786387 0.0808811)
(22.6834 0.0689837 0.0288051)
(22.74 0.0704447 0.0240525)
(22.7934 0.0601338 0.0217968)
(22.6889 0.0533527 -0.0389696)
(22.7371 0.057131 -0.0370572)
(22.7863 0.0489394 -0.0283731)
(22.5073 0.00878617 -0.0531463)
(22.5507 0.0147468 -0.0599398)
(22.7266 -0.0742748 -0.000151863)
(22.7797 -0.0715762 -0.00279941)
(22.8217 -0.0563864 -0.00303174)
(19.2839 -0.886276 -0.754743)
(20.0491 -0.406384 -0.119124)
(6.76233 -0.544423 -0.402432)
(7.06952 -0.356586 -0.91544)
(8.87234 -0.555626 -1.00785)
(6.30246 -0.623737 0.456272)
(11.8185 -0.38576 0.525159)
(7.22943 0.0959736 -0.854054)
(11.4394 -0.06521 -0.740433)
(22.7139 -0.083676 0.0526255)
(22.7655 -0.0793708 0.0470607)
(22.8058 -0.0628131 0.041202)
(22.6434 0.0216785 0.111703)
(22.6825 0.0265864 0.109342)
(22.664 0.074739 0.0843654)
(22.7032 0.0786061 0.0813218)
(22.7392 0.0738019 0.0695288)
(22.6807 0.0685669 0.029069)
(22.737 0.070749 0.024162)
(22.791 0.0607854 0.0218358)
(22.6867 0.0527728 -0.0388999)
(22.7343 0.0572408 -0.0373256)
(22.7838 0.0494814 -0.0287743)
(22.5052 0.00852997 -0.052384)
(22.5482 0.0143871 -0.0598173)
(22.7242 -0.0740086 -0.000199142)
(22.777 -0.0720464 -0.00287962)
(22.82 -0.0572419 -0.00306524)
(19.1741 -0.903839 -0.767806)
(20.0564 -0.432455 -0.150582)
(6.68815 -0.53559 -0.405963)
(6.95652 -0.35139 -0.916975)
(8.89547 -0.536448 -0.996273)
(5.77388 -0.659084 0.468295)
(11.6739 -0.390091 0.520096)
(7.08912 0.102568 -0.859799)
(11.1432 -0.047749 -0.757649)
(22.7114 -0.0834464 0.0528244)
(22.7629 -0.0799057 0.0473473)
(22.8041 -0.0637025 0.0414523)
(22.6411 0.0213648 0.11144)
(22.6798 0.0265442 0.109716)
(22.6618 0.0742188 0.0842776)
(22.7006 0.078547 0.0817487)
(22.7372 0.0740802 0.0702263)
(22.678 0.068074 0.0293396)
(22.734 0.0709921 0.0243005)
(22.7885 0.0614031 0.0219019)
(22.6844 0.0521694 -0.0387386)
(22.7316 0.0573283 -0.037512)
(22.7813 0.0500207 -0.0291175)
(22.5031 0.00828502 -0.0515987)
(22.5458 0.014031 -0.0596667)
(22.7217 -0.0737114 -0.000142119)
(22.7743 -0.0724838 -0.00287823)
(22.8182 -0.058088 -0.00305435)
(19.0446 -0.925104 -0.782593)
(20.0603 -0.455579 -0.18037)
(6.61132 -0.526986 -0.409578)
(6.83982 -0.346145 -0.918733)
(8.91128 -0.518431 -0.985478)
(5.23984 -0.700091 0.482187)
(11.5262 -0.394731 0.515018)
(6.94377 0.108847 -0.866464)
(10.8118 -0.0239232 -0.775065)
(22.7088 -0.0831744 0.0530014)
(22.7602 -0.0804089 0.0476302)
(22.8024 -0.0645846 0.0417053)
(22.6389 0.021043 0.11115)
(22.6772 0.0264917 0.110058)
(22.6596 0.0736609 0.0841865)
(22.698 0.0784693 0.0821517)
(22.735 0.0743503 0.0709103)
(22.6753 0.0675098 0.0296218)
(22.731 0.071176 0.0244691)
(22.7859 0.0619882 0.021998)
(22.6821 0.0515413 -0.0384922)
(22.7288 0.0573888 -0.0376233)
(22.7787 0.0505521 -0.0294083)
(22.501 0.00805024 -0.0507939)
(22.5433 0.0136828 -0.0595016)
(22.7191 -0.0733827 1.35088e-05)
(22.7715 -0.0728864 -0.00280082)
(22.8164 -0.0589262 -0.00299908)
(18.8958 -0.948751 -0.798462)
(20.0611 -0.47478 -0.208807)
(6.53251 -0.518596 -0.413243)
(6.72087 -0.34076 -0.920619)
(8.91986 -0.501519 -0.975457)
(4.76052 -0.740709 0.496044)
(11.3738 -0.399726 0.509946)
(6.79268 0.114541 -0.874275)
(10.4397 0.00746521 -0.792665)
(22.7062 -0.0828599 0.0531595)
(22.7576 -0.0808785 0.0479119)
(22.8005 -0.0654579 0.0419631)
(22.4304 -0.0752831 0.0581199)
(22.6366 0.0207117 0.110827)
(22.6746 0.0264249 0.110365)
(22.6575 0.0730671 0.0840896)
(22.6954 0.0783728 0.0825284)
(22.7328 0.0746183 0.0715728)
(22.6726 0.0668783 0.0299155)
(22.728 0.0713015 0.024669)
(22.7833 0.0625408 0.0221249)
(22.6799 0.0508863 -0.0381685)
(22.7261 0.0574179 -0.0376668)
(22.7762 0.0510704 -0.0296531)
(22.499 0.007825 -0.0499712)
(22.5409 0.0133463 -0.0593324)
(22.7166 -0.0730218 0.000259751)
(22.7687 -0.0732524 -0.00265438)
(22.8145 -0.0597541 -0.00290446)
(18.7319 -0.972312 -0.814346)
(20.0634 -0.489185 -0.236161)
(6.45179 -0.510401 -0.416984)
(6.59922 -0.335248 -0.922648)
(8.91172 -0.486823 -0.967043)
(4.39593 -0.773725 0.505425)
(11.2151 -0.405397 0.504946)
(6.63503 0.11909 -0.883455)
(10.1132 0.0248667 -0.80728)
(22.7037 -0.082503 0.0533004)
(22.7549 -0.0813129 0.0481943)
(22.7987 -0.0663212 0.042227)
(22.4282 -0.0751152 0.05744)
(22.6344 0.0203725 0.110468)
(22.6719 0.0263389 0.110637)
(22.6555 0.0724547 0.0839661)
(22.6929 0.0782621 0.0828729)
(22.7306 0.0748876 0.0722098)
(22.6699 0.0661824 0.030222)
(22.725 0.0713686 0.0249014)
(22.7807 0.0630607 0.0222846)
(22.6777 0.0502022 -0.0377762)
(22.7234 0.057411 -0.0376506)
(22.7736 0.0515699 -0.0298567)
(22.497 0.00761703 -0.0491546)
(22.5384 0.0130223 -0.0591577)
(22.7141 -0.072628 0.000587373)
(22.7659 -0.073581 -0.00244806)
(22.8126 -0.0605707 -0.00277526)
(18.5486 -0.996226 -0.830842)
(20.0654 -0.503349 -0.264165)
(6.36946 -0.502369 -0.420807)
(6.47384 -0.329636 -0.924902)
(8.89194 -0.473692 -0.959937)
(11.0554 -0.411605 0.499832)
(6.46853 0.122391 -0.894286)
(9.8529 0.0310134 -0.818304)
(22.7011 -0.0821048 0.0534269)
(22.7521 -0.0817107 0.0484796)
(22.7967 -0.0671732 0.0424962)
(22.4259 -0.0748996 0.0567267)
(22.6323 0.0200242 0.110071)
(22.6693 0.0262273 0.110876)
(22.7055 0.0267299 0.0993378)
(22.6534 0.0718243 0.0838136)
(22.6903 0.078145 0.0831761)
(22.7284 0.0751575 0.07282)
(22.6672 0.0654253 0.0305441)
(22.7221 0.0713777 0.0251686)
(22.778 0.0635481 0.0224783)
(22.6755 0.0494865 -0.0373237)
(22.7207 0.057364 -0.0375838)
(22.771 0.0520497 -0.0300406)
(22.4949 0.00742749 -0.0483452)
(22.5359 0.0127108 -0.0589762)
(22.7115 -0.072202 0.000984675)
(22.7631 -0.0738718 -0.00219176)
(22.8106 -0.0613746 -0.00262128)
(18.3486 -1.01878 -0.847692)
(20.0648 -0.521337 -0.293593)
(6.28542 -0.49451 -0.424737)
(6.34562 -0.323832 -0.92731)
(8.86642 -0.461321 -0.953304)
(10.8906 -0.418531 0.494749)
(9.64397 0.0345623 -0.825898)
(22.6986 -0.081667 0.0535426)
(22.7494 -0.082071 0.0487703)
(22.7947 -0.0680114 0.0427605)
(22.4236 -0.0746333 0.0559823)
(22.6302 0.0196588 0.109631)
(22.6667 0.0260854 0.111083)
(22.7033 0.0267878 0.10003)
(22.6514 0.0711765 0.0836299)
(22.6878 0.0780221 0.0834357)
(22.7261 0.0754283 0.0734029)
(22.6647 0.0646097 0.0308877)
(22.7192 0.0713255 0.0254801)
(22.7754 0.0640027 0.0227088)
(22.6734 0.0487364 -0.036821)
(22.7181 0.0572853 -0.0374951)
(22.7684 0.0525163 -0.0302289)
(22.4929 0.00725665 -0.0475424)
(22.5334 0.0124127 -0.058785)
(22.709 -0.0717456 0.00144016)
(22.7603 -0.0741249 -0.00189573)
(22.8085 -0.0621602 -0.0024628)
(18.1432 -1.03806 -0.863623)
(20.0629 -0.543132 -0.324951)
(6.20021 -0.486762 -0.428767)
(6.2144 -0.317815 -0.929889)
(8.8345 -0.449717 -0.947163)
(10.7194 -0.426128 0.489874)
(9.47137 0.0371034 -0.831269)
(22.696 -0.0811919 0.0536522)
(22.7467 -0.0823936 0.0490652)
(22.7927 -0.0688357 0.043019)
(22.4213 -0.0743139 0.055209)
(22.6281 0.0192701 0.109152)
(22.6641 0.0259093 0.111262)
(22.701 0.026816 0.100715)
(22.6495 0.0705252 0.083399)
(22.6852 0.0778933 0.0836493)
(22.7237 0.0757001 0.073959)
(22.6621 0.0637386 0.0312615)
(22.7163 0.0712313 0.0258122)
(22.7727 0.0644365 0.0229592)
(22.6714 0.0479589 -0.036294)
(22.7155 0.0571897 -0.0374174)
(22.7657 0.052975 -0.0304516)
(22.4908 0.00710522 -0.046745)
(22.5309 0.0121287 -0.0585817)
(22.7066 -0.0712597 0.00193596)
(22.7576 -0.0743392 -0.00158244)
(22.8064 -0.062925 -0.00230294)
(17.9335 -1.05358 -0.87846)
(20.0613 -0.567878 -0.358203)
(6.96236 0.320052 0.125521)
(6.11408 -0.479066 -0.432894)
(6.0806 -0.311531 -0.932626)
(8.79608 -0.438882 -0.941529)
(10.5466 -0.433977 0.48524)
(9.29721 0.0396872 -0.837039)
(22.6935 -0.0806736 0.0537453)
(22.744 -0.0826771 0.0493484)
(22.7906 -0.0696453 0.0432729)
(22.4189 -0.0739386 0.0544093)
(22.6261 0.0188519 0.108638)
(22.6615 0.0256957 0.111416)
(22.6986 0.0268098 0.101396)
(22.6476 0.0698716 0.0831196)
(22.6827 0.0777583 0.0838179)
(22.7214 0.075973 0.0744891)
(22.6597 0.0628396 0.0316241)
(22.7134 0.0711264 0.026119)
(22.77 0.0648779 0.0231754)
(22.6694 0.0471649 -0.0357661)
(22.7129 0.057077 -0.037365)
(22.763 0.0534201 -0.0307151)
(22.4888 0.00697433 -0.0459511)
(22.5283 0.0118595 -0.0583642)
(22.7042 -0.0707397 0.00243322)
(22.7548 -0.0745117 -0.001268)
(22.8043 -0.0636677 -0.00214452)
(17.7137 -1.06297 -0.89244)
(20.055 -0.592701 -0.391407)
(6.75679 0.339856 0.123711)
(6.02598 -0.471313 -0.437149)
(5.94386 -0.304912 -0.93548)
(8.75343 -0.428634 -0.936306)
(10.368 -0.442526 0.480914)
(9.14583 0.0432363 -0.84107)
(22.6911 -0.0801118 0.0538201)
(22.7413 -0.0829222 0.0496115)
(22.7884 -0.0704395 0.0435243)
(22.4164 -0.0734954 0.0535878)
(22.6241 0.018401 0.108096)
(22.6589 0.0254423 0.111547)
(22.6963 0.02676 0.10208)
(22.6457 0.0692163 0.0827897)
(22.6803 0.077618 0.0839423)
(22.719 0.0762472 0.0749937)
(22.6572 0.0619375 0.0319365)
(22.7106 0.0710285 0.0263815)
(22.7673 0.0653338 0.0233508)
(22.6673 0.0463584 -0.0352593)
(22.7103 0.0569413 -0.0373435)
(22.7604 0.053846 -0.031024)
(22.4867 0.00686521 -0.0451592)
(22.5257 0.0116054 -0.0581303)
(22.752 -0.0746409 -0.000967602)
(22.802 -0.0643862 -0.00201716)
(17.4768 -1.06458 -0.902054)
(20.0426 -0.617056 -0.423948)
(6.54274 0.360444 0.121855)
(5.93637 -0.463489 -0.441564)
(5.80369 -0.297918 -0.93847)
(8.70642 -0.419042 -0.931549)
(10.1863 -0.4518 0.476626)
(14.1604 -0.377219 0.593745)
(9.01747 0.0477042 -0.843341)
(22.6886 -0.0795047 0.0538716)
(22.7385 -0.0831296 0.0498589)
(22.7862 -0.0712185 0.0437756)
(22.414 -0.0730367 0.0527552)
(22.6564 0.0251467 0.111658)
(22.6939 0.026708 0.102745)
(22.6439 0.0685608 0.0824088)
(22.6778 0.0774731 0.0840226)
(22.7166 0.076522 0.0754747)
(22.6547 0.0610301 0.0322143)
(22.7077 0.0709318 0.0266144)
(22.7645 0.0658029 0.0234908)
(22.6654 0.0455325 -0.0347802)
(22.7077 0.0567761 -0.0373588)
(22.7577 0.0542468 -0.0313843)
(22.4846 0.00677838 -0.0443674)
(22.523 0.0113678 -0.0578784)
(22.7492 -0.0747279 -0.000701757)
(22.7998 -0.0650821 -0.00192702)
(17.2165 -1.05856 -0.904891)
(20.0233 -0.640843 -0.455575)
(6.32006 0.381687 0.120114)
(5.84497 -0.455626 -0.446155)
(5.66046 -0.290555 -0.94158)
(8.655 -0.410079 -0.927236)
(10.0003 -0.461657 0.472717)
(14.0482 -0.375536 0.58865)
(8.89523 0.0526035 -0.845165)
(22.6862 -0.0788557 0.0539078)
(22.7358 -0.0833004 0.0500954)
(22.784 -0.0719832 0.0440307)
(22.4117 -0.0725759 0.0519208)
(22.654 0.0248036 0.111754)
(22.6914 0.0266676 0.103384)
(22.6422 0.0679067 0.0819783)
(22.6755 0.0773245 0.0840598)
(22.7142 0.0768017 0.0759293)
(22.6523 0.0601163 0.0324677)
(22.7048 0.070833 0.0268254)
(22.7618 0.0662824 0.0236016)
(22.6634 0.0446803 -0.0343352)
(22.7052 0.0565758 -0.0374141)
(22.755 0.0546178 -0.0317969)
(22.4825 0.00671503 -0.0435751)
(22.5203 0.0111436 -0.0576035)
(22.7465 -0.0747754 -0.000478636)
(22.7975 -0.0657575 -0.00188082)
(16.9309 -1.04905 -0.899106)
(19.9983 -0.664066 -0.486094)
(6.08875 0.403498 0.118635)
(5.75207 -0.447648 -0.450917)
(5.51443 -0.282778 -0.944764)
(8.59913 -0.401685 -0.923377)
(9.80814 -0.472482 0.469125)
(13.9284 -0.374395 0.583732)
(8.77082 0.0576953 -0.847208)
(22.6839 -0.0781686 0.0539359)
(22.7331 -0.0834359 0.0503252)
(22.7818 -0.0727327 0.0442931)
(22.4094 -0.0721125 0.05109)
(22.6516 0.0244228 0.111832)
(22.6889 0.0266375 0.103998)
(22.6405 0.067257 0.0814992)
(22.6731 0.0771725 0.0840547)
(22.7117 0.0770549 0.0763824)
(22.6499 0.0591938 0.0327059)
(22.702 0.070729 0.0270226)
(22.759 0.0667705 0.0236899)
(22.6616 0.0437954 -0.0339308)
(22.7027 0.0563358 -0.0375107)
(22.7523 0.0549546 -0.0322638)
(22.4804 0.00668021 -0.0427858)
(22.5177 0.0109103 -0.057288)
(22.7437 -0.0747862 -0.00030651)
(22.7952 -0.0664141 -0.00188174)
(16.6256 -1.04213 -0.902291)
(19.9683 -0.686262 -0.514948)
(5.85057 0.425241 0.11787)
(5.65755 -0.439541 -0.455856)
(7.74802 -0.641846 -0.390901)
(5.36626 -0.274563 -0.947963)
(8.53732 -0.393942 -0.920082)
(9.60915 -0.483759 0.465765)
(13.8046 -0.373583 0.578874)
(8.64352 0.0628252 -0.849533)
(12.7685 -0.00794097 -0.707068)
(22.6816 -0.0774467 0.053963)
(22.7304 -0.0835369 0.0505547)
(22.7795 -0.0734666 0.0445656)
(22.4072 -0.0716443 0.0502684)
(22.6491 0.0240549 0.111861)
(22.6864 0.026616 0.104587)
(22.6389 0.0666129 0.0809736)
(22.6708 0.0770254 0.0840019)
(22.7092 0.0772763 0.0768376)
(22.6475 0.0582621 0.0329383)
(22.6992 0.0706176 0.0272152)
(22.7562 0.0672658 0.0237636)
(22.6598 0.042873 -0.03357)
(22.7003 0.0560515 -0.0376516)
(22.7496 0.0552527 -0.032788)
(22.4783 0.00664833 -0.0419774)
(22.5151 0.0106688 -0.0569288)
(22.741 -0.0747619 -0.000190446)
(22.7928 -0.067053 -0.00193476)
(16.3087 -1.02658 -0.893828)
(19.9337 -0.70725 -0.541901)
(5.6209 0.442842 0.120721)
(5.56124 -0.431303 -0.460982)
(7.69325 -0.629239 -0.393727)
(5.2395 -0.265272 -0.950066)
(8.46935 -0.386794 -0.917363)
(9.40884 -0.494756 0.462259)
(13.6731 -0.373393 0.57424)
(8.51492 0.0678961 -0.852033)
(12.7366 -0.012689 -0.703569)
(22.6794 -0.0766918 0.053996)
(22.7277 -0.0836037 0.0507896)
(22.7772 -0.0741842 0.0448513)
(22.4051 -0.0711706 0.0494603)
(22.6467 0.0236989 0.111847)
(22.6839 0.0266015 0.105152)
(22.6373 0.0659796 0.0804003)
(22.6686 0.0768457 0.0839322)
(22.7067 0.0774666 0.0772949)
(22.6452 0.0573214 0.0331743)
(22.6965 0.0704979 0.0274119)
(22.7534 0.0677679 0.0238293)
(22.658 0.0419078 -0.0332568)
(22.6979 0.0557185 -0.03784)
(22.747 0.055508 -0.0333724)
(22.4763 0.00661186 -0.041146)
(22.5126 0.0104204 -0.0565227)
(22.7384 -0.0747031 -0.000137934)
(22.7904 -0.0676748 -0.00204662)