/*--------------------------------*- C++ -*----------------------------------*\
| =========                 |                                                 |
| \\      /  F ield         | OpenFOAM: The Open Source CFD Toolbox           |
|  \\    /   O peration     | Version:  2.1.1                                 |
|   \\  /    A nd           | Web:      www.OpenFOAM.org                      |
|    \\/     M anipulation  |                                                 |
\*---------------------------------------------------------------------------*/
FoamFile
{
    version     2.0;
    format      ascii;
    class       Cloud<solidParticle>;
    location    "0.0012";
    object      positions;
}
// * * * * * * * * * * * * * * * * * * * * * * * * * * * * * * * * * * * * * //

44469
(
(0.000684797 0.00899243 0.00100977) 20041
(0.021202 0.00629691 0.00205479) 13482
(0.0211286 0.00629795 0.00205588) 13482
(0.0210496 0.00629923 0.00205704) 13482
(0.0209674 0.00630069 0.00205824) 13481
(0.0208806 0.0063024 0.00205946) 13481
(0.020789 0.00630428 0.00206062) 13481
(0.0206919 0.00630644 0.00206176) 13481
(0.0205911 0.00630877 0.00206268) 13481
(0.0204857 0.00631137 0.00206347) 13480
(0.0203754 0.00631436 0.00206421) 13480
(0.0202608 0.00631782 0.00206488) 13480
(0.0201411 0.00632185 0.00206556) 13480
(0.0200166 0.00632661 0.00206638) 13480
(0.0198897 0.0063322 0.00206746) 13479
(0.0197617 0.00633862 0.0020688) 13479
(0.0196337 0.00634588 0.00207043) 13479
(0.021742 0.00629177 0.00204215) 13483
(0.021686 0.00629086 0.00204083) 13483
(0.0216276 0.00629011 0.00203946) 13483
(0.0215668 0.00628953 0.00203841) 13483
(0.0215032 0.00628912 0.0020376) 13483
(0.021436 0.00628891 0.00203711) 13482
(0.0213648 0.00628894 0.00203687) 13482
(0.0212902 0.00628915 0.00203673) 13482
(0.0212103 0.00628963 0.00203673) 13482
(0.0211279 0.00629042 0.002037) 13482
(0.0210401 0.00629149 0.00203748) 13482
(0.0209482 0.00629285 0.00203811) 13481
(0.020851 0.00629452 0.00203867) 13481
(0.0207494 0.00629654 0.00203933) 13481
(0.0206431 0.00629892 0.00204006) 13481
(0.0205338 0.00630166 0.00204078) 13481
(0.0204182 0.00630481 0.00204138) 13480
(0.0202986 0.00630855 0.00204191) 13480
(0.0221761 0.00630504 0.00205343) 13484
(0.0201735 0.00631306 0.00204254) 13480
(0.0221294 0.0063019 0.00204986) 13484
(0.0168648 0.00298697 0.00329334) 31825
(0.0200454 0.00631822 0.00204315) 13480
(0.0220812 0.00629897 0.00204648) 13484
(0.0167357 0.0029825 0.00329343) 31825
(0.019913 0.0063243 0.00204399) 13479
(0.0220314 0.00629621 0.00204297) 13484
(0.0166009 0.0029781 0.00329381) 31825
(0.0197798 0.00633137 0.00204512) 13479
(0.0219797 0.00629361 0.00203941) 13483
(0.0164543 0.00297322 0.00329472) 31681
(0.0196447 0.00633963 0.00204662) 13479
(0.0219259 0.00629128 0.00203619) 13483
(0.0162938 0.00296761 0.00329627) 31681
(0.019508 0.00634908 0.00204845) 13479
(0.02187 0.00628924 0.00203328) 13483
(0.0161175 0.00296102 0.00329856) 31681
(0.0218117 0.00628747 0.00203069) 13483
(0.0159256 0.0029533 0.00330161) 31537
(0.0217511 0.00628587 0.00202799) 13483
(0.0157173 0.00294409 0.00330549) 31537
(0.0216879 0.00628446 0.00202542) 13483
(0.0154948 0.00293315 0.00331025) 31393
(0.0216215 0.00628335 0.00202332) 13483
(0.0152618 0.00292036 0.00331591) 31393
(0.0215507 0.00628253 0.00202166) 13483
(0.0150264 0.00290589 0.0033222) 31393
(0.0214754 0.00628191 0.0020203) 13482
(0.0213975 0.00628163 0.00201908) 13482
(0.0213137 0.00628178 0.00201828) 13482
(0.0212256 0.00628229 0.0020179) 13482
(0.018161 0.00301823 0.00329771) 816
(0.0211327 0.00628308 0.00201775) 13482
(0.0180759 0.00301539 0.00329484) 816
(0.0210342 0.00628427 0.00201753) 13482
(0.0179875 0.00301233 0.00329235) 815
(0.0209297 0.00628595 0.00201767) 13481
(0.0178935 0.00300886 0.00329032) 815
(0.0208193 0.00628823 0.00201813) 13481
(0.0225029 0.00632869 0.00207346) 13485
(0.0177962 0.00300516 0.00328853) 815
(0.0207037 0.00629096 0.00201864) 13481
(0.0224618 0.00632367 0.00206804) 13484
(0.0176936 0.0030011 0.00328707) 815
(0.0205829 0.00629429 0.00201918) 13481
(0.0224189 0.00631881 0.00206287) 13484
(0.0175863 0.00299682 0.00328588) 32113
(0.0204567 0.00629831 0.00201987) 13480
(0.0223744 0.00631416 0.00205796) 13484
(0.0174746 0.00299231 0.00328496) 31969
(0.0203255 0.006303 0.00202055) 13480
(0.0223283 0.0063096 0.00205283) 13484
(0.0173579 0.00298775 0.00328427) 31969
(0.0201877 0.00630856 0.0020213) 13480
(0.0222808 0.00630527 0.00204785) 13484
(0.0172348 0.00298307 0.00328385) 31969
(0.0200446 0.00631528 0.0020223) 13480
(0.0222313 0.00630124 0.00204319) 13484
(0.0171062 0.00297848 0.0032836) 31969
(0.0198975 0.00632321 0.00202358) 13479
(0.0221798 0.00629755 0.00203888) 13484
(0.0169715 0.00297401 0.00328355) 31825
(0.0197454 0.00633258 0.00202526) 13479
(0.0221262 0.00629413 0.00203464) 13484
(0.0168244 0.00296901 0.00328406) 31825
(0.0195888 0.00634363 0.00202751) 13479
(0.0220709 0.00629089 0.00203017) 13484
(0.0166623 0.00296323 0.00328521) 31825
(0.019429 0.0063566 0.00203027) 13478
(0.022013 0.00628802 0.00202611) 13484
(0.0164841 0.00295644 0.0032871) 31681
(0.0219522 0.00628552 0.00202243) 13483
(0.0162896 0.00294844 0.00328977) 31681
(0.0218883 0.00628337 0.0020191) 13483
(0.0160774 0.00293881 0.0032933) 31681
(0.0218212 0.00628148 0.00201559) 13483
(0.0162785 0.0046072 0.00091781) 11552
(0.0158517 0.0029274 0.00329773) 31537
(0.0217501 0.00627993 0.00201245) 13483
(0.0162432 0.00461352 0.000915508) 11552
(0.015615 0.00291378 0.00330319) 31537
(0.01895 0.00302857 0.00330872) 817
(0.0216751 0.00627869 0.0020098) 13483
(0.0162066 0.00461966 0.000913136) 11552
(0.0153775 0.00289841 0.00330923) 31393
(0.0188769 0.00302695 0.00330471) 817
(0.0215959 0.00627778 0.00200773) 13483
(0.0161689 0.00462565 0.000910744) 11552
(0.0151528 0.00288213 0.00331535) 31393
(0.0188013 0.00302512 0.00330085) 817
(0.0215119 0.0062772 0.00200564) 13483
(0.0161302 0.00463149 0.000908342) 11552
(0.0187226 0.00302302 0.00329714) 817
(0.0214224 0.00627706 0.00200393) 13482
(0.0160906 0.00463718 0.000905917) 11552
(0.0186404 0.00302062 0.00329361) 817
(0.0213276 0.00627747 0.002003) 13482
(0.0160501 0.00464272 0.000903477) 11552
(0.0185547 0.00301793 0.00329029) 817
(0.0212259 0.00627842 0.00200243) 13482
(0.0227767 0.00636148 0.00210345) 13425
(0.0160089 0.00464813 0.000901018) 11552
(0.0184661 0.00301496 0.00328718) 816
(0.0211196 0.00627983 0.00200188) 13482
(0.0227402 0.00635519 0.0020966) 13425
(0.0159667 0.00465338 0.000898544) 11551
(0.0183734 0.00301163 0.00328445) 816
(0.0210059 0.00628194 0.00200196) 13482
(0.0227017 0.0063489 0.0020897) 13485
(0.0159234 0.00465851 0.000896041) 11551
(0.0182769 0.00300795 0.0032821) 816
(0.0208846 0.00628478 0.00200248) 13481
(0.0226615 0.00634281 0.00208323) 13485
(0.0158786 0.00466354 0.0008935) 11551
(0.0181771 0.00300395 0.00327996) 816
(0.0207556 0.00628828 0.00200299) 13481
(0.0226192 0.00633686 0.002077) 13485
(0.0158327 0.00466852 0.000890916) 11551
(0.0180724 0.00299953 0.00327809) 32257
(0.020621 0.00629262 0.00200374) 13481
(0.0225755 0.00633097 0.00207058) 13485
(0.0157853 0.00467342 0.000888287) 11551
(0.0179646 0.00299493 0.00327641) 32113
(0.0204805 0.00629783 0.00200479) 13480
(0.0225298 0.00632518 0.00206423) 13485
(0.0178527 0.00299009 0.00327497) 32113
(0.0203314 0.0063039 0.00200573) 13480
(0.0224819 0.0063197 0.00205833) 13484
(0.0177368 0.00298524 0.00327369) 32113
(0.0201748 0.00631119 0.00200682) 13480
(0.0224319 0.00631452 0.00205289) 13484
(0.0176156 0.00298041 0.00327258) 32113
(0.0200114 0.00632004 0.00200829) 13480
(0.02238 0.00630943 0.00204712) 13484
(0.0172475 0.0051711 0.000637313) 11914
(0.0174888 0.0029757 0.00327161) 31969
(0.0198398 0.00633062 0.00201009) 13479
(0.022326 0.00630466 0.00204156) 13484
(0.0172025 0.00517645 0.0006391) 11914
(0.0173555 0.00297117 0.00327075) 31969
(0.0196616 0.00634332 0.00201259) 13479
(0.0222698 0.0063003 0.00203641) 13484
(0.0171555 0.00518159 0.000640672) 11914
(0.0172089 0.00296612 0.00327039) 31969
(0.0194765 0.00635875 0.00201598) 13478
(0.0222109 0.00629637 0.0020317) 13484
(0.016949 0.00458003 0.000919378) 11553
(0.0171067 0.00518656 0.000642065) 11914
(0.0170469 0.00296035 0.00327062) 31969
(0.0197473 0.00303675 0.00332624) 819
(0.0221491 0.00629268 0.0020267) 13484
(0.0169151 0.00458696 0.000917279) 11553
(0.0170559 0.00519137 0.000643176) 11914
(0.0168674 0.00295349 0.00327149) 31825
(0.0196796 0.00303606 0.00332149) 819
(0.0220848 0.00628933 0.00202174) 13484
(0.0168797 0.00459364 0.000915191) 11553
(0.0170032 0.00519603 0.000644116) 11914
(0.0166696 0.00294523 0.00327322) 31825
(0.0196103 0.00303526 0.00331686) 819
(0.0220178 0.00628646 0.00201735) 13484
(0.0168428 0.00460009 0.000913103) 11553
(0.016949 0.0052006 0.000644911) 11913
(0.0164524 0.00293503 0.00327589) 31681
(0.0195392 0.00303431 0.00331235) 819
(0.0219468 0.0062841 0.00201342) 13483
(0.0168046 0.00460637 0.000911013) 11553
(0.0168933 0.00520508 0.000645575) 11913
(0.0162181 0.00292247 0.00327966) 31681
(0.0194658 0.00303318 0.00330797) 818
(0.0218711 0.00628207 0.00200933) 13483
(0.0167652 0.00461248 0.000908917) 11553
(0.0168359 0.00520952 0.000646111) 11913
(0.0159752 0.00290771 0.00328447) 31537
(0.0193901 0.00303186 0.0033037) 818
(0.0217923 0.0062804 0.00200543) 13483
(0.0167246 0.00461841 0.000906811) 11553
(0.0167772 0.00521393 0.00064655) 11913
(0.0157326 0.00289083 0.00329005) 31537
(0.0193117 0.0030303 0.00329952) 818
(0.0138057 0.00369013 0.00345598) 14487
(0.0217076 0.00627925 0.00200229) 13483
(0.0230628 0.00641179 0.00215036) 13426
(0.0166836 0.0046242 0.000904933) 11553
(0.0167179 0.00521837 0.000647127) 11913
(0.01551 0.00287375 0.00329583) 31537
(0.0192304 0.0030285 0.00329558) 818
(0.0194345 0.00652989 0.00158631) 6758
(0.0137816 0.00369008 0.00345602) 14487
(0.0137541 0.00378361 0.0036701) 14547
(0.0216186 0.00627849 0.00199983) 13483
(0.0230297 0.00640474 0.00214371) 13426
(0.0166418 0.00462993 0.000903016) 11553
(0.0166572 0.00522286 0.000647585) 11913
(0.0153318 0.00285914 0.00330007) 31393
(0.0191467 0.00302644 0.00329168) 818
(0.0193025 0.00653815 0.00158244) 6758
(0.0137575 0.00369 0.00345606) 14487
(0.0137304 0.00378353 0.00367009) 14547
(0.0215238 0.00627813 0.00199722) 13483
(0.0229955 0.00639767 0.00213683) 13425
(0.0165991 0.00463555 0.000901067) 11553
(0.0165953 0.00522737 0.000647947) 11913
(0.0190594 0.00302403 0.00328789) 818
(0.0191595 0.00654805 0.00157848) 6758
(0.0137414 0.00638273 0.00289217) 13527
(0.0137334 0.00368991 0.00345611) 14487
(0.0137067 0.00378344 0.00367009) 14547
(0.021423 0.00627839 0.00199528) 13482
(0.0229606 0.00639063 0.00212981) 13425
(0.0165557 0.00464109 0.000899077) 11553
(0.0165325 0.00523195 0.000648231) 11913
(0.0182249 0.00511573 0.000618831) 11916
(0.0189702 0.00302133 0.00328416) 817
(0.0190043 0.0065599 0.00157448) 6758
(0.0137183 0.00638265 0.00289225) 13527
(0.0137093 0.00368979 0.00345617) 14487
(0.0142145 0.00368504 0.00345727) 14488
(0.0136831 0.00378333 0.00367011) 14547
(0.0213151 0.00627928 0.00199421) 13482
(0.0229244 0.00638357 0.00212253) 13425
(0.0165116 0.00464655 0.000897049) 11553
(0.0164687 0.00523658 0.000648426) 11912
(0.0182012 0.00512396 0.000623479) 11916
(0.0188786 0.00301834 0.00328056) 817
(0.0188394 0.00657376 0.00157061) 6757
(0.0136952 0.0063826 0.00289232) 13527
(0.0136852 0.00368965 0.00345623) 14487
(0.0141904 0.00368533 0.00345724) 14488
(0.0136595 0.00378321 0.00367013) 14547
(0.0141546 0.00377974 0.00367509) 14548
(0.0212003 0.00628082 0.00199328) 13482
(0.0228868 0.00637647 0.00211503) 13425
(0.0164669 0.00465195 0.000894976) 11552
(0.0164039 0.0052413 0.000648554) 11912
(0.0181723 0.00513144 0.000627523) 11916
(0.018783 0.00301494 0.00327732) 817
(0.0187076 0.00657967 0.00156781) 6757
(0.013672 0.00638257 0.00289239) 13527
(0.0141509 0.00639006 0.00288936) 13528
(0.0136611 0.0036895 0.00345629) 14487
(0.0141664 0.0036856 0.00345722) 14488
(0.013636 0.00378307 0.00367017) 14547
(0.0141304 0.00377994 0.0036749) 14548
(0.0210788 0.00628305 0.00199275) 13482
(0.022848 0.00636945 0.00210753) 13425
(0.0164212 0.00465731 0.000892852) 11552
(0.0163376 0.00524613 0.000648601) 11912
(0.0181419 0.00513856 0.00063132) 11916
(0.018685 0.00301122 0.00327437) 817
(0.018605 0.00658265 0.00156626) 6757
(0.0136488 0.00638256 0.00289246) 13527
(0.0141288 0.00638959 0.00288952) 13528
(0.0136371 0.00368932 0.00345636) 14487
(0.0141423 0.00368586 0.0034572) 14488
(0.0136125 0.00378292 0.00367022) 14547
(0.0141063 0.00378011 0.00367472) 14548
(0.0209491 0.00628619 0.00199302) 13481
(0.022807 0.00636243 0.00210001) 13425
(0.0163743 0.00466265 0.00089067) 11552
(0.01627 0.00525109 0.000648598) 11912
(0.0181099 0.00514534 0.000634901) 11916
(0.0185829 0.00300702 0.00327173) 817
(0.0185099 0.00658512 0.00156499) 6757
(0.0136256 0.00638258 0.00289251) 13527
(0.0141067 0.00638915 0.00288968) 13528
(0.0136132 0.00368912 0.00345642) 14487
(0.0141182 0.0036861 0.00345718) 14488
(0.013589 0.00378275 0.00367028) 14547
(0.0140823 0.00378028 0.00367454) 14548
(0.0208104 0.00629013 0.00199348) 13481
(0.0227642 0.00635542 0.00209224) 13425
(0.0163266 0.00466798 0.000888427) 11552
(0.0180764 0.00515181 0.000638265) 11916
(0.0184792 0.00300265 0.00326922) 816
(0.0184215 0.00658786 0.00156418) 6756
(0.0136024 0.00638262 0.00289256) 13527
(0.0140845 0.00638872 0.00288983) 13528
(0.0135892 0.0036889 0.0034565) 14487
(0.0140942 0.00368633 0.00345717) 14488
(0.0135656 0.00378257 0.00367035) 14547
(0.0140582 0.00378043 0.00367437) 14548
(0.0206634 0.00629508 0.00199408) 13481
(0.0227194 0.00634863 0.0020848) 13485
(0.0162778 0.00467332 0.000886119) 11552
(0.0180411 0.00515797 0.000641403) 11916
(0.0183718 0.00299789 0.00326693) 32257
(0.0183482 0.00659113 0.00156445) 6756
(0.0135791 0.00638268 0.0028926) 13527
(0.0140622 0.00638831 0.00288998) 13528
(0.0135653 0.00368867 0.00345657) 14487
(0.0140701 0.00368654 0.00345715) 14488
(0.0135423 0.00378237 0.00367042) 14547
(0.0140342 0.00378056 0.0036742) 14548
(0.0205083 0.00630122 0.0019951) 13481
(0.0226724 0.00634207 0.00207783) 13485
(0.016228 0.00467865 0.000883744) 11612
(0.0180039 0.00516383 0.000644307) 11916
(0.0182611 0.00299294 0.00326484) 32257
(0.0182829 0.00659466 0.00156525) 6756
(0.0135558 0.00638276 0.00289263) 13527
(0.0140398 0.00638792 0.00289012) 13528
(0.0134467 0.00421415 0.00186507) 14126
(0.0135414 0.00368841 0.00345665) 14487
(0.014046 0.00368673 0.00345714) 14488
(0.0145468 0.00367742 0.00345886) 14489
(0.013519 0.00378216 0.00367051) 14547
(0.0140102 0.00378068 0.00367404) 14548
(0.0135598 0.00638783 0.00312698) 15267
(0.0203425 0.00630855 0.00199612) 13480
(0.0226231 0.00633566 0.00207107) 13485
(0.0161771 0.00468396 0.000881298) 11612
(0.0179645 0.0051694 0.000646961) 11915
(0.0181463 0.0029878 0.00326296) 32257
(0.0205852 0.0030403 0.00334197) 821
(0.0182169 0.00659823 0.00156587) 6756
(0.0135325 0.00638287 0.00289266) 13527
(0.0140174 0.00638755 0.00289026) 13528
(0.0134244 0.00421396 0.00186506) 14126
(0.0135176 0.00368813 0.00345674) 14487
(0.0140219 0.00368691 0.00345713) 14488
(0.0145231 0.00367785 0.00345878) 14489
(0.0134957 0.00378193 0.00367061) 14546
(0.0139862 0.00378078 0.00367389) 14547
(0.0133375 0.00500724 0.00438172) 14846
(0.0135365 0.00638797 0.00312706) 15267
(0.0140226 0.00639133 0.00312647) 15268
(0.0201677 0.00631738 0.00199736) 13480
(0.0225719 0.00632936 0.00206403) 13485
(0.0161252 0.00468927 0.000878794) 11612
(0.0176307 0.00456055 0.000921706) 11555
(0.0179227 0.0051747 0.000649364) 11915
(0.0180266 0.00298274 0.00326122) 32257
(0.0205199 0.0030405 0.00333745) 821
(0.0181501 0.00660179 0.00156634) 6756
(0.0135091 0.006383 0.00289267) 13527
(0.0139949 0.0063872 0.0028904) 13527
(0.014452 0.00640012 0.00288657) 13528
(0.0134022 0.00421375 0.00186503) 14126
(0.0134938 0.00368784 0.00345682) 14486
(0.0139977 0.00368706 0.00345712) 14487
(0.0144994 0.00367827 0.00345871) 14488
(0.0134724 0.00378169 0.00367071) 14546
(0.0139622 0.00378087 0.00367374) 14547
(0.0144615 0.00377402 0.00368054) 14548
(0.0133147 0.00500709 0.00438207) 14846
(0.0137955 0.00501006 0.00438133) 14847
(0.0135132 0.00638814 0.00312714) 15267
(0.0139999 0.00639102 0.00312649) 15267
(0.0199837 0.00632825 0.00199906) 13479
(0.0225183 0.00632336 0.00205743) 13485
(0.016072 0.00469456 0.00087623) 11612
(0.0175991 0.00456828 0.000920093) 11555
(0.0178787 0.00517975 0.000651527) 11915
(0.0179028 0.00297797 0.00325953) 32113
(0.0204525 0.0030406 0.00333305) 820
(0.0180833 0.00660521 0.00156665) 6756
(0.0134857 0.00638314 0.00289268) 13526
(0.0139723 0.00638687 0.00289053) 13527
(0.014431 0.00639947 0.00288674) 13528
(0.01338 0.00421353 0.001865) 14126
(0.0138385 0.00421231 0.00186131) 14127
(0.01347 0.00368752 0.00345691) 14486
(0.0139736 0.00368719 0.00345711) 14487
(0.0144756 0.00367867 0.00345864) 14488
(0.0134493 0.00378144 0.00367083) 14546
(0.0139383 0.00378094 0.00367361) 14547
(0.0144374 0.00377433 0.0036803) 14548
(0.0132919 0.00500695 0.00438242) 14846
(0.0137722 0.00500986 0.00438129) 14847
(0.0134899 0.00638832 0.00312723) 15266
(0.0139772 0.00639073 0.00312651) 15267
(0.0197899 0.00634145 0.00200126) 13479
(0.0224621 0.00631773 0.00205137) 13484
(0.0160175 0.00469981 0.000873581) 11612
(0.0175671 0.00457575 0.00091848) 11555
(0.0178323 0.0051846 0.000653465) 11915
(0.0177714 0.00297336 0.00325795) 32113
(0.0203835 0.00304057 0.00332875) 820
(0.0180159 0.00660855 0.00156679) 6756
(0.0134623 0.00638331 0.00289268) 13526
(0.0139497 0.00638656 0.00289065) 13527
(0.01441 0.00639883 0.0028869) 13528
(0.0133578 0.0042133 0.00186495) 14126
(0.013816 0.00421238 0.00186152) 14127
(0.0134463 0.00368718 0.00345701) 14486
(0.0139494 0.00368731 0.00345711) 14487
(0.0144518 0.00367907 0.00345857) 14488
(0.0134261 0.00378116 0.00367095) 14546
(0.0139143 0.003781 0.00367348) 14547
(0.0144133 0.00377463 0.00368005) 14548
(0.0132692 0.00500681 0.00438279) 14846
(0.013749 0.00500967 0.00438128) 14847
(0.0134666 0.00638852 0.00312732) 15266
(0.0139543 0.00639047 0.00312653) 15267
(0.0195857 0.00635781 0.00200458) 13479
(0.0224033 0.00631227 0.00204522) 13484
(0.0175336 0.00458294 0.000916878) 11555
(0.0177835 0.00518927 0.000655177) 11915
(0.0176265 0.0029683 0.00325676) 32113
(0.0203112 0.00304033 0.00332462) 820
(0.0179479 0.00661184 0.00156678) 6755
(0.0203702 0.00652992 0.00159666) 6760
(0.0134388 0.0063835 0.00289267) 13526
(0.013927 0.00638627 0.00289078) 13527
(0.0143889 0.0063982 0.00288707) 13528
(0.0133356 0.00421306 0.0018649) 14126
(0.0137935 0.00421244 0.00186172) 14127
(0.0134225 0.00368682 0.00345711) 14486
(0.0139252 0.0036874 0.00345711) 14487
(0.014428 0.00367945 0.0034585) 14488
(0.013403 0.00378088 0.00367109) 14546
(0.0138904 0.00378104 0.00367336) 14547
(0.0143892 0.00377492 0.00367982) 14548
(0.0132465 0.00500667 0.00438317) 14846
(0.0137257 0.00500947 0.00438129) 14847
(0.0134432 0.00638875 0.00312741) 15266
(0.0139314 0.00639022 0.00312656) 15267
(0.01937 0.00637843 0.0020093) 13478
(0.0223429 0.00630712 0.002039) 13484
(0.0174984 0.00458986 0.000915285) 11554
(0.0177324 0.00519377 0.000656685) 11915
(0.0174646 0.00296243 0.00325615) 31969
(0.0202376 0.00304 0.00332058) 820
(0.0178794 0.00661527 0.00156658) 6755
(0.0202989 0.00653161 0.00159547) 6760
(0.0134153 0.00638371 0.00289265) 13526
(0.0139042 0.00638601 0.0028909) 13527
(0.0143677 0.00639759 0.00288723) 13528
(0.0133135 0.00421281 0.00186484) 14126
(0.0137711 0.00421248 0.0018619) 14127
(0.0133988 0.00368643 0.00345721) 14486
(0.013901 0.00368746 0.00345712) 14487
(0.0144042 0.00367982 0.00345844) 14488
(0.0133799 0.00378058 0.00367123) 14546
(0.0138666 0.00378107 0.00367326) 14547
(0.0143651 0.0037752 0.00367958) 14548
(0.0132237 0.00500654 0.00438356) 14846
(0.0137025 0.00500928 0.00438132) 14847
(0.0134199 0.00638898 0.00312751) 15266
(0.0139085 0.00639 0.00312659) 15267
(0.0222789 0.00630249 0.00203325) 13484
(0.0174613 0.00459653 0.000913693) 11554
(0.0176791 0.00519815 0.000658005) 11915
(0.0172835 0.00295546 0.00325627) 31969
(0.0201627 0.00303955 0.00331661) 820
(0.0178118 0.00661882 0.00156625) 6755
(0.0202175 0.00653417 0.00159355) 6760
(0.0133918 0.00638394 0.00289263) 13526
(0.0138813 0.00638577 0.00289101) 13527
(0.0143464 0.00639699 0.00288739) 13528
(0.0132913 0.00421255 0.00186477) 14126
(0.0137486 0.00421251 0.00186208) 14127
(0.0133752 0.00368604 0.00345732) 14486
(0.0138768 0.00368751 0.00345714) 14487
(0.0143804 0.00368018 0.00345838) 14488
(0.0133569 0.00378027 0.00367139) 14546
(0.0138428 0.00378108 0.00367316) 14547
(0.014341 0.00377546 0.00367935) 14548
(0.013201 0.00500641 0.00438397) 14846
(0.0136792 0.00500908 0.00438137) 14847
(0.0133965 0.00638924 0.00312762) 15266
(0.0138855 0.00638981 0.00312662) 15267
(0.022212 0.00629836 0.00202796) 13484
(0.0174225 0.00460297 0.000912093) 11554
(0.0176236 0.00520242 0.00065914) 11915
(0.0170809 0.00294685 0.00325734) 31969
(0.0200849 0.00303891 0.00331275) 820
(0.0177444 0.00662241 0.00156575) 2495
(0.0201258 0.00653767 0.001591) 6760
(0.0133683 0.00638419 0.0028926) 13526
(0.0138584 0.00638555 0.00289112) 13527
(0.014325 0.0063964 0.00288756) 13528
(0.0136881 0.00441885 0.00174531) 14067
(0.0132692 0.00421228 0.00186469) 14126
(0.0137261 0.00421253 0.00186224) 14127
(0.0133515 0.00368562 0.00345743) 14486
(0.0138526 0.00368753 0.00345715) 14487
(0.0143565 0.00368053 0.00345833) 14488
(0.0133339 0.00377995 0.00367156) 14546
(0.013819 0.00378108 0.00367308) 14547
(0.0143169 0.00377572 0.00367913) 14548
(0.0131784 0.00500629 0.00438439) 14846
(0.013656 0.00500889 0.00438143) 14847
(0.0133731 0.00638951 0.00312773) 15266
(0.0138624 0.00638963 0.00312666) 15267
(0.0221425 0.00629456 0.00202239) 13484
(0.0173823 0.00460922 0.000910483) 11554
(0.0175661 0.00520662 0.000660116) 11915
(0.0168577 0.00293616 0.00325941) 31825
(0.0200054 0.00303813 0.00330899) 820
(0.017676 0.00662603 0.00156498) 2495
(0.020024 0.00654223 0.00158801) 6760
(0.0133447 0.00638445 0.00289256) 13526
(0.0138353 0.00638535 0.00289123) 13527
(0.0143035 0.00639582 0.00288772) 13528
(0.013214 0.00441758 0.0017471) 14066
(0.0136657 0.00441885 0.00174545) 14067
(0.0132471 0.004212 0.0018646) 14126
(0.0137037 0.00421253 0.0018624) 14127
(0.0133279 0.00368518 0.00345754) 14486
(0.0138284 0.00368753 0.00345718) 14487
(0.0143325 0.00368087 0.00345828) 14488
(0.0133109 0.00377961 0.00367173) 14546
(0.0137952 0.00378105 0.00367301) 14547
(0.0142927 0.00377597 0.00367891) 14548
(0.0131557 0.00500617 0.00438481) 14846
(0.0136329 0.00500869 0.00438152) 14847
(0.0133497 0.0063898 0.00312784) 15266
(0.0138392 0.00638948 0.0031267) 15267
(0.0143129 0.00639884 0.00312697) 15268
(0.0220692 0.00629119 0.00201688) 13484
(0.0233007 0.00646262 0.00219136) 6106
(0.0173406 0.00461528 0.000908859) 11554
(0.0175067 0.00521077 0.000660948) 11915
(0.0188986 0.0050791 0.000603706) 7837
(0.016615 0.00292267 0.00326266) 31825
(0.0199251 0.00303723 0.00330526) 819
(0.0176058 0.00662957 0.00156386) 2495
(0.019912 0.00654811 0.00158469) 6759
(0.0133212 0.00638474 0.00289251) 13526
(0.0138123 0.00638518 0.00289133) 13527
(0.014282 0.00639526 0.00288788) 13528
(0.0131918 0.00441743 0.00174686) 14066
(0.0136434 0.00441883 0.00174558) 14067
(0.0132251 0.00421171 0.00186451) 14126
(0.0136812 0.00421252 0.00186254) 14127
(0.0141363 0.00420711 0.00185513) 14128
(0.0133043 0.00368473 0.00345766) 14486
(0.0138041 0.00368751 0.00345721) 14487
(0.0143086 0.00368119 0.00345824) 14488
(0.013288 0.00377926 0.00367192) 14546
(0.0137715 0.00378102 0.00367295) 14547
(0.0142686 0.00377621 0.0036787) 14548
(0.013133 0.00500606 0.00438525) 14846
(0.0136097 0.0050085 0.00438162) 14847
(0.0133263 0.0063901 0.00312796) 15266
(0.013816 0.00638935 0.00312674) 15267
(0.0142911 0.0063983 0.00312696) 15268
(0.0219919 0.00628841 0.00201189) 13483
(0.0232687 0.00645491 0.0021851) 6106
(0.0172975 0.00462118 0.000907213) 11554
(0.0174458 0.0052149 0.000661644) 11914
(0.0188978 0.00509051 0.000610748) 7837
(0.0163626 0.00290644 0.00326716) 31681
(0.0198419 0.00303612 0.00330165) 819
(0.0175327 0.00663304 0.00156227) 2495
(0.0197897 0.00655545 0.00158115) 6759
(0.0132976 0.00638504 0.00289246) 13526
(0.0137891 0.00638503 0.00289143) 13527
(0.0142603 0.00639471 0.00288804) 13528
(0.0131696 0.00441727 0.00174662) 14066
(0.0136211 0.00441881 0.00174568) 14067
(0.013203 0.00421141 0.0018644) 14126
(0.0136587 0.00421249 0.00186267) 14127
(0.0141143 0.00420734 0.00185551) 14128
(0.0132808 0.00368426 0.00345777) 14486
(0.0137799 0.00368747 0.00345725) 14487
(0.0142846 0.0036815 0.0034582) 14488
(0.0132651 0.0037789 0.00367212) 14546
(0.0137478 0.00378097 0.00367291) 14547
(0.0142444 0.00377644 0.0036785) 14548
(0.0131104 0.00500595 0.00438569) 14846
(0.0135866 0.00500831 0.00438175) 14847
(0.0133029 0.00639041 0.00312808) 15266
(0.0137928 0.00638925 0.00312679) 15267
(0.0142692 0.00639778 0.00312695) 15268
(0.0219104 0.0062861 0.00200728) 13483
(0.0232363 0.00644716 0.00217863) 6106
(0.0172533 0.00462694 0.000905545) 11554
(0.0173832 0.00521901 0.000662216) 11914
(0.0188934 0.00510126 0.000617372) 7837
(0.0161138 0.00288808 0.00327243) 31681
(0.0197569 0.00303481 0.00329805) 819
(0.0174569 0.00663634 0.00156018) 2494
(0.0196562 0.00656457 0.00157748) 6759
(0.0132739 0.00638536 0.0028924) 13526
(0.0137659 0.00638491 0.00289152) 13527
(0.0142386 0.00639418 0.00288821) 13528
(0.0131474 0.00441711 0.00174636) 14066
(0.0135987 0.00441878 0.00174577) 14067
(0.013181 0.0042111 0.00186429) 14126
(0.0136363 0.00421245 0.00186278) 14127
(0.0140923 0.00420756 0.00185588) 14128
(0.0132573 0.00368378 0.00345789) 14486
(0.0137557 0.00368741 0.00345729) 14487
(0.0142606 0.0036818 0.00345817) 14488
(0.0132422 0.00377853 0.00367233) 14546
(0.0137241 0.00378091 0.00367288) 14547
(0.0142203 0.00377666 0.0036783) 14548
(0.0130877 0.00500584 0.00438614) 14846
(0.0135635 0.00500812 0.00438189) 14847
(0.0132795 0.00639074 0.00312821) 15266
(0.0137695 0.00638916 0.00312685) 15267
(0.0142472 0.00639726 0.00312694) 15268
(0.0218237 0.00628419 0.00200231) 13483
(0.0232028 0.00643941 0.00217201) 13426
(0.0172081 0.00463259 0.000903856) 11554
(0.0173195 0.00522316 0.000662695) 11914
(0.0188855 0.00511137 0.000623589) 11917
(0.0158925 0.00287009 0.00327749) 31537
(0.0196694 0.00303325 0.00329448) 819
(0.017378 0.00663939 0.00155751) 2494
(0.0195099 0.00657578 0.00157366) 6759
(0.0132503 0.0063857 0.00289233) 13526
(0.0137427 0.0063848 0.00289161) 13527
(0.0142168 0.00639366 0.00288837) 13528
(0.0129854 0.00579566 0.00189346) 13765
(0.0131252 0.00441694 0.00174609) 14066
(0.0135764 0.00441874 0.00174584) 14067
(0.013159 0.00421078 0.00186417) 14126
(0.0136139 0.0042124 0.00186288) 14127
(0.0140702 0.00420777 0.00185624) 14128
(0.0132338 0.00368328 0.00345801) 14486
(0.0137316 0.00368733 0.00345734) 14487
(0.0142365 0.00368209 0.00345815) 14488
(0.0132194 0.00377815 0.00367254) 14546
(0.0137005 0.00378083 0.00367286) 14547
(0.0141962 0.00377687 0.00367811) 14548
(0.0130651 0.00500574 0.0043866) 14846
(0.0135404 0.00500794 0.00438204) 14847
(0.013256 0.00639108 0.00312835) 15266
(0.0137462 0.0063891 0.0031269) 15267
(0.0142252 0.00639677 0.00312694) 15268
(0.0217321 0.00628282 0.001998) 13483
(0.0231691 0.00643167 0.00216528) 13426
(0.017162 0.00463815 0.000902132) 11554
(0.0172545 0.00522734 0.000663077) 11914
(0.0188712 0.00512053 0.000629154) 11917
(0.0157238 0.00285569 0.00328065) 31537
(0.0195787 0.00303139 0.00329097) 819
(0.0172953 0.00664201 0.00155416) 2494
(0.019376 0.00658294 0.00157059) 6758
(0.0132266 0.00638606 0.00289226) 13526
(0.0137194 0.00638473 0.00289169) 13527
(0.0141949 0.00639316 0.00288853) 13528
(0.012963 0.00579586 0.00189314) 13765
(0.013103 0.00441677 0.00174581) 14066
(0.013554 0.0044187 0.00174588) 14067
(0.013137 0.00421045 0.00186404) 14126
(0.0135914 0.00421233 0.00186297) 14127
(0.0140481 0.00420797 0.00185659) 14128
(0.0132103 0.00368277 0.00345813) 14486
(0.0137074 0.00368723 0.00345739) 14487
(0.0142125 0.00368237 0.00345812) 14488
(0.0131966 0.00377776 0.00367277) 14546
(0.0136769 0.00378074 0.00367285) 14547
(0.014172 0.00377707 0.00367792) 14548
(0.0130425 0.00500565 0.00438706) 14846
(0.0135174 0.00500776 0.00438222) 14847
(0.0132326 0.00639144 0.00312848) 15266
(0.0137228 0.00638907 0.00312696) 15267
(0.014203 0.00639629 0.00312693) 15268
(0.0216345 0.00628193 0.0019946) 13483
(0.0231344 0.00642391 0.00215831) 13426
(0.0171151 0.00464361 0.000900372) 11554
(0.0171882 0.00523156 0.000663352) 11914
(0.0188521 0.00512894 0.000634169) 11917
(0.0194876 0.00302931 0.00328743) 818
(0.0172081 0.00664417 0.00155002) 2494
(0.0192623 0.0065866 0.00156857) 6758
(0.0132029 0.00638643 0.00289219) 13526
(0.013696 0.00638467 0.00289177) 13527
(0.0141729 0.00639268 0.00288869) 13528
(0.0129405 0.00579606 0.00189282) 13765
(0.0130808 0.0044166 0.00174551) 14066
(0.0135317 0.00441865 0.00174592) 14067
(0.0139819 0.00441747 0.00173836) 14067
(0.013115 0.00421011 0.00186389) 14126
(0.013569 0.00421225 0.00186305) 14127
(0.014026 0.00420816 0.00185692) 14128
(0.0131869 0.00368225 0.00345825) 14486
(0.0136833 0.00368711 0.00345745) 14487
(0.0141884 0.00368263 0.0034581) 14488
(0.0131738 0.00377736 0.00367299) 14546
(0.0136534 0.00378064 0.00367286) 14547
(0.0141479 0.00377725 0.00367774) 14548
(0.0130198 0.00500555 0.00438753) 14846
(0.0134944 0.00500758 0.00438241) 14846
(0.0132092 0.00639181 0.00312862) 15266
(0.0136994 0.00638906 0.00312702) 15267
(0.0141808 0.00639584 0.00312693) 15268
(0.0215305 0.00628152 0.00199115) 13483
(0.0230988 0.00641614 0.00215112) 13426
(0.0170674 0.00464898 0.000898564) 11554
(0.0171208 0.00523586 0.000663552) 11914
(0.0188302 0.00513687 0.000638898) 11917
(0.019394 0.0030269 0.00328392) 818
(0.0191665 0.00658932 0.00156768) 6758
(0.0131792 0.00638682 0.00289211) 13526
(0.0136727 0.00638464 0.00289184) 13527
(0.0141508 0.00639221 0.00288884) 13528
(0.0129181 0.00579627 0.0018925) 13765
(0.0130586 0.00441642 0.00174521) 14066
(0.0135094 0.00441859 0.00174593) 14067
(0.01396 0.00441757 0.00173874) 14067
(0.013093 0.00420977 0.00186374) 14126
(0.0135467 0.00421215 0.00186312) 14127
(0.0140038 0.00420834 0.00185725) 14128
(0.0131635 0.00368171 0.00345837) 14486