/*--------------------------------*- C++ -*----------------------------------*\
| =========                 |                                                 |
| \\      /  F ield         | OpenFOAM: The Open Source CFD Toolbox           |
|  \\    /   O peration     | Version:  2.1.1                                 |
|   \\  /    A nd           | Web:      www.OpenFOAM.org                      |
|    \\/     M anipulation  |                                                 |
\*---------------------------------------------------------------------------*/
FoamFile
{
    version     2.0;
    format      ascii;
    class       scalarField;
    location    "0.0012";
    object      T;
}
// * * * * * * * * * * * * * * * * * * * * * * * * * * * * * * * * * * * * * //


44469
(
593.543
496.283
489.601
482.89
476.677
470.301
463.963
457.818
451.98
446.782
442.094
437.883
434.382
431.597
429.667
428.225
427.268
544.468
536.313
528.075
519.72
511.536
503.528
495.059
486.497
477.876
469.267
460.706
452.829
444.521
436.27
428.212
420.524
413.816
406.992
603.571
400.661
595.114
665.093
394.891
586.446
656.449
390.042
577.634
647.877
385.245
568.981
638.789
380.734
560.058
628.857
376.478
550.732
618.416
541.172
607.062
531.481
595.066
3.91153e+180
583.907
4.72822e+222
574.017
501.556
563.777
491.978
482.268
472.112
461.915
719.092
451.7
712.793
441.66
706.16
432.522
3.91153e+180
422.671
653.578
691.438
412.847
645.481
683.353
403.181
637.006
674.834
394.745
628.31
666.087
386.131
619.427
657.246
377.65
610.25
648.01
369.586
600.721
638.403
362.594
590.879
628.142
3.91153e+180
580.783
616.744
347.768
570.43
604.315
340.716
3.91153e+180
590.742
549.766
575.482
538.946
557.96
527.783
705.982
539.103
1.19354e+190
706.294
519.274
741.865
504.708
2.06697e+161
496.937
737.404
492.932
706.437
473.965
2.06685e+161
481.478
2.06697e+161
727.22
2.06697e+161
705.945
721.48
458.76
705.443
715.298
446.946
699.304
704.787
708.77
435.18
691.285
703.947
6.75387e+87
423.905
2.06697e+161
702.735
694.113
413.233
674.136
701.158
686.183
401.703
665.215
6.75387e+87
9.09155e+223
2.06697e+161
656.14
696.913
668.953
380.037
646.783
660.211
369.982
637.311
651.553
359.796
627.632
643.017
350.197
617.637
729.962
634.557
341.348
607.301
6.75387e+87
625.904
331.919
596.529
734.22
616.635
322.754
4.2695e+257
675.878
735.865
606.561
766.012
573.865
2.06697e+161
737.14
9.09155e+223
4.2695e+257
561.917
674.754
738.249
582.775
757.716
549.858
673.827
739.065
568.261
753.369
537.963
672.693
739.324
550.66
749.219
4.2695e+257
671.34
9.09155e+223
9.09155e+223
744.391
512.322
669.763
738.813
504.847
739.11
507.353
498.958
749.484
667.923
738.257
480.322
733.588
640.214
506.656
568.736
485.39
9.09155e+223
665.84
737.442
455.564
727.676
638.903
505.774
567.289
472.093
735.546
663.482
736.402
721.347
637.705
518.944
504.865
565.787
459.45
728.363
660.847
735.31
710.716
714.812
636.543
517.769
503.918
486.641
564.326
446.002
2.06697e+161
657.936
9.09155e+223
714.378
707.392
635.417
516.651
503
486.082
562.889
549.875
432.471
712.99
9.09155e+223
732.583
717.513
699.602
633.563
515.658
513.798
502.203
485.608
561.457
549.306
419.044
704.58
651.031
9.09155e+223
720.367
691.494
631.455
514.743
512.118
501.44
485.183
560.013
548.728
2.06697e+161
695.682
9.09155e+223
728.075
722.967
682.946
629.096
513.891
510.52
500.682
484.79
558.544
548.13
2.06697e+161
686.49
9.09155e+223
9.09155e+223
673.835
626.6
513.087
509.008
499.93
484.413
557.052
547.496
2.06697e+161
676.905
637.182
727.204
664.191
624.468
512.323
507.575
499.161
484.05
555.531
546.815
369.031
666.992
631.649
728.879
654.572
622.415
511.586
506.204
631.926
498.386
483.697
470.548
553.982
546.094
514.327
357.844
9.09155e+223
625.722
730.23
645.074
818.615
620.176
510.87
504.912
629.448
497.578
483.363
469.952
552.399
545.353
528.717
513.315
514.2
346.199
9.09155e+223
619.469
680.417
731.064
635.675
812.231
617.755
510.188
503.692
523.622
626.945
496.761
483.046
469.382
550.788
544.594
528.285
527.086
540.853
512.328
512.506
335.55
635.991
612.909
680.057
731.376
626.224
806.044
615.096
509.53
502.545
520.797
624.401
652.632
495.932
482.728
468.81
549.156
543.806
527.9
525.43
539.483
511.364
510.878
325.15
625.335
9.09155e+223
679.422
731.247
616.956
799.929
612.247
508.892
501.459
518.089
621.827
650.354
495.075
482.411
468.231
547.503
542.992
527.519
523.743
538.076
510.428
509.321
314.551
9.09155e+223
678.597
730.688
607.598
793.965
609.27
667.625
508.275
500.438
515.48
619.218
648.035
494.225
482.099
467.665
545.83
542.152
527.132
522.031
536.652
509.53
507.849
304.659
602.84
677.592
729.715
598.16
788.122
606.294
666.776
507.665
499.469
512.978
616.563
645.655
493.362
481.775
467.117
544.13
541.277
526.728
520.323
535.215
508.666
506.458
590.856
9.09155e+223
728.323
588.64
782.405
603.226
665.641
507.056
498.539
510.55
613.854
643.206
492.477
481.443
466.582
542.399
540.363
526.317
518.619
533.784
507.839
505.143
9.09155e+223
674.834
726.535
579.279
776.809
600.015
664.196
506.433
497.638
508.198
665.487
611.08
640.722
491.556
481.096
466.063
540.622
539.398
525.88
516.953
532.355
507.042
503.895
565.489
9.09155e+223
1.49258e+195
569.507
771.444
596.732
662.488
505.78
496.751
505.909
627.011
663.006
608.223
638.26
490.575
480.729
465.553
538.776
538.368
525.4
515.322
530.925
506.259
502.711
520.058
552.077
793.295
670.924
722.191
9.09155e+223
3.94662e+180
9.09155e+223
593.326
660.577
505.092
495.866
503.685
624.476
660.575
605.337
635.854
666.558
489.526
480.32
465.052
536.852
537.242
524.853
513.728
529.491
505.478
501.575
517.42
538.713
786.91
9.09155e+223
9.09155e+223
711.465
545.903
760.35
589.721
658.845
504.342
494.966
501.512
622.025
658.18
602.502
633.483
663.963
488.401
479.803
464.534
534.822
535.972
524.214
512.168
528.052
504.68
500.449
514.844
525.107
780.13
9.09155e+223
716.279
716.776
532.624
754.394
586.002
657.35
503.493
494.02
499.374
619.636
655.82
599.746
631.143
661.429
487.118
479.102
463.968
532.632
534.632
523.51
510.644
526.608
503.829
499.307
512.317
510.629
773.061
662.914
712.225
721.631
516.954
748.213
582.124
656.022
502.509
493.019
497.323
457.412
617.309
653.479
597.051
628.825
658.956
485.789
478.342
463.364
530.411
533.294
522.879
509.157
525.158
502.895
498.109
509.868
495.693
765.722
659.618
707.716
726.011
501.044
741.782
578.258
654.203
501.498
492.037
495.409
456.47
615.032
651.141
594.406
626.523
656.54
484.485
477.549
462.764
528.267
532.004
522.285
507.71
523.701
501.879
496.904
507.523
480.342
758.174
9.09155e+223
695.414
729.824
735.254
574.445
651.99
500.531
491.122
493.598
455.536
612.788
648.813
687.668
591.809
624.228
654.171
483.336
476.826
462.238
526.213
530.727
521.707
506.304
522.241
500.893
495.782
505.305
465.165
9.09155e+223
651.998
697.396
733.05
728.04
649.566
499.711
490.306
491.904
454.612
610.577
646.492
684.932
589.255
621.936
651.851
482.31
476.18
461.78
524.223
529.446
521.13
504.941
520.776
500.021
494.746
503.184
450.784
9.09155e+223
9.09155e+223
691.638
735.68
720.129
646.94
498.969
489.566
490.303
453.698
608.391
644.175
682.241
586.738
619.645
649.574
481.36
475.562
461.371
522.274
528.149
520.55
503.621
519.301
499.217
493.769
501.147
435.546
9.09155e+223
641.112
642.847
685.785
737.723
711.761
644.133
498.286
488.885
488.789
452.792
606.218
641.866
679.597
584.259
617.355
647.322
480.466
474.938
460.998
520.329
526.826
519.965
502.327
517.818
498.462
492.833
499.188
420.207
725.661
637.445
637.488
679.282
739.347
702.98
641.303
497.661
488.249
487.355
451.9
604.067
639.559
676.996
581.806
615.06
645.098
479.62
474.301
460.653
518.412
525.476
519.359
501.062
516.326
491.923
497.307
405.265
717.062
633.301
631.549
671.984
740.648
693.729
900.252
638.585
497.083
487.647
486.001
451.011
637.252
674.428
579.385
612.746
642.885
478.808
473.636
460.334
516.514
524.093
518.722
499.829
514.824
491.029
495.503
391.734
707.988
628.673
624.983
664.059
741.585
683.735
893.983
635.763
496.548
487.073
484.716
450.121
634.937
671.874
576.995
610.406
640.67
478.012
472.95
460.02
514.628
522.679
518.06
498.628
513.31
490.142
493.771
9.09155e+223
698.344
623.564
617.795
655.553
742.12
673.077
887.268
632.649
496.037
486.516
483.511
449.222
632.607
669.332
574.626
608.04
638.453
477.228
472.238
459.717
512.749
521.234
517.382
497.455
511.783
489.262
492.117
362.979
688.255
618.044
9.09155e+223
710.704
646.487
742.286
662.055
880.199
629.22
691.918
495.538
485.985
482.377
448.305
630.255
666.794
572.272
605.647
636.234
476.459
471.511
459.425
510.881
519.763
516.688
496.31
510.241
488.392
490.537
350.692
677.908
612.01
601.776
710.213
638.095
742.083
650.869
872.723
625.447
693.244
495.054
485.473
481.305
447.378
627.882
664.24
569.937
603.22
634.005
475.712
470.779
459.143
509.031
518.267
515.974
495.189
508.682
487.536
489.021
337.671
667.164
606.122
593.005
709.415
631.39
741.607
639.838
864.863
621.35
694.075
494.606
484.98
480.288
625.478
661.664
567.614
600.755
631.74
475.016
470.036
458.876
507.218
516.742
515.24
494.085
507.097
486.703
487.586
2.06697e+161
656.222
600.849
556.851
583.788
708.321
624.575
740.825
628.871
856.688
616.938
694.472
494.177
484.497
479.33
623.032
659.05
565.308
598.247
629.439
474.379
469.288
458.609
505.445
515.185
514.48
505.506
485.893
486.226
314.331
2.06697e+161
9.09155e+223
556.786
574.182
706.98
739.548
617.978
848.392
612.323
694.494
493.777
484.013
478.421
620.534
656.462
563.014
595.693
627.095
473.791
468.531
458.354
503.716
513.59
513.69
503.919
485.109
484.939
2.06697e+161
633.464
589.13
556.488
564.22
705.424
737.677
607.036
840.045
607.468
694.149
493.388
483.512
477.551
617.956
653.953
560.729
593.084
624.699
473.244
467.755
458.094
502.022
511.956
512.857
502.341
484.34
483.724
621.669
9.09155e+223
555.933
741.077
741.077
741.077
553.932
703.642
735.188
704.861
596.07
831.683
602.331
693.525
482.992
476.711
615.357
651.512
558.445
590.411
622.313
472.73
466.95
457.829
500.355
510.279
511.967
500.799
483.586
482.574
609.541
555.097
741.315
2.06697e+161
741.315
9.09155e+223
701.181
732.257
711.968
585.516
823.465
596.87
692.695
482.446
475.886
612.868
649.129
556.152
587.665
619.986
472.234
466.109
457.537
498.701
508.543
511.01
499.293
482.837
481.48
2.06697e+161
830.794
554.025
741.442
741.442
741.442
699.368
728.896
718.755
575.418
815.371
591.054
691.776
481.852
475.064
610.453
646.797
553.842
584.935
617.704
471.75
465.225
457.207
497.055
506.732
509.961
497.819
482.082
480.422
583.481
9.09155e+223
9.09155e+223
741.424
741.424
741.424
696.786
725.087
725.14
565.838
807.568
584.844
690.815
481.196
474.225
608.092
644.505
551.511
582.281
615.455
471.259
464.268
456.793
495.403
504.817
508.777
496.379
481.302
479.371
2.06697e+161
819.242
551.361
741.226
741.226
741.226
693.891
720.85
731.087
556.388
799.924
578.231
689.566
480.461
473.346
605.779
642.239
549.239
579.691
613.229
470.742
463.169
456.203
493.735
502.74
507.523
494.974
480.472
478.303
555.096
2.06697e+161
9.09155e+223
4.2695e+257
740.847
740.847
690.668
716.412
736.535
546.251
792.279
571.229
687.948
479.6
472.406
603.509
640.001
547.063
577.15
611.025
470.148
462.056
455.563
492.035
500.658
506.333
493.596
479.559
477.18
540.239
9.09155e+223
677.816
547.999
740.634
740.634
740.634
687.095
711.722
741.49
537.449
784.769
563.731
686.242
478.696
471.485
601.28
637.781
574.653
608.834
469.577
460.947
454.887
490.351
498.694
505.171
492.255
478.584
476.064
525.637
9.09155e+223
9.09155e+223
546.184
740.538
740.538
740.538
683.139
706.238
745.861
526.697
777.281
555.859
684.389
477.877
470.668
599.09
635.572
572.19
606.652
469.103
459.962
454.31
488.764
496.806
504.013
490.952
477.655
475.035
2.06697e+161
792.154
9.09155e+223
544.251
9.09155e+223
739.69
739.69
678.783
700.127
749.631
515.987
769.812
547.74
682.336
477.172
469.938
596.936
633.376
569.764
604.466
468.754
459.076
453.769
487.295
494.978
502.847
489.688
476.823
474.085
494.043
784.569
672.787
542.101
738.391
738.391
738.391
759.221
673.996
693.522
752.782
505.521
762.307
539.38
680.083
476.551
469.268
594.799
631.187
567.37
602.283
468.511
458.245
453.246
485.928
493.192
501.662
488.457
476.042
473.187
477.491
776.704
669.957
9.09155e+223
3.94662e+180
9.09155e+223
736.862
751.751
668.77
686.372
755.284
753.977
974.579
530.873
677.698
475.996
468.654
592.672
628.995
565.003
600.107
468.364
457.46
452.725
484.65
491.434
500.452
487.252
475.296
472.322
461.047
9.09155e+223
666.595
735.068
735.068
735.068
743.579
663.068
678.669
757.173
745.22
971.146
522.595
675.308
475.487
468.09
590.564
626.795
562.658
597.922
468.293
456.714
452.197
483.441
489.696
499.212
486.071
474.578
471.473
2.06697e+161
760.215
9.09155e+223
733.024
733.024
733.024
736.749
736.749
736.749
734.758
656.86
670.493
758.483
736.115
967.258
514.17
672.907
475.006
467.565
588.471
624.577
560.343
595.706
468.266
455.993
451.661
482.261
487.964
497.936
484.914
473.873
470.641
429.096
751.543
2.06697e+161
730.691
9.09155e+223
730.691
739.491
739.491
739.491
725.373
650.016
661.907
759.396
726.677
962.899
506.212
670.283
474.542
467.073
586.395
622.343
558.054
593.465
468.244
455.288
451.109
481.097
486.232
496.623
483.784
473.173
469.816
412.406
9.09155e+223
652.899
727.968
727.968
727.968
741.722
741.722
741.722
715.463
642.542
652.396
760.031
716.767
958.054
498.817
667.354
714.975
474.069
466.607
584.332
620.089
555.779
591.19
468.215
454.583
450.535
479.939
484.5
495.278
482.679
472.464
468.989
396.548
733.36
647.019
743.283
743.283
743.283
705.096
634.44
756.027
642.208
760.358
705.955
952.749
664.138
718.228
473.631
466.162
582.277
617.811
553.519
588.885
468.185
453.878
449.947
478.791
482.768
493.905
481.595
471.746
468.169
519.399
2.06697e+161
640.505
9.09155e+223
744.335
744.335
744.335
694.328
625.721
756.391
631.336
760.349
694.647
946.94
660.593
720.943
473.204
465.731
580.229
615.501
551.274
586.547
468.155
453.204
449.349
477.658
481.051
492.508
480.532
471.015
467.355
365.436
714.698
633.148
572.834
744.908
744.908
744.908
683.119
616.378
756.501
619.919
759.999
683.926
940.67
656.706
723.147
472.805
465.31
578.187
613.15
549.044
584.176
468.164
452.563
448.741
476.564
479.359
491.085
479.486
470.285
466.554
350.785
9.09155e+223
624.967
572.021
745.354
745.354
745.354
671.519
606.422
756.308
609.732
759.294
726.133
933.908
652.497
724.851
472.432
464.89
576.151
610.749
546.827
581.769
468.223
451.965
448.119
617.414
617.414
617.414
475.531
477.701
489.635
478.469
469.567
465.772
723.187
710.638
336.705
9.09155e+223
616.572
571.191
745.708
745.708
745.708
659.618
595.866
755.797
600.066
758.317
659.059
926.675
647.95
726.132
472.074
464.466
574.116
608.278
544.622
579.312
468.338
451.404
447.486
618.174
618.174
618.174
474.566
476.072
488.153
477.499
468.871
465.01
723.235
712.085
2.06697e+161
682.969
9.09155e+223
570.366
745.942
745.942
745.942
647.552
584.767
755.029
590.397
757.098
647.497
918.9
643.047
727.093
471.733
464.027
572.064
605.792
542.429
576.802
468.502
450.871
446.833
618.955
618.955
618.955
473.675
474.481
486.635
531.828
476.574
468.201
464.268
532.956
678.609
723.213
713.912
2.06697e+161
671.647
599.271
569.454
746.083
746.083
746.083
635.317
573.233
754.015
580.611
755.672
635.971
910.648
637.771
727.73
471.389
463.556
479.501
569.993
603.356
540.243
574.225
631.421
631.421
631.421
468.688
450.357
446.152
619.748
619.748
619.748
472.858
472.914
485.069
532.145
475.693
467.548
463.537
536.653
683.148
723.4
716.166
2.06697e+161
659.976
873.596
589.845
568.257
746.278
746.278
746.278
622.813
561.215
752.719
570.625
753.852
723.38
624.204
902.002
632.066
728.157
471.024
463.045
685.364
479.743
587.571
567.967
601.003
538.059
571.61
582.017
632.434
632.434
632.434
468.866
449.85
445.444
620.552
620.552
620.552
472.115
471.358
483.445
532.428
474.857
466.904
462.804
540.699
687.97
724.244
718.842
872.552
648.139
868.488
9.09155e+223
566.729
746.356
746.356
746.356
548.751
751.119
560.377
751.575
731.149
612.477
893.035
625.888
728.431
470.627
462.491
686.598
479.967
588.165
565.992
598.712
535.866
569.054
583.425
562.383
633.469
633.469
633.469
469.015
449.329
444.693
621.373
621.373
621.373
553.204
471.424
469.802
481.748
532.691
474.081
768.213
466.254
462.056
544.689
692.746
1289.24
1159.7
725.549
722.33
871.085
635.865
863.072
569.482
564.831
745.896
745.896
745.896
535.822
749.152
748.801
738.444
600.682
883.71
619.202
728.342
470.175
461.872
687.719
480.171
588.726
564.088
596.459
533.701
566.555
584.757
563.193
634.493
634.493
634.493
469.123
448.771
443.867
622.201
622.201
622.201
554.434
470.753
468.234
479.951
532.938
473.369
767.776
465.582
461.271
950.075
548.684
698.138
1175.56
1288.26
1158.97
727.412
728.011
870.702
1135.28
623.379
857.361
558.681
709.721
562.556
745.065
745.065
745.065
522.504
746.796
745.603
745.234
588.773
874.139
611.966
727.791
469.667
461.165
688.836
480.359
589.282
562.281
594.246
531.594
564.104
586.002
564.001
635.476
635.476
635.476
469.222
448.189
442.923
622.997
622.997
622.997
555.707
498.594
470.094
466.651
478.03
533.165
472.721
767.302
464.865
460.429
991.17
991.71
947.66
553.276
705.523
1170.97
1281.09
1158.25
729.285
697.871
872.654
1168.82
1049.63
1134.86
610.484
851.38
710.629
559.987
743.939
743.939
743.939
508.935
744.055
741.999
751.52
577.414
864.434
604.348
726.869
469.102
460.341
689.972
480.541
589.866
560.558
592.074
637.695
637.695
637.695
529.588
561.7
587.175
564.794
636.417
636.417
636.417
469.342
447.586
441.985
623.768
623.768
623.768
556.972
499.18
469.471
465.059
476.182
533.357
472.135
766.781
464.094
459.501
975.442
990.711
944.983
1168.45
1268.12
1157.69
1856.31
1553.26
700.667
878.477
1155.29
1336.9
1136.09
596.962
845.128
711.344
2.06697e+161
742.466
742.466
742.466
819.912
495.184
740.897
737.937
757.312
566.127
854.754
596.062
725.647
468.559
459.517
691.056
480.724
590.455
558.908
589.943
639.317
639.317
639.317
527.673
559.335
588.265
565.582
637.333
637.333
637.333
469.476
447.027
441.049
624.51
624.51
624.51
558.219
499.826
468.905
463.496
474.42
533.496
471.612
766.223
463.31
458.534
966.423
990.675
943.077
1252.57
1157.08
1926.56
1609.64
704.335
888.643
1135.48
1235.14
1124.54
582.62
838.624
711.779
554.214
740.628
740.628
740.628
815.12
737.325
733.396
762.582
555.098
845.144
587.134
724.196
468.082
458.794
692.075
480.91
591.073
557.326
587.846
640.918
640.918
640.918
525.844
556.997
589.279
566.377
638.231
638.231
638.231
469.625
446.544
440.221
625.227
625.227
625.227
559.447
500.525
468.397
462.002
472.717
533.587
510.542
471.15
765.641
462.545
457.628
969.201
988.395
941.768
1231.82
1157.93
1948.8
1679.31
708.107
1137.61
1133.26
567.557
9.09155e+223
711.805
550.964
643.323
738.407
738.407
738.407
737.102
737.102
737.102
809.349
733.313
603.819
728.457
767.315
544.376
835.614
577.64
722.538
467.667
458.139
693.061
481.109
458.804
591.733
555.811
585.78
642.49
642.49
642.49
524.098
554.687
590.223
558.178
567.183
639.111
639.111
639.111
574.435
469.787
446.173
439.46
625.922
625.922
625.922
560.655
501.267
467.952
460.612
471.053
533.635
511.268
470.748
765.046
461.801
456.797
975.428
987.286
938.649
886.737
1208.45
1157.33
1948.6
1755.85
711.875
856.897
1134.27
1132.91
551.818
824.835
711.347
547.452
642.256
735.756
735.756
735.756
741.218
741.218
741.218
802.532
728.841
602.702
722.904
771.446
532.65
826.288
1029.96
567.62
720.628
467.302
457.528
693.993
481.34
458.933
592.435
554.359
583.742
644.026
644.026
644.026
522.429
552.408
591.099
560.676
567.996
639.971
639.971
639.971
575.761
469.995
445.897
438.741
626.601
626.601
626.601
561.844
502.051
467.573
459.311
469.417
533.639
511.947
470.407
764.446
461.119
456.01
979.32
986.186
937.537
882.823
1186.15
1156.51
1793.17
715.764
734.529
1137.83
1132.24
535.955
9.09155e+223
710.212
543.698
640.704
732.833
732.833
732.833
744.764
744.764
744.764
795.063
723.899
601.235
716.609
775.024
521.343
817.312
1028.58
557.134
718.528
466.973
456.957
694.847
666.705
481.612
459.069
593.179
552.965
581.722
645.532
645.532
645.532
520.836
550.153
591.973
563.192
568.793
640.82
640.82
640.82
577.053
470.266
445.703
438.057
627.268
627.268
627.268
563.016
502.873
467.302
458.091
467.802
533.633
512.618
470.114
763.824
460.484
455.255
986.214
985.165
936.734
880.22
1166.4
1155.93
1056.15
1855.15
717.086
730.494
1133.43
1131.51
519.66
9.09155e+223
708.454
539.86
638.65
729.242
729.242
729.242
747.785
747.785
747.785
786.741
718.489
599.316
709.785
778.07
509.841
808.305
1026.92
546.266
716.238
466.674
456.422
695.616
668.872
481.926
459.217
593.967
599.562
551.62
579.709
646.995
646.995
646.995
519.317
547.918
592.856
565.729
569.568
641.662
641.662
641.662
578.313
470.549
445.565
437.406
627.924
627.924
627.924
564.168
503.723
467.081
456.925
466.195
533.657
513.304
469.862
763.178
459.89
454.515
989.298
984.121
935.903
879.466
1150.65
1156.54
1051.38
1244.67
1170.95
1416.24
1585.27
1894.01
719.29
733.504
1132.35
1130.12
9.09155e+223
802.293
706.141
535.813
636.084
725.111
725.111
725.111
750.131
750.131
750.131
777.499
712.587
596.984
702.414
780.579
497.809
799.182
1024.97
535.552
713.752
466.394
455.92
696.278
671.048
482.287
459.381
594.788
600.016
550.319
577.705
648.382
648.382
648.382
517.87
545.715
593.757
568.29
570.322
642.482
642.482
642.482
579.527
514.929
470.811
445.45
436.776
628.547
628.547
628.547
565.294
504.569
466.863
455.787
464.586
533.716
514.009
469.639
762.526
459.328
453.784
991.802
982.8
935.709
879.394
1137.75
1158.5
1048.22
1246.56
1169.59
1294.42
1697.62
1164.88
1906.26
1151.34
723.13
734.995
1133.66
1132.52
1115.96
484.525
794.263
703.106
531.394
632.986
720.485
720.485
720.485
751.872
751.872
751.872
781.921
2139.59
706.175
594.218
694.483
782.534
790.016
1022.65
524.168
711.002
732.234
466.111
455.444
696.815
673.225
482.702
459.562
595.637
600.505
549.073
575.713
649.674
649.674
649.674
592.14
516.484
543.52
594.683
570.871
571.054
540.827
643.261
643.261
643.261
580.684
516.067
471.044
445.334
436.161
629.12
629.12
629.12
566.36
505.413
466.644
454.662
462.975
533.814
514.736
598.337
469.451
761.873
510.455
458.785
453.046
996.045
980.952
934.797
879.518
1127.88
1160.14
1045.45
1251.8
1166.22
1203.89
1798.06
1165.87
1901.07
1201.47
727.908
737.428
1132.59
1133.96
1066.07
466.661
786.009
699.181
526.632
629.325
715.413
715.413
715.413
753.256
753.256
753.256
774.27
756.273
699.413
590.984
685.968
783.934
781.94
780.669
1019.96
512.811
707.953
737.995
465.808
454.98
697.285
675.401
483.186
459.769
596.507
601.037
548.275
547.88
573.727
650.889
650.889
650.889
594.092
515.161
541.335
595.634
573.435
571.778
541.768
643.999
643.999
643.999
581.794
517.206
471.26
445.206
435.555
629.651
629.651
629.651
567.374
506.262
466.438
453.547
461.36
533.96
515.488
598.535
469.299
761.209
510.277
458.239
452.297
999.612
977.814
933.83
878.68
1121.16
1162.01
1043.08
1166.99
1162.17
1768.27
1180.8
1869.12
1329.98
737.444
741.04
1128.92
1147.58
1036.77
449.986
9.09155e+223
694.419
521.483
605.479
625.268
709.933
709.933
6.22655e+228
754.425
754.425
754.425
765.737
744.425
691.86
788.928
676.898
784.925
785.046
771.236
1016.86
501.633
704.597
742.97
465.48
454.529
697.744
677.556
483.756
460.006
597.408
601.609
548.755
546.741
571.747
652.035
652.035
652.035
596.035
513.903
539.162
596.57
575.968
572.496
542.723
644.706
644.706
644.706
582.863
518.349
471.461
445.069
434.96
630.146
630.146
630.146
568.343
507.118
466.248
452.445
459.737
534.155
516.261
598.781
469.179
760.546
510.12
457.682
451.536
1003.53
968.512
933.207
877.294
1116.84
1164.63
1041.04
1168.89
1145.31
1712.33
1205.78
1514.5
747.741
743.036
1114.27
1295.25
1040.49
9.09155e+223
769.178
688.797
515.88
604.278
620.709
703.947
703.947
703.947
755.306
755.306
755.306
756.456
731.861
683.801
789.495
666.869
785.613
787.859
760.89
1013.35
491.604
700.91
747.208
465.126
454.081
698.168
679.696
484.386
460.272
598.33
602.226
549.354
545.654
569.763
597.975
517.661
512.712
537.003
597.485
578.466
543.691
645.39
645.39
645.39
583.9
519.502
471.655
444.936
434.385
630.612
630.612
630.612
569.269
507.988
466.084
451.358
458.132
534.388
517.017
599.078
469.089
759.877
509.944
457.113
450.769
1429.98
941.923
931.809
876.583
1112.04
1165.96
1039.35
1171.37
1130.15
1714.77
1252.82
748.278
1085.53
1400.62
1041.42
414.409
760.598
9.09155e+223
509.914
602.91
615.497
697.431
697.431
697.431
755.812
755.812
755.812
746.45
718.59
675.125
789.89
656.196
786.046
790.378
749.927
1009.38
480.588
696.877
750.904
464.783
453.652
698.561
681.818
485.062
460.548
599.254
602.888
550.11
544.601
567.776
599.908
518.168
511.589
534.857
598.381
580.933
544.676
646.057
646.057
646.057
584.909
520.658
471.874
444.845
433.835
631.052
631.052
631.052
570.154
508.875
465.946
450.31
456.551
534.636
517.741
599.42
469.023
759.205
509.765
456.534
450.008
1449.23
909.424
930.782
875.902
1107.57
1167.89
1037.74
1171.11
1116.24
1068.67
1786.68
1373.72
752.354
1062.76
1384.47
1041.49
2.06697e+161
751.845
9.09155e+223
503.607
601.4
609.748
690.385
690.385
690.385
755.954
755.954
755.954
736.055
704.654
665.844
790.092
644.955
786.212
792.589
738.313
1004.99
470.157
692.506
754.081
464.451
453.238
698.923
683.921
485.788
460.838
600.194
603.589
550.988
543.593
565.787
601.849
555.046
518.794
510.531
532.718
599.26
583.366
545.679
646.707
646.707
646.707
585.895
521.858
472.133
444.799
433.309
631.458
631.458
631.458
570.995
509.773
465.868
449.313
454.996
534.896
518.444
599.789
469
758.527
509.596
486.746
455.966
449.259
1468.74
890.678
929.712
875.189
1104.01
1167.98
1036.11
1172.88
1107.86
1083.8
1514.47
759.354
1049.64
1183.12
1041.25
381.698
742.88
666.932
496.987
599.734
603.446
682.83
682.83
682.83
755.984
755.984
755.984
725.064
689.982
655.974
790.06
633.21
786.073
794.492
726.024
1000.13
461.169
687.801
756.712
464.128
452.827
699.266
685.998
486.558
461.141
442.889
601.158
604.321
589.242
551.97
542.637
563.79
603.831
557.098
519.538
509.534
530.586
600.126
585.765
546.699
647.398
647.398
647.398
586.903
523.107
472.446
444.798
432.794
631.87
631.87
631.87
571.814
510.719
465.869
448.381
453.468
535.17
519.128
600.175
469.028
637.351
509.443
486.403
455.415
448.527
1492.87
890.263
928.657
874.419
1102.32
1163.54
1034.72
1173.08
1102
1088.76
1616.8
1735.1
1030.35
768.26
1040.15
1104.45
1040.35
365.206
733.858
9.09155e+223
597.938
596.57
674.783
674.783
674.783
756.757
755.976
755.976
713.276
674.71
645.52
789.779
622.145
785.611
796.058
713.177
994.782
682.808
758.922
463.796
452.403
699.584
688.048
487.376
461.461
443.159
602.108
605.092
592.138
553.055
541.726
561.778
605.861
559.284
520.393
508.595
528.458
600.977
588.128
558.515
547.737
648.137
648.137
648.137
587.935
524.409
472.825
444.843
432.285
632.299
632.299
632.299
572.648
511.725
465.959
447.52
451.966
535.46
519.796
496.336
600.58
492.612
469.107
638.637
509.311
486.092
454.887
447.81
1509.67
892.645
927.501
873.668
1101.67
1155.12
1033.68
1173.91
1097.73
1100.63
1704.17
1783.88
1024.12
779.016
1032.32
1083.22
1039.01
350.788
724.851
648.289
596.089
589.08
666.189
666.189
666.189
755.915
755.915
755.915
700.935
658.864
634.51
789.28
611.274
784.815
797.281
699.97
988.955
677.483
760.787
463.437
451.952
699.847
690.068
488.232
461.796
443.456
603.072
605.903
595.107
554.247
540.86
559.791
607.944
561.614
521.346
507.712
526.333
601.818
590.453
562.629
548.794
648.925
648.925
648.925
588.995
525.764
473.278
444.917
431.788
632.745
632.745
632.745
573.497
512.791
466.142
446.732
450.482
535.765
520.452
497.652
601
493.627
469.237
639.876
509.222
485.818
468.222
454.381
447.104
1512.88
1552.96
897.013
925.718
872.387
1102.46
1145.22
1033.02
1176.99
1095.54
1113.13
1768.53
1827.71
1018.83
787.728
1026.09
1055.33
1034.04
2.06697e+161
715.098
3.94662e+180
638.17
594.219
657.007
657.007
657.007
755.772
755.772
755.772
642.6
623.145
788.601
600.369
783.739
798.182
686.941
982.583
671.822
762.37
477.338
463.039
451.476
692.083
489.125
462.148
443.772
430.576
604.057
606.751
598.164
555.583
540.083
557.843
610.091
564.064
522.389
506.879
524.204
602.646
592.746
566.774
549.891
590.085
527.177
473.815
444.989
431.287
633.212
633.212
633.212
574.366
513.917
466.429
446.017
449.007
536.096
521.098
498.985
601.437
567.985
494.682
469.418
641.087
485.587
467.876
453.88
446.397
1486.5
1628.05
901.735
924.601
870.145
1103.67
1134.39
1032.74
1180.8
1095.71
1120.93
1872.18
1013.83
798.051
1021.37
1053.26
1034.74
323.065
704.566
907.395
627.48
735.437
592.369
647.243
647.243
647.243
755.508
755.508
755.508
626.08
611.254
787.734
589.202
782.386
743.286
798.754
674.03
975.669
665.845
763.591
476.998
462.599
450.974
694.08
670.629
490.098
462.51
444.081
430.629
607.632
601.367
557.069
539.393
555.94
612.307
566.587
523.516
506.093
522.087
595.005
570.933
551.023
591.207
528.652
474.412
445.045
430.786
633.708
633.708
633.708
575.26
515.108
466.827
445.356
447.535
536.457
521.737
500.334
601.886
568.594
495.774
469.651
642.267
485.407
467.567
453.358
445.681
1484.75
1510.37
905.435
923.381
868.136
1123.43
1032.63
1185.2
1097.08
1114.51
1106.68
1892.53
1009.56
1009.79
1017.25
1052.74
1031.7
310.864
9.09155e+223
902.165
616.259
736.356
590.568
755.102
755.102
755.102
609.284
598.812
786.674
577.807
780.676
751.733
798.983
661.288
968.222
659.513
764.331
476.639
462.119
450.434
696.046
673.716
462.872
444.389
430.692
608.554
616.169
604.699
558.702
538.793
554.128
614.559
569.215
524.754
505.379
520.02
597.233
575.085
552.184
592.368
530.166
475.048
445.073
430.271
576.187
516.366
467.339
444.724
446.059
536.844
522.371
501.704
602.35
569.185
496.903
469.937
643.425
485.297
467.232
452.811
444.939
1492.99
910.693
921.404
866.145
1112.77
1032.56
1190.77
1098.48
1094.64
1811.53
1071.34
1897.56
1029.05
1006.4
1052.89
1031.25
2.06697e+161
896.583
9.09155e+223
737.218
588.791
754.527
754.527
754.527
592.428
585.902
785.393
566.258
778.468
759.677
798.833
649.024
960.249
652.806
764.584
476.289
461.607
449.844
697.969
676.875
463.238
444.691
430.764
609.512
617.145
608.176
560.52
538.292
552.401
616.811
571.958
526.105
504.752
518.006
599.417
579.237
553.366
593.52
531.674
475.76
445.106
429.734
577.152
517.693
467.952
444.112
444.569
537.259
523.003
503.09
602.83
569.766
498.061
470.29
644.559
485.255
466.861