/*--------------------------------*- C++ -*----------------------------------*\
| =========                 |                                                 |
| \\      /  F ield         | OpenFOAM: The Open Source CFD Toolbox           |
|  \\    /   O peration     | Version:  2.1.1                                 |
|   \\  /    A nd           | Web:      www.OpenFOAM.org                      |
|    \\/     M anipulation  |                                                 |
\*---------------------------------------------------------------------------*/
FoamFile
{
    version     2.0;
    format      ascii;
    class       vectorField;
    location    "0.0012";
    object      U;
}
// * * * * * * * * * * * * * * * * * * * * * * * * * * * * * * * * * * * * * //


44469
(
(-0.530748 -0.0195808 0.0186016)
(20.4723 -1.15028 -1.16517)
(20.3788 -1.12554 -1.12821)
(20.2743 -1.09921 -1.08941)
(20.2228 -1.07218 -1.04687)
(20.1337 -1.0479 -1.00553)
(20.0233 -1.02311 -0.963392)
(19.9012 -0.996788 -0.919937)
(19.7712 -0.969023 -0.876886)
(19.6645 -0.940126 -0.832083)
(19.5542 -0.913927 -0.790167)
(19.4153 -0.887281 -0.751077)
(19.2647 -0.85747 -0.712652)
(19.1045 -0.825604 -0.676274)
(18.9757 -0.793581 -0.639508)
(18.8327 -0.758927 -0.60428)
(18.7061 -0.719446 -0.566359)
(21.0487 -1.35431 -1.44308)
(20.9842 -1.33931 -1.41847)
(20.9127 -1.3224 -1.39398)
(20.839 -1.30295 -1.36679)
(20.7998 -1.2823 -1.33579)
(20.7823 -1.26053 -1.30051)
(20.7123 -1.23726 -1.26324)
(20.6243 -1.21262 -1.22503)
(20.5242 -1.18553 -1.18441)
(20.416 -1.15646 -1.14194)
(20.3091 -1.12446 -1.09562)
(20.2796 -1.09037 -1.04322)
(20.1802 -1.06068 -0.995669)
(20.0527 -1.03044 -0.948371)
(19.9105 -0.998182 -0.900175)
(19.7662 -0.964606 -0.851914)
(19.7055 -0.928417 -0.797916)
(19.5498 -0.900535 -0.758044)
(21.4555 -1.41933 -1.59028)
(19.3707 -0.870424 -0.720875)
(21.4079 -1.42328 -1.5815)
(8.88363 -0.396356 0.421002)
(19.1765 -0.838562 -0.687753)
(21.3556 -1.42352 -1.56834)
(8.6761 -0.404135 0.423167)
(19.0463 -0.804123 -0.650412)
(21.3112 -1.42154 -1.55498)
(8.45927 -0.411609 0.42576)
(18.8492 -0.771839 -0.623542)
(21.3009 -1.42066 -1.54303)
(8.21897 -0.419839 0.429313)
(18.6444 -0.734933 -0.597265)
(21.2835 -1.4169 -1.52728)
(7.94973 -0.429252 0.433987)
(18.4533 -0.696248 -0.570089)
(21.235 -1.4091 -1.50723)
(7.64584 -0.440472 0.440004)
(21.1727 -1.39837 -1.4836)
(7.30559 -0.453706 0.447418)
(21.1038 -1.38531 -1.45953)
(6.92603 -0.469794 0.456321)
(21.0265 -1.3695 -1.43403)
(6.51043 -0.48899 0.466754)
(20.9436 -1.35048 -1.40484)
(6.06541 -0.511436 0.47867)
(20.8658 -1.32815 -1.37079)
(5.60837 -0.536956 0.491618)
(20.8464 -1.3043 -1.33083)
(20.8024 -1.27909 -1.29052)
(20.699 -1.25115 -1.24764)
(20.5833 -1.22006 -1.20117)
(10.4007 -0.352644 0.435084)
(20.4566 -1.18541 -1.15131)
(10.2733 -0.357964 0.430783)
(20.3467 -1.14743 -1.09878)
(10.1388 -0.363902 0.427248)
(20.3234 -1.10624 -1.03823)
(9.99163 -0.370749 0.424698)
(20.1952 -1.07064 -0.983416)
(21.8055 -1.34852 -1.61957)
(9.8371 -0.378169 0.422743)
(20.0314 -1.03436 -0.929882)
(21.7785 -1.3651 -1.62172)
(9.67098 -0.386362 0.421555)
(19.8419 -0.996575 -0.878242)
(21.745 -1.38064 -1.62012)
(9.49574 -0.395028 0.42103)
(19.7681 -0.952314 -0.816324)
(21.7079 -1.39451 -1.61364)
(9.31128 -0.404216 0.42118)
(19.6061 -0.918943 -0.769831)
(21.6695 -1.4099 -1.61262)
(9.1182 -0.413563 0.421877)
(19.3819 -0.887656 -0.732288)
(21.6285 -1.42379 -1.61107)
(8.91354 -0.422998 0.423104)
(19.1302 -0.855241 -0.701128)
(21.5824 -1.43507 -1.60639)
(8.70034 -0.43205 0.424613)
(18.9722 -0.817224 -0.66292)
(21.5294 -1.44264 -1.59714)
(8.47678 -0.440692 0.426486)
(18.6976 -0.782917 -0.641214)
(21.4681 -1.44673 -1.58571)
(8.22805 -0.450227 0.429514)
(18.4048 -0.742048 -0.6203)
(21.4031 -1.44801 -1.57545)
(7.94734 -0.46125 0.433871)
(18.1546 -0.702379 -0.596561)
(21.3661 -1.44787 -1.56209)
(7.63035 -0.474071 0.439664)
(21.356 -1.44646 -1.54483)
(7.27684 -0.488778 0.446919)
(21.3093 -1.4398 -1.52198)
(6.88253 -0.505965 0.455519)
(21.228 -1.4293 -1.49873)
(6.44723 -0.490345 -0.351062)
(6.45192 -0.526285 0.465839)
(21.1341 -1.41488 -1.47206)
(6.3986 -0.482001 -0.354769)
(5.98962 -0.550597 0.478054)
(11.1327 -0.3432 0.47934)
(21.0317 -1.3962 -1.44038)
(6.34688 -0.473913 -0.358639)
(5.51467 -0.578277 0.49128)
(11.0285 -0.34639 0.472225)
(20.924 -1.37353 -1.40408)
(6.2927 -0.466039 -0.362587)
(5.05854 -0.60811 0.504629)
(10.9189 -0.350049 0.465313)
(20.8603 -1.34802 -1.36387)
(6.23638 -0.458359 -0.366593)
(10.8028 -0.354303 0.458674)
(20.8307 -1.31958 -1.31772)
(6.1777 -0.450894 -0.370676)
(10.679 -0.359214 0.45239)
(20.7147 -1.28774 -1.26838)
(6.11689 -0.443626 -0.374825)
(10.5472 -0.364822 0.446551)
(20.5676 -1.25194 -1.21565)
(22.2259 -1.21548 -1.57605)
(6.05413 -0.436524 -0.379056)
(10.4085 -0.371281 0.44123)
(20.4085 -1.21285 -1.16217)
(22.1763 -1.24045 -1.59847)
(5.98925 -0.429629 -0.383366)
(10.2601 -0.378319 0.436706)
(20.3031 -1.16718 -1.09944)
(22.1199 -1.26272 -1.61286)
(5.9213 -0.422941 -0.387757)
(10.1022 -0.386444 0.433076)
(20.2399 -1.12083 -1.03169)
(22.0594 -1.28389 -1.61698)
(5.84984 -0.416379 -0.392272)
(9.93626 -0.395434 0.430061)
(20.0452 -1.08104 -0.973238)
(21.9987 -1.30478 -1.61504)
(5.77541 -0.409868 -0.396919)
(9.75861 -0.405443 0.427813)
(19.8148 -1.03916 -0.916903)
(21.9394 -1.32946 -1.62191)
(5.69732 -0.403421 -0.401708)
(9.57458 -0.415904 0.426124)
(19.6764 -0.990734 -0.851554)
(21.8846 -1.35199 -1.62814)
(9.38165 -0.427107 0.425154)
(19.5001 -0.950547 -0.796963)
(21.8464 -1.37348 -1.62952)
(9.18161 -0.438411 0.424652)
(19.2117 -0.916569 -0.758986)
(21.8089 -1.39391 -1.6254)
(8.97192 -0.449664 0.424577)
(18.921 -0.879831 -0.725317)
(21.7622 -1.41478 -1.62598)
(7.22224 -0.394315 -0.892001)
(8.75237 -0.460627 0.424822)
(18.6724 -0.838828 -0.690881)
(21.7112 -1.43423 -1.62635)
(7.15094 -0.388188 -0.891117)
(8.52296 -0.470546 0.425127)
(18.3047 -0.796762 -0.67129)
(21.6527 -1.45026 -1.62277)
(7.07515 -0.38238 -0.890602)
(8.26802 -0.480902 0.426295)
(17.9552 -0.750652 -0.649017)
(21.5854 -1.46227 -1.61407)
(6.90545 -0.540436 -0.367044)
(6.99566 -0.376794 -0.890389)
(7.98226 -0.492046 0.428529)
(11.9536 -0.329866 0.540906)
(21.508 -1.47082 -1.60538)
(6.85987 -0.531139 -0.37039)
(6.91149 -0.371415 -0.89065)
(7.65709 -0.505146 0.432215)
(11.854 -0.331765 0.532774)
(21.4219 -1.47472 -1.59539)
(6.81089 -0.522264 -0.373731)
(6.82351 -0.366204 -0.891175)
(7.29127 -0.520463 0.437599)
(11.7524 -0.333823 0.524673)
(21.3637 -1.47566 -1.58042)
(6.75853 -0.513752 -0.377101)
(6.73212 -0.361093 -0.891945)
(6.87772 -0.539243 0.444944)
(11.648 -0.336202 0.516618)
(21.3437 -1.47501 -1.56022)
(6.70351 -0.505489 -0.380527)
(6.63728 -0.356043 -0.892989)
(6.41825 -0.562695 0.454563)
(11.5397 -0.33978 0.508538)
(21.2716 -1.4685 -1.53701)
(6.64574 -0.497498 -0.384018)
(6.53847 -0.351029 -0.894286)
(5.93143 -0.589881 0.466202)
(11.4266 -0.342968 0.500672)
(21.1615 -1.45617 -1.51052)
(6.58546 -0.489756 -0.387579)
(6.43648 -0.345972 -0.895759)
(5.42973 -0.622226 0.479537)
(11.3083 -0.346542 0.492847)
(22.7377 0.0482149 0.0368782)
(21.0329 -1.43812 -1.47772)
(22.308 -0.967323 -1.16334)
(6.52449 -0.482184 -0.39081)
(6.33328 -0.340816 -0.897001)
(4.96338 -0.654841 0.493128)
(11.184 -0.350713 0.485338)
(11.0904 -0.160897 -0.745105)
(22.735 0.0481608 0.0368946)
(22.74 0.0472729 -0.00637041)
(20.898 -1.41491 -1.43918)
(22.3144 -1.00553 -1.22379)
(6.46162 -0.47469 -0.394147)
(6.22659 -0.335502 -0.898461)
(4.58613 -0.683658 0.503614)
(11.0543 -0.355517 0.477819)
(10.7819 -0.139867 -0.758793)
(22.7324 0.0480589 0.0369161)
(22.7376 0.047224 -0.00641145)
(20.7971 -1.38786 -1.39685)
(22.3302 -1.04298 -1.2933)
(6.39642 -0.467361 -0.39758)
(6.117 -0.330041 -0.900092)
(10.9164 -0.361195 0.470455)
(10.4402 -0.113385 -0.77226)
(22.7673 -0.0729713 0.051587)
(22.7298 0.0479256 0.03694)
(22.7351 0.0471452 -0.00642994)
(20.7574 -1.35667 -1.34603)
(22.3587 -1.0787 -1.37182)
(6.32943 -0.460134 -0.401123)
(6.00517 -0.3244 -0.901832)
(8.3199 -0.459779 -0.938768)
(10.7733 -0.368029 0.463243)
(10.063 -0.0800969 -0.78539)
(22.765 -0.0732415 0.0517701)
(22.7272 0.0477596 0.0369657)
(22.7781 0.0442229 0.0383419)
(22.7327 0.0470424 -0.00643888)
(20.6139 -1.32106 -1.29075)
(22.3821 -1.11407 -1.45063)
(6.26063 -0.453006 -0.404783)
(5.89066 -0.318589 -0.903698)
(8.29788 -0.448031 -0.932363)
(10.6239 -0.375069 0.456322)
(9.65479 -0.0396787 -0.797957)
(22.7627 -0.0734861 0.0519539)
(22.7246 0.0475656 0.0369928)
(22.7756 0.044589 0.0383272)
(22.7302 0.0469166 -0.00644685)
(22.7773 0.0434585 -0.000977078)
(20.4281 -1.28193 -1.23424)
(22.3928 -1.14826 -1.52223)
(6.19002 -0.445951 -0.408575)
(5.77358 -0.312518 -0.90576)
(8.26246 -0.438043 -0.927397)
(10.4645 -0.383236 0.450145)
(9.35576 -0.0247127 -0.807785)
(22.7603 -0.0737133 0.0521351)
(22.8033 -0.0636679 0.0483195)
(22.722 0.0473594 0.0370187)
(22.7731 0.0449545 0.0383071)
(22.7278 0.046766 -0.00645839)
(22.775 0.0438883 -0.00129973)
(20.2302 -1.23727 -1.17422)
(22.371 -1.17833 -1.5682)
(6.1166 -0.438977 -0.412485)
(5.65256 -0.306164 -0.908021)
(8.2235 -0.428714 -0.922866)
(10.2981 -0.392439 0.444688)
(9.14097 -0.0185511 -0.81451)
(22.758 -0.0739224 0.0523148)
(22.8014 -0.0642917 0.0484552)
(22.7194 0.0471394 0.0370383)
(22.7706 0.0453199 0.0382749)
(22.7254 0.0465888 -0.0064787)
(22.7726 0.0443028 -0.00164612)
(20.1613 -1.18476 -1.10025)
(22.3097 -1.2067 -1.58883)
(6.04022 -0.432036 -0.416561)
(5.52858 -0.299446 -0.910373)
(8.18118 -0.419982 -0.918703)
(10.1205 -0.403123 0.440079)
(8.94813 -0.0138931 -0.820368)
(22.7556 -0.0741124 0.0524943)
(22.7996 -0.0649072 0.0486011)
(22.7168 0.0469048 0.0370484)
(22.7682 0.0456841 0.038228)
(22.723 0.0463829 -0.00651317)
(22.7703 0.0446977 -0.00202062)
(19.985 -1.13888 -1.03302)
(22.2427 -1.2367 -1.61234)
(5.96137 -0.425058 -0.42081)
(8.13542 -0.411807 -0.914901)
(9.93868 -0.414359 0.435985)
(8.77116 -0.00859303 -0.825275)
(22.7533 -0.0742833 0.0526748)
(22.7977 -0.0655166 0.0487567)
(22.7143 0.0466527 0.0370497)
(22.7657 0.0460458 0.0381615)
(22.7207 0.046146 -0.00656802)
(22.768 0.0450689 -0.00242696)
(19.7242 -1.09383 -0.971539)
(22.1675 -1.26346 -1.62468)
(5.87948 -0.418073 -0.425246)
(8.08559 -0.404213 -0.911503)
(9.74688 -0.426684 0.43268)
(8.62785 -0.00233137 -0.827684)
(22.751 -0.0744353 0.0528575)
(22.7957 -0.0661204 0.0489229)
(22.7118 0.0463854 0.0370387)
(22.7633 0.0464049 0.0380703)
(22.7185 0.0458748 -0.00664934)
(22.7657 0.0454121 -0.00287061)
(19.496 -1.04321 -0.905355)
(22.091 -1.29084 -1.62946)
(5.7947 -0.411049 -0.429874)
(8.03146 -0.397145 -0.908506)
(9.54757 -0.439743 0.430061)
(8.50287 0.00447906 -0.828876)
(22.7486 -0.0745688 0.0530443)
(22.7938 -0.066717 0.0491024)
(22.7011 0.0573955 0.0925991)
(22.7094 0.0461036 0.0370116)
(22.7609 0.0467606 0.0379487)
(22.8071 0.0371178 0.0399196)
(22.7163 0.0455655 -0.006764)
(22.7635 0.0457238 -0.00335602)
(22.7552 -0.0681792 0.0239137)
(19.315 -0.995239 -0.841027)
(22.0145 -1.31888 -1.63035)
(5.70717 -0.403981 -0.434674)
(7.97255 -0.390625 -0.905955)
(9.33899 -0.453565 0.428204)
(12.9789 -0.310511 0.599792)
(8.37665 0.0114037 -0.830327)
(22.7463 -0.0746846 0.0532371)
(22.7919 -0.0673044 0.0492981)
(22.6988 0.0570736 0.0926609)
(22.7072 0.0458048 0.0369657)
(22.7586 0.0471127 0.0377899)
(22.8052 0.0377801 0.0397025)
(22.7142 0.0452136 -0.00692733)
(22.7613 0.0459977 -0.00390311)
(22.5534 0.00768059 -0.0274544)
(22.7528 -0.0681399 0.024026)
(22.8016 -0.0638238 0.0198876)
(18.9675 -0.957487 -0.800977)
(21.9408 -1.3507 -1.64229)
(5.61692 -0.396843 -0.439605)
(7.43292 -0.574438 -0.384672)
(7.90804 -0.384666 -0.9039)
(9.12246 -0.466934 0.426735)
(12.8721 -0.312658 0.592445)
(8.24912 0.0183203 -0.832031)
(22.7441 -0.074783 0.0534397)
(22.7899 -0.0678845 0.0495162)
(22.8217 -0.0539389 0.0466283)
(22.6966 0.0567204 0.0926958)
(22.705 0.0454943 0.0368914)
(22.7564 0.047462 0.0375832)
(22.8033 0.0384536 0.0394521)
(22.7122 0.0448212 -0.00710212)
(22.7591 0.0462495 -0.00441985)
(22.8028 0.0364207 0.00423797)
(22.5511 0.00744169 -0.0268847)
(22.5967 0.0120614 -0.0341358)
(22.7504 -0.0680964 0.0240999)
(22.7996 -0.0643484 0.0199083)
(18.6509 -0.914562 -0.761749)
(21.8721 -1.37699 -1.64743)
(5.52366 -0.389643 -0.444662)
(7.39231 -0.563652 -0.387077)
(7.83792 -0.37925 -0.902326)
(8.90231 -0.478462 0.425122)
(12.7628 -0.315787 0.584944)
(8.12249 0.0248159 -0.833952)
(22.7418 -0.0748671 0.0536614)
(22.7879 -0.0684549 0.049744)
(22.8206 -0.0546158 0.0467534)
(22.6943 0.0563353 0.0927055)
(22.7365 0.0606072 0.0876893)
(22.7029 0.0451528 0.036814)
(22.7541 0.0477995 0.0373441)
(22.8015 0.0391348 0.0391734)
(22.7101 0.0444019 -0.00720283)
(22.7568 0.0464811 -0.00487506)
(22.8009 0.0370219 0.00363815)
(22.5488 0.00720365 -0.0262878)
(22.5943 0.0119072 -0.0340825)
(22.7482 -0.0680616 0.0241151)
(22.7976 -0.0648774 0.0199044)
(18.2899 -0.871077 -0.732839)
(21.8279 -1.40367 -1.64688)
(5.42693 -0.38241 -0.449891)
(7.35059 -0.553296 -0.389525)
(7.76242 -0.374248 -0.901194)
(8.67033 -0.48883 0.42348)
(12.6503 -0.317842 0.577965)
(7.99548 0.0310466 -0.836111)
(22.7396 -0.0749167 0.0538666)
(22.7859 -0.0690085 0.0499563)
(22.8193 -0.0552954 0.0468709)
(22.6921 0.055919 0.0926914)
(22.7342 0.0605767 0.0880508)
(22.7007 0.0447646 0.0367672)
(22.7518 0.0480928 0.0371593)
(22.7996 0.039785 0.0389392)
(22.708 0.0439537 -0.00723297)
(22.7544 0.0466889 -0.00527228)
(22.7989 0.0376274 0.00308607)
(22.5466 0.00696655 -0.0256649)
(22.5918 0.0117461 -0.0339878)
(22.7459 -0.0679958 0.024136)
(22.7955 -0.0653645 0.0199339)
(17.8349 -0.819492 -0.712041)
(21.771 -1.429 -1.64587)
(7.30587 -0.543398 -0.391997)
(7.68109 -0.369626 -0.900504)
(8.41219 -0.499428 0.422454)
(12.5323 -0.319953 0.571222)
(7.86779 0.0371222 -0.83856)
(12.4411 -0.15546 -0.707018)
(22.7373 -0.0749255 0.0540457)
(22.7838 -0.069542 0.0501559)
(22.8181 -0.0559772 0.0469836)
(22.6899 0.0554714 0.0926554)
(22.7318 0.0605231 0.0883972)
(22.6984 0.0443294 0.0367483)
(22.7494 0.0483406 0.0370216)
(22.7976 0.0404052 0.0387447)
(22.7058 0.0434747 -0.00719629)
(22.752 0.0468699 -0.0056149)
(22.7969 0.0382297 0.00257853)
(22.5444 0.0067298 -0.0250222)
(22.5894 0.0115791 -0.0338609)
(22.7436 -0.0678776 0.0242015)
(22.7933 -0.0658113 0.0199947)
(17.4232 -0.766171 -0.683108)
(21.7086 -1.45345 -1.64872)
(7.25752 -0.533959 -0.394506)
(7.59423 -0.365333 -0.900221)
(8.11721 -0.511459 0.422702)
(12.4131 -0.322095 0.564482)
(7.73831 0.0435886 -0.841383)
(12.297 -0.156394 -0.716914)
(22.735 -0.0748933 0.054201)
(22.7817 -0.0700531 0.0503459)
(22.8167 -0.05666 0.0470921)
(22.6877 0.0549921 0.0925991)
(22.7295 0.0604456 0.0887291)
(22.6961 0.0438452 0.0367552)
(22.747 0.0485406 0.0369252)
(22.7955 0.0409953 0.0385862)
(22.7037 0.0429639 -0.00709677)
(22.7496 0.0470211 -0.00590572)
(22.7947 0.0388221 0.00211364)
(22.5422 0.00649281 -0.0243686)
(22.5869 0.0114067 -0.033701)
(22.7412 -0.0677081 0.024309)
(22.7911 -0.066219 0.0200846)
(21.635 -1.47388 -1.64638)
(7.20532 -0.524966 -0.397053)
(7.50222 -0.361278 -0.900309)
(7.78159 -0.525079 0.424369)
(12.2926 -0.324326 0.557693)
(7.60994 0.0504931 -0.844479)
(12.1225 -0.154215 -0.728454)
(22.7327 -0.07482 0.0543346)
(22.7795 -0.070541 0.050529)
(22.8153 -0.057342 0.0471991)
(22.6855 0.0544809 0.0925239)
(22.7271 0.0603445 0.0890468)
(22.6938 0.0433115 0.0367848)
(22.7444 0.0486919 0.0368633)
(22.7934 0.0415553 0.0384606)
(22.7015 0.0424197 -0.00693649)
(22.7472 0.0471406 -0.00614752)
(22.7926 0.0394025 0.00168521)
(22.54 0.00625601 -0.0237058)
(22.5845 0.0112295 -0.0335183)
(22.7388 -0.0674888 0.0244553)
(22.7888 -0.0665884 0.0202013)
(21.5501 -1.48925 -1.63789)
(7.1493 -0.516381 -0.39962)
(7.40482 -0.357408 -0.900763)
(7.394 -0.542069 0.428233)
(12.1677 -0.326833 0.550925)
(7.48165 0.0575777 -0.847918)
(11.9173 -0.148663 -0.741254)
(22.7303 -0.0747055 0.0544488)
(22.7773 -0.0710046 0.0507069)
(22.8138 -0.0580218 0.0473056)
(22.712 0.0255533 0.108032)
(22.6833 0.0539387 0.0924303)
(22.7247 0.0602246 0.0893504)
(22.6914 0.0427278 0.0368332)
(22.7419 0.0487942 0.03683)
(22.7911 0.0420856 0.0383639)
(22.6993 0.0418414 -0.0067186)
(22.7447 0.0472267 -0.00634276)
(22.7904 0.0399673 0.00129021)
(22.5378 0.00601798 -0.0230467)
(22.582 0.0110471 -0.0333136)
(22.7363 -0.0672211 0.0246371)
(22.7864 -0.0669206 0.0203421)
(21.4546 -1.50038 -1.62963)
(7.08985 -0.50813 -0.402217)
(7.30273 -0.353608 -0.90151)
(6.95683 -0.562724 0.434373)
(12.0407 -0.330101 0.543959)
(7.3513 0.0648299 -0.85176)
(11.6822 -0.139201 -0.755014)
(22.728 -0.0745487 0.0545456)
(22.775 -0.0714418 0.0508825)
(22.8123 -0.0586983 0.0474132)
(22.6689 0.0210676 0.109491)
(22.7096 0.0255193 0.10828)
(22.6812 0.0533669 0.0923188)
(22.7224 0.060091 0.0896375)
(22.689 0.0420943 0.036897)
(22.7392 0.0488478 0.036819)
(22.7888 0.0425866 0.0382933)
(22.6971 0.0412282 -0.00644743)
(22.7423 0.0472782 -0.00649357)
(22.7881 0.0405124 0.000926092)
(22.5356 0.0057779 -0.0223941)
(22.5796 0.0108591 -0.0330875)
(22.7339 -0.0669064 0.0248504)
(22.784 -0.0672162 0.0205046)
(22.8249 -0.0563772 0.0176359)
(21.349 -1.50518 -1.6184)
(22.3531 -0.684479 -0.817786)
(7.02708 -0.500191 -0.404882)
(7.19664 -0.34979 -0.902453)
(8.92776 -0.514528 -0.995893)
(6.46482 -0.58928 0.443112)
(11.9131 -0.333981 0.536832)
(7.21769 0.071952 -0.856176)
(11.4164 -0.124866 -0.769808)
(22.7257 -0.0743492 0.0546271)
(22.7728 -0.0718502 0.0510583)
(22.8108 -0.0593683 0.0475229)
(22.6668 0.0207671 0.109236)
(22.7072 0.025468 0.108516)
(22.6791 0.0527721 0.0921905)
(22.72 0.0599484 0.0899073)
(22.7572 0.0594432 0.0801454)
(22.6866 0.041412 0.0369748)
(22.7366 0.0488517 0.036828)
(22.7865 0.0430593 0.0382448)
(22.6949 0.0405812 -0.00612861)
(22.7398 0.0472941 -0.00660215)
(22.7858 0.0410338 0.000591403)
(22.5334 0.0055351 -0.0217489)
(22.5772 0.0106649 -0.0328404)
(22.7314 -0.0665467 0.0250911)
(22.7816 -0.0674758 0.0206864)
(22.8232 -0.0570128 0.0177361)
(21.295 -1.50761 -1.60139)
(22.36 -0.724076 -0.866181)
(6.96123 -0.49251 -0.407646)
(7.08699 -0.345941 -0.903606)
(8.95938 -0.494834 -0.984294)
(5.93909 -0.621421 0.455007)
(11.7802 -0.337241 0.52996)
(7.07835 0.0789893 -0.861388)
(11.1169 -0.105649 -0.784124)
(22.7233 -0.0741053 0.054696)
(22.7705 -0.0722272 0.0512362)
(22.8092 -0.060031 0.0476375)
(22.6646 0.0204547 0.108968)
(22.7049 0.0253969 0.108741)
(22.677 0.0521632 0.0920448)
(22.7176 0.0597967 0.0901601)
(22.7553 0.0595789 0.0807149)
(22.6842 0.0406805 0.037064)
(22.734 0.0488048 0.0368505)
(22.7841 0.0435033 0.0382157)
(22.6927 0.0399009 -0.00576751)
(22.7373 0.0472736 -0.0066721)
(22.7835 0.0415297 0.000282948)
(22.5311 0.0052888 -0.0211109)
(22.5747 0.0104637 -0.0325726)
(22.7289 -0.0661442 0.025355)
(22.7791 -0.0677003 0.0208846)
(22.8215 -0.0576348 0.0178483)
(21.2501 -1.50558 -1.57738)
(22.3622 -0.765531 -0.913991)
(6.89262 -0.485046 -0.410508)
(6.97307 -0.34206 -0.90505)
(8.98348 -0.476442 -0.97349)
(5.40604 -0.658595 0.468584)
(11.6442 -0.340972 0.522906)
(6.93373 0.0856853 -0.867534)
(10.7815 -0.0802846 -0.79842)
(22.721 -0.0738146 0.0547543)
(22.7682 -0.0725702 0.051418)
(22.8076 -0.060685 0.0477581)
(22.6625 0.0201275 0.10869)
(22.7025 0.0253036 0.108956)
(22.6749 0.0515463 0.0918819)
(22.7152 0.0596357 0.0903959)
(22.7534 0.0597103 0.0812755)
(22.6818 0.0398956 0.0371575)
(22.7313 0.0487091 0.0368781)
(22.7817 0.0439182 0.0382011)
(22.6906 0.039188 -0.0053682)
(22.7348 0.0472225 -0.00671743)
(22.7812 0.0420044 -8.91588e-06)
(22.5289 0.00503871 -0.0204808)
(22.5723 0.0102547 -0.0322849)
(22.7264 -0.065701 0.0256373)
(22.7767 -0.0678905 0.0210968)
(22.8197 -0.0582443 0.0179714)
(21.1344 -1.49645 -1.55151)
(22.3613 -0.809279 -0.963516)
(6.82169 -0.477738 -0.413468)
(6.85643 -0.33803 -0.906674)
(9.00008 -0.459329 -0.96347)
(4.92293 -0.695407 0.482015)
(11.5033 -0.345328 0.515708)
(6.78358 0.0918553 -0.874743)
(10.4054 -0.0473349 -0.812492)
(22.7187 -0.073478 0.0548034)
(22.7658 -0.0728793 0.0516042)
(22.8059 -0.0613341 0.0478835)
(22.4595 -0.057768 0.0646753)
(22.6604 0.0197823 0.108402)
(22.7001 0.0251855 0.109163)
(22.6729 0.0509227 0.0917023)
(22.7128 0.0594647 0.0906154)
(22.7514 0.0598377 0.0818266)
(22.6795 0.0390833 0.0372489)
(22.7287 0.0485807 0.0369078)
(22.7792 0.0443125 0.0381931)
(22.6884 0.0384509 -0.00494578)
(22.7324 0.0471439 -0.00674537)
(22.7788 0.0424707 -0.000304119)
(22.5267 0.00478432 -0.0198583)
(22.5698 0.0100368 -0.0319782)
(22.7239 -0.0652191 0.0259326)
(22.7742 -0.0680472 0.0213204)
(22.8179 -0.0588412 0.0181011)
(20.9896 -1.48036 -1.51941)
(22.3663 -0.852929 -1.0169)
(6.74845 -0.47058 -0.416547)
(6.737 -0.333825 -0.908431)
(8.99955 -0.444615 -0.955043)
(4.55461 -0.725662 0.491075)
(11.3558 -0.350414 0.508445)
(6.6271 0.0969522 -0.883217)
(10.0781 -0.0278369 -0.824783)
(22.7165 -0.0731085 0.0548422)
(22.7635 -0.0731604 0.0517925)
(22.8041 -0.0619807 0.0480126)
(22.4579 -0.0573845 0.064489)
(22.6583 0.0194166 0.108105)
(22.6978 0.0250399 0.109362)
(22.6709 0.0502925 0.0915066)
(22.7105 0.0592827 0.0908191)
(22.7494 0.0599609 0.0823687)
(22.6771 0.0382522 0.0373367)
(22.726 0.0484198 0.0369381)
(22.7768 0.0446921 0.0381888)
(22.6863 0.0376954 -0.00451377)
(22.7299 0.047042 -0.00676818)
(22.7765 0.0429273 -0.000609146)
(22.5244 0.00452511 -0.0192436)
(22.5674 0.0098087 -0.0316532)
(22.7215 -0.0647047 0.0262337)
(22.7717 -0.0681729 0.0215504)
(22.816 -0.0594253 0.0182327)
(20.8272 -1.45703 -1.47867)
(22.3724 -0.896901 -1.07566)
(6.67315 -0.463552 -0.419744)
(6.61381 -0.329455 -0.910396)
(8.98688 -0.43168 -0.947918)
(11.2069 -0.356623 0.500959)
(6.46196 0.100758 -0.893199)
(9.81798 -0.0197118 -0.834227)
(22.7142 -0.0727107 0.0548692)
(22.7611 -0.0734167 0.0519803)
(22.8024 -0.0626236 0.0481476)
(22.4563 -0.0570134 0.0642934)
(22.6563 0.0190274 0.107802)
(22.6955 0.0248628 0.109556)
(22.7337 0.0252657 0.102152)
(22.6689 0.0496557 0.091296)
(22.7081 0.0590889 0.0910081)
(22.7474 0.0600787 0.0829019)
(22.6748 0.0374231 0.037421)
(22.7234 0.0482356 0.0369695)
(22.7743 0.0450643 0.0381849)
(22.6842 0.0369276 -0.0040852)
(22.7275 0.0469156 -0.00679017)
(22.7741 0.0433713 -0.000928214)
(22.5222 0.00426079 -0.0186363)
(22.565 0.00956784 -0.0313134)
(22.7191 -0.0641657 0.0265364)
(22.7691 -0.0682683 0.0217831)
(22.8141 -0.0599986 0.0183618)
(20.6961 -1.42914 -1.43376)
(22.3788 -0.941789 -1.14125)
(6.59564 -0.456673 -0.423077)
(6.48777 -0.324822 -0.912505)
(8.96811 -0.419712 -0.941281)
(11.0518 -0.363307 0.493553)
(9.60974 -0.0143924 -0.84055)
(22.7119 -0.072298 0.0548846)
(22.7588 -0.0736542 0.0521658)
(22.8006 -0.0632625 0.0482885)
(22.4548 -0.0566524 0.0640885)
(22.6543 0.0186119 0.107493)
(22.6932 0.0246504 0.109746)
(22.7317 0.0253071 0.102709)
(22.667 0.0490118 0.0910713)
(22.7058 0.058882 0.0911832)
(22.7454 0.0601915 0.0834264)
(22.6724 0.0366036 0.0374988)
(22.7208 0.048037 0.0369982)
(22.7718 0.0454351 0.0381745)
(22.6821 0.0361461 -0.00365978)
(22.7251 0.0467631 -0.00681571)
(22.7718 0.0437998 -0.00126481)
(22.5199 0.00399059 -0.0180364)
(22.5625 0.00931915 -0.0309503)
(22.7166 -0.063612 0.0268344)
(22.7666 -0.0683363 0.0220129)
(22.8121 -0.0605619 0.0184867)
(20.6441 -1.39617 -1.3791)
(22.3864 -0.986498 -1.21191)
(6.51645 -0.449887 -0.426541)
(6.35879 -0.319905 -0.914759)
(8.94267 -0.408689 -0.935148)
(10.8885 -0.370765 0.486367)
(9.4381 -0.0102801 -0.844817)
(22.7097 -0.0718706 0.0548917)
(22.7564 -0.0738721 0.05235)
(22.7988 -0.0638967 0.0484362)
(22.4532 -0.0562987 0.0638741)
(22.6524 0.0181668 0.107181)
(22.6909 0.0243924 0.109943)
(22.7297 0.025354 0.103237)
(22.6651 0.0483605 0.090834)
(22.7035 0.0586614 0.091345)
(22.7434 0.0602994 0.0839451)
(22.6701 0.0357883 0.037572)
(22.7182 0.0478202 0.0370196)
(22.7693 0.0458049 0.0381517)
(22.68 0.035347 -0.00324084)
(22.7227 0.046583 -0.00684972)
(22.7694 0.0442107 -0.00162384)
(22.5176 0.00371702 -0.0174421)
(22.5601 0.00907167 -0.0305561)
(22.7142 -0.0630457 0.027121)
(22.7641 -0.0683789 0.0222361)
(22.8102 -0.061116 0.018604)
(20.4724 -1.35837 -1.31983)
(22.3898 -1.03068 -1.28556)
(7.16097 0.287304 0.141586)
(6.43585 -0.443143 -0.430145)
(6.22762 -0.314675 -0.917079)
(8.91052 -0.398585 -0.929528)
(10.7216 -0.379037 0.479478)
(9.26525 -0.00609292 -0.849462)
(22.7075 -0.0714265 0.0548933)
(22.754 -0.0740697 0.0525341)
(22.7969 -0.0645255 0.0485923)
(22.4516 -0.0559492 0.0636509)
(22.6505 0.0176884 0.106867)
(22.6887 0.0241278 0.110108)
(22.7276 0.0254035 0.103737)
(22.6632 0.0477018 0.0905852)
(22.7012 0.0584259 0.0914964)
(22.7413 0.0603925 0.0844423)
(22.6678 0.0349766 0.0376442)
(22.7156 0.0475852 0.0370338)
(22.7668 0.0461729 0.0381143)
(22.678 0.0345281 -0.0028363)
(22.7204 0.0463731 -0.00689738)
(22.7671 0.044601 -0.00201007)
(22.5154 0.00345012 -0.0168538)
(22.5577 0.00882537 -0.0301312)
(22.7118 -0.0624694 0.0273902)
(22.7615 -0.0683988 0.0224482)
(22.8081 -0.0616626 0.0187115)
(20.2492 -1.31601 -1.2591)
(22.415 -1.0732 -1.37557)
(6.95462 0.306525 0.138561)
(6.35237 -0.436469 -0.433908)
(6.09318 -0.309072 -0.919567)
(8.87403 -0.38918 -0.924324)
(10.5461 -0.38884 0.473017)
(9.11506 -0.00116502 -0.852565)
(22.7053 -0.0709687 0.0548918)
(22.7516 -0.0742467 0.0527191)
(22.795 -0.0651468 0.048757)
(22.45 -0.0555987 0.0634218)
(22.6488 0.017168 0.106565)
(22.6864 0.0238701 0.110228)
(22.7255 0.0254534 0.104211)
(22.6614 0.0470353 0.0903262)
(22.699 0.0581761 0.0916413)
(22.7392 0.0604699 0.0849166)
(22.6655 0.0341692 0.0377175)
(22.7131 0.0473343 0.037038)
(22.7643 0.0465385 0.0380576)
(22.6761 0.0336934 -0.00246007)
(22.7181 0.0461309 -0.00696442)
(22.7647 0.044967 -0.00242779)
(22.5131 0.00319069 -0.01627)
(22.5554 0.00858012 -0.0296762)
(22.759 -0.0683989 0.0226442)
(22.8061 -0.0622033 0.0188071)
(20.0403 -1.26622 -1.19197)
(22.4462 -1.11485 -1.47303)
(6.73976 0.32632 0.135607)
(6.26659 -0.429764 -0.437871)
(5.95492 -0.303102 -0.922242)
(8.83305 -0.38053 -0.919586)
(10.3653 -0.399801 0.466886)
(14.1463 -0.287446 0.629067)
(8.98723 0.00439483 -0.853969)
(22.7031 -0.0705004 0.054891)
(22.7493 -0.0744029 0.0529061)
(22.7931 -0.0657623 0.0489316)
(22.4483 -0.0552434 0.0631854)
(22.6841 0.0236168 0.110306)
(22.7234 0.0255021 0.10466)
(22.6597 0.0463616 0.0900592)
(22.6968 0.0578982 0.0917565)
(22.737 0.0605304 0.0853698)
(22.6633 0.0333664 0.0377946)
(22.7106 0.0470669 0.0370298)
(22.7619 0.0469012 0.0379754)
(22.6742 0.0328407 -0.00211956)
(22.7158 0.0458534 -0.00705718)
(22.7625 0.0453044 -0.00288295)
(22.5108 0.00293917 -0.0156897)
(22.5531 0.00833574 -0.0291917)
(22.7565 -0.0683826 0.0228192)
(22.8041 -0.0627396 0.0188879)
(19.9499 -1.21033 -1.11209)
(22.4501 -1.15374 -1.55162)
(6.51584 0.346671 0.132767)
(6.17825 -0.423017 -0.442038)
(5.81387 -0.296689 -0.925016)
(8.78752 -0.372612 -0.915297)
(10.1773 -0.411736 0.461263)
(14.0368 -0.28754 0.623866)
(8.86541 0.0103393 -0.855032)
(22.701 -0.0700239 0.054894)
(22.7469 -0.0745388 0.0530968)
(22.7912 -0.0663716 0.049119)
(22.4467 -0.0548783 0.0629432)
(22.6819 0.0233659 0.110343)
(22.7212 0.0255482 0.105085)
(22.658 0.0456841 0.089792)
(22.6946 0.0575915 0.0918426)
(22.7348 0.0605729 0.0858031)
(22.6612 0.0325668 0.0378782)
(22.7082 0.046783 0.0370057)
(22.7595 0.0472593 0.037863)
(22.6724 0.0319667 -0.0018222)
(22.7137 0.0455373 -0.00718135)
(22.7602 0.0456098 -0.00337971)
(22.5085 0.00269614 -0.0151114)
(22.5508 0.00809209 -0.0286783)
(22.754 -0.0683531 0.0229675)
(22.802 -0.0632732 0.0189514)
(19.6798 -1.16334 -1.04485)
(22.4061 -1.1885 -1.59531)
(6.28312 0.367548 0.130074)
(6.08764 -0.416194 -0.446415)
(5.67011 -0.289758 -0.92786)
(8.73727 -0.365397 -0.911462)
(9.98132 -0.424791 0.456246)
(13.9201 -0.28824 0.618691)
(8.74153 0.0164853 -0.856385)
(22.6989 -0.0695414 0.0549048)
(22.7446 -0.0746552 0.0532932)
(22.7892 -0.0669737 0.0493218)
(22.4452 -0.0544972 0.0626971)
(22.6796 0.0231158 0.110341)
(22.719 0.02559 0.105487)
(22.6564 0.044986 0.089499)
(22.6924 0.0572555 0.0919012)
(22.7326 0.0605966 0.0862177)
(22.6592 0.0317694 0.0379707)
(22.7059 0.0464817 0.0369633)
(22.7571 0.0476126 0.037715)
(22.6707 0.0310676 -0.00157599)
(22.7116 0.045178 -0.00735774)
(22.758 0.0458781 -0.00392787)
(22.5062 0.00246209 -0.0145332)
(22.5486 0.0078492 -0.0281366)
(22.7516 -0.0683144 0.0230835)
(22.8 -0.0638063 0.018996)
(19.3549 -1.11323 -0.980778)
(22.3213 -1.22263 -1.61541)
(6.04368 0.388299 0.128277)
(5.99503 -0.409263 -0.450984)
(7.93599 -0.572329 -0.405231)
(5.52433 -0.282286 -0.93071)
(8.68075 -0.35897 -0.908187)
(9.77637 -0.438852 0.451837)
(13.7998 -0.289268 0.613435)
(8.61497 0.022659 -0.858086)
(12.7654 -0.0908769 -0.74434)
(22.697 -0.0690567 0.0549287)
(22.7423 -0.0747525 0.0534987)
(22.7873 -0.0675662 0.0495468)
(22.4436 -0.0540928 0.0624503)
(22.6773 0.0228648 0.110303)
(22.7168 0.025626 0.105866)
(22.6547 0.0442671 0.089179)
(22.6902 0.0568902 0.0919339)
(22.7303 0.0606008 0.0866149)
(22.6574 0.030972 0.0380762)
(22.7038 0.0461688 0.0368925)
(22.7548 0.0479636 0.0375172)
(22.6692 0.0301376 -0.00140307)
(22.7096 0.0447834 -0.00751042)
(22.7557 0.046128 -0.0044236)
(22.5038 0.00223751 -0.0139533)
(22.5464 0.00760717 -0.0275672)
(22.7492 -0.06827 0.0231618)
(22.7979 -0.0643406 0.0190192)
(19.1897 -1.05462 -0.902871)
(22.2364 -1.25703 -1.63928)
(5.8118 0.405039 0.130024)
(5.90032 -0.40221 -0.455741)
(7.89075 -0.560803 -0.407255)
(5.39985 -0.273683 -0.932557)
(8.61792 -0.353194 -0.905464)
(9.56825 -0.453353 0.447734)
(13.6722 -0.290977 0.60821)
(8.48728 0.0287274 -0.86004)
(12.7325 -0.0955781 -0.741003)
(22.6951 -0.0685799 0.0549812)
(22.74 -0.0748335 0.0537219)
(22.7853 -0.068146 0.0497798)
(22.442 -0.0536747 0.0622014)
(22.6751 0.0226113 0.110229)
(22.7145 0.0256544 0.106222)
(22.653 0.0435297 0.0888328)
(22.688 0.0564949 0.0919421)
(22.728 0.0605847 0.0869955)
(22.6556 0.0301715 0.0381976)
(22.7017 0.0458219 0.0368249)
(22.7526 0.0482973 0.0373032)
(22.6677 0.0291874 -0.00124142)
(22.7075 0.0443615 -0.00759083)
(22.7534 0.0463571 -0.00486142)
(22.5015 0.00202282 -0.0133697)
(22.5442 0.00736613 -0.026971)
(22.747 -0.0682322 0.0231829)
(22.7959 -0.0648778 0.0190189)
(18.8072 -1.01421 -0.858148)
(22.1425 -1.28903 -1.6484)
(5.60525 0.413816 0.137317)
(5.80336 -0.395049 -0.460679)
(7.84563 -0.549674 -0.409327)
(5.27989 -0.264511 -0.934446)
(8.54877 -0.347966 -0.903276)
(9.34772 -0.468407 0.444194)
(13.5397 -0.293223 0.602915)