/*--------------------------------*- C++ -*----------------------------------*\
| =========                 |                                                 |
| \\      /  F ield         | OpenFOAM: The Open Source CFD Toolbox           |
|  \\    /   O peration     | Version:  2.1.1                                 |
|   \\  /    A nd           | Web:      www.OpenFOAM.org                      |
|    \\/     M anipulation  |                                                 |
\*---------------------------------------------------------------------------*/
FoamFile
{
    version     2.0;
    format      ascii;
    class       volScalarField;
    location    "0.0013";
    object      alpha1;
}
// * * * * * * * * * * * * * * * * * * * * * * * * * * * * * * * * * * * * * //

dimensions      [0 0 0 0 0 0 0];

internalField   nonuniform List<scalar> 
36520
(
-2.70328e-12
-2.17273e-13
-3.00476e-13
-3.81145e-13
-5.19507e-13
-6.80834e-13
-8.52439e-13
-1.02996e-12
-1.22073e-12
-1.44304e-12
-1.73566e-12
-2.12386e-12
-2.64593e-12
-3.30739e-12
-4.11456e-12
-5.05482e-12
-5.85209e-12
-6.21723e-12
-6.39218e-12
-6.68291e-12
-7.34183e-12
-8.33477e-12
-9.59998e-12
-1.09262e-11
-1.22086e-11
-1.33943e-11
-1.4525e-11
-1.57348e-11
-1.73027e-11
-1.97109e-11
-2.34773e-11
-2.8942e-11
-3.60503e-11
-4.42519e-11
-5.2533e-11
-5.96425e-11
-6.43392e-11
-6.56098e-11
-6.2918e-11
-5.60105e-11
-4.48665e-11
-3.01879e-11
-1.45992e-11
-2.2344e-12
6.65771e-12
6.65942e-11
1.3499e-10
1.63828e-10
1.67526e-10
1.2484e-10
5.10118e-11
5.20026e-12
-3.74676e-11
-2.45859e-10
-3.86917e-10
-2.86417e-10
-1.1813e-10
-3.35027e-11
-3.50152e-12
-1.81566e-13
-5.32024e-12
-3.37658e-12
-3.79971e-12
-4.41771e-12
-5.20081e-12
-5.93646e-12
-6.64359e-12
-7.37297e-12
-8.20597e-12
-9.27488e-12
-1.08293e-11
-1.30156e-11
-1.60573e-11
-1.9884e-11
-2.43162e-11
-2.88577e-11
-3.31124e-11
-3.68857e-11
-4.05019e-11
-4.41558e-11
-4.77685e-11
-5.11197e-11
-5.36044e-11
-5.46666e-11
-5.34996e-11
-5.01955e-11
-4.50277e-11
-3.87612e-11
-3.26206e-11
-2.79686e-11
-2.56177e-11
-2.55697e-11
-2.71368e-11
-2.93762e-11
-3.15213e-11
-3.30338e-11
-3.34356e-11
-3.22413e-11
-2.9046e-11
-2.34876e-11
-1.50919e-11
-2.25749e-12
2.5675e-11
4.59248e-10
2.11932e-09
6.0068e-09
1.34201e-08
2.56225e-08
4.17978e-08
5.45019e-08
5.63943e-08
1.7004e-08
2.63103e-09
-8.69676e-12
-1.63465e-09
-1.97147e-09
-9.35216e-10
-3.40895e-10
-4.75493e-11
-3.16432e-12
-1.04161e-11
-8.6256e-12
-9.04953e-12
-9.64789e-12
-1.01765e-11
-1.0415e-11
-1.04517e-11
-1.03793e-11
-1.03613e-11
-1.05284e-11
-1.12908e-11
-1.27567e-11
-1.50123e-11
-1.76335e-11
-2.03178e-11
-2.26807e-11
-2.2659e-11
-2.11928e-11
-2.10617e-11
-2.08968e-11
-2.03788e-11
-1.98236e-11
-1.88627e-11
-1.69898e-11
-1.24652e-11
-4.65698e-12
-2.20911e-12
-1.07736e-12
4.27849e-20
7.37813e-20
9.37407e-20
8.18046e-20
-5.50248e-21
-1.21575e-19
-1.23802e-19
8.90286e-21
6.47359e-20
-8.46345e-19
-5.8347e-18
1.95874e-13
1.8127e-11
1.74466e-10
6.67113e-10
2.75309e-09
1.96785e-08
1.19052e-07
4.50844e-07
1.3276e-06
3.96473e-06
9.14956e-06
1.32311e-05
1.21992e-05
3.62805e-06
1.02197e-07
-3.20087e-10
-5.39876e-09
-3.62629e-09
-1.37633e-09
-3.16867e-10
-2.56979e-11
-1.40588e-11
-1.06478e-11
-1.031e-11
-1.00582e-11
-9.79575e-12
-9.4127e-12
-8.82917e-12
-7.41563e-12
-4.58583e-12
-1.16141e-12
4.52514e-19
-3.14257e-20
-1.93184e-18
-2.83174e-18
-1.01007e-16
-3.00346e-15
1.18706e-11
4.9244e-11
6.83678e-11
7.97651e-11
9.41273e-11
1.12673e-10
1.32889e-10
1.66909e-10
3.29611e-10
1.0006e-09
2.03645e-09
3.04646e-09
4.21892e-09
5.81055e-09
7.94288e-09
1.07336e-08
1.39722e-08
1.68676e-08
1.82874e-08
1.81967e-08
1.71883e-08
1.53843e-08
1.30683e-08
1.03662e-08
7.9807e-09
6.40872e-09
5.70852e-09
1.032e-08
4.08799e-08
1.99522e-07
9.14822e-07
3.67825e-06
1.26292e-05
4.45821e-05
0.000174207
0.000433767
0.000344081
6.08506e-05
7.0908e-07
-5.15313e-09
-8.61766e-09
-1.85668e-09
-1.43268e-09
-1.34686e-10
-1.23567e-11
-7.24089e-12
-3.84562e-12
-3.73751e-19
-5.44184e-19
2.27188e-18
1.7737e-12
1.5176e-11
2.9199e-11
4.42988e-11
6.21307e-11
1.26909e-10
2.44821e-10
7.52149e-10
2.56965e-09
5.18349e-09
8.12865e-09
1.4004e-08
2.2527e-08
3.08141e-08
4.21764e-08
5.93091e-08
8.45744e-08
1.17613e-07
1.51147e-07
1.74132e-07
1.84486e-07
1.96823e-07
2.2658e-07
2.80512e-07
3.73734e-07
5.05959e-07
6.45535e-07
7.43994e-07
7.83667e-07
6.98024e-07
5.77969e-07
4.70114e-07
3.76007e-07
2.84009e-07
1.92612e-07
1.24e-07
9.07747e-08
8.66952e-08
1.6425e-07
4.05391e-07
1.19014e-06
4.41033e-06
1.88556e-05
9.4358e-05
0.000434647
0.00150516
0.00236677
0.00182656
0.000439153
9.35017e-05
1.77778e-05
1.52834e-07
-4.29624e-09
-5.01901e-10
-6.20017e-12
-1.56e-19
3.0011e-11
1.4862e-10
3.15708e-10
4.2698e-10
5.83559e-10
7.99281e-10
9.29031e-10
1.22362e-09
3.14015e-09
1.41556e-08
7.43027e-08
2.87123e-07
6.88863e-07
1.10823e-06
7.51326e-07
3.97376e-07
4.9677e-07
6.4775e-07
7.90463e-07
9.94113e-07
1.34613e-06
1.86932e-06
2.4388e-06
2.91387e-06
3.2891e-06
3.60674e-06
3.83232e-06
4.01243e-06
4.34022e-06
5.10336e-06
6.23549e-06
7.39853e-06
8.06235e-06
7.94469e-06
7.04462e-06
6.16974e-06
5.46999e-06
5.08693e-06
4.87898e-06
4.52012e-06
4.18852e-06
3.1274e-06
2.72233e-06
3.89351e-06
8.12796e-06
2.01141e-05
5.85443e-05
0.000216272
0.00118252
0.00403974
0.00909607
0.0157092
0.0149853
0.00916135
0.00223343
7.50288e-05
-5.51719e-09
-1.35286e-09
1.78237e-10
1.60054e-09
3.51378e-09
4.9802e-09
5.95256e-09
1.04819e-08
1.90456e-08
4.37843e-08
9.0003e-08
1.77409e-07
4.36945e-07
1.23226e-06
3.31944e-06
7.4214e-06
1.35495e-05
1.95374e-05
1.70276e-05
6.99471e-06
3.696e-06
4.28071e-06
4.85804e-06
5.20409e-06
5.59133e-06
6.26856e-06
7.06767e-06
7.6595e-06
8.54681e-06
1.09062e-05
1.40707e-05
1.65988e-05
1.87707e-05
2.07231e-05
2.23843e-05
2.45143e-05
2.73399e-05
2.93678e-05
3.13803e-05
3.13881e-05
2.75783e-05
2.19914e-05
2.01473e-05
2.36038e-05
3.35726e-05
4.6963e-05
4.36478e-05
5.66599e-05
7.67901e-05
0.000143634
0.000317708
0.000645783
0.00102432
0.00250582
0.0206797
0.116286
0.169757
0.121128
0.0310732
0.00126671
3.70494e-07
-2.49321e-09
1.01512e-09
2.81003e-09
3.41609e-09
5.29176e-09
1.97954e-13
-4.27755e-13
1.20149e-06
3.51034e-06
4.15642e-06
5.64878e-06
1.01931e-05
2.34424e-05
4.71425e-05
7.36781e-05
9.53036e-05
0.000108995
0.000109432
6.43213e-05
2.05624e-05
1.35418e-05
1.51247e-05
1.74114e-05
2.0096e-05
2.23488e-05
2.35205e-05
2.36789e-05
2.37474e-05
2.54586e-05
2.92931e-05
3.47543e-05
4.19919e-05
5.02652e-05
5.85555e-05
7.16631e-05
0.00010877
0.000192669
0.000233968
0.000211391
0.000170514
0.000158768
0.000162351
0.00016725
0.000166162
0.000154008
0.000133236
0.000123101
0.000134079
0.000198679
0.000326583
0.00031434
0.000258857
0.000320081
0.00168933
0.106516
0.617058
0.496486
0.107191
0.00422616
1.4973e-05
-1.92588e-09
-2.27048e-17
6.07341e-16
5.58892e-16
5.74645e-16
2.12607e-15
2.89979e-14
-1.3707e-12
1.42345e-05
3.94957e-05
8.4802e-05
0.000215017
0.000650089
0.00185371
0.00339708
0.00353603
0.00241462
0.000927659
0.000403539
0.00030178
0.000254521
0.000209858
0.000156633
0.000108141
8.81249e-05
8.79773e-05
8.47074e-05
8.15639e-05
8.56271e-05
9.72152e-05
0.000114753
0.00013296
0.000156317
0.000190181
0.000233103
0.000283254
0.000339479
0.000403206
0.000482167
0.000577625
0.000680187
0.000772137
0.000841616
0.000883781
0.000885413
0.000807543
0.000620289
0.000357817
0.000156495
0.000119121
0.000119163
0.000119106
0.000119161
0.000498011
0.0466202
0.653934
0.67169
0.197306
0.0112361
9.98075e-05
-2.08978e-08
-4.05047e-15
3.0027e-15
2.10796e-15
-2.79454e-15
6.32129e-16
3.17934e-05
7.32805e-05
7.39649e-05
8.3663e-05
0.00013661
0.000272638
0.00057807
0.00122538
0.00263388
0.00389635
0.00364338
0.00216373
0.000907681
0.000637187
0.000624905
0.000631811
0.000640787
0.000644598
0.000612814
0.000518401
0.000344726
0.000165992
0.00010733
0.000115415
0.00014936
0.000211565
0.000276438
0.00034832
0.000442544
0.000554831
0.00066336
0.000748008
0.000801598
0.000838765
0.0008731
0.00089648
0.000912202
0.000929123
0.00089477
0.00076539
0.000556195
0.000371931
0.000324421
0.000340848
0.000368926
0.000304443
0.000127061
0.000795166
0.0563135
0.562371
0.551805
0.165633
0.0104671
0.000104415
-2.18472e-08
-2.62235e-15
3.06921e-15
-3.72023e-16
-7.218e-15
-1.86677e-14
1.9611e-14
1.51909e-14
5.59487e-06
2.08093e-05
4.90004e-05
0.000137971
0.000466293
0.00193274
0.00644015
0.0102809
0.00906553
0.00400938
0.000618519
0.0001536
0.000157647
0.000188635
0.000237966
0.000270649
0.000275196
0.000246755
0.000186839
0.000131805
0.00010347
0.000102037
0.000127869
0.000220211
0.000261698
0.00024231
0.000222002
0.000220763
0.000225569
0.000235805
0.000257949
0.000293634
0.000334563
0.000363515
0.000379113
0.000385072
0.000378844
0.000364711
0.000297843
0.000172094
0.00014103
0.000184106
0.00021673
0.000143662
7.80411e-05
0.000868033
0.0787484
0.6319
0.549924
0.130552
0.00605806
3.70917e-05
-1.70138e-08
5.14402e-08
5.76769e-13
5.34458e-08
3.89796e-07
2.78858e-07
-5.11895e-15
3.65853e-07
1.73126e-06
5.41473e-06
1.22543e-05
3.77919e-05
0.000183559
0.00159816
0.00931108
0.0190805
0.0158039
0.00768712
0.00116505
2.34518e-05
2.46546e-05
2.71836e-05
5.47454e-05
8.07983e-05
9.0041e-05
0.000113376
0.000176844
0.000178852
0.000111384
5.7703e-05
5.77424e-05
0.000222649
0.000331341
0.000330124
0.000207961
0.000100298
6.0305e-05
8.08252e-05
0.000488801
0.000787952
0.000787885
0.000360306
0.000251588
0.000251583
0.000256436
0.000217219
0.000126888
9.36169e-05
9.34632e-05
0.000187422
0.000206507
7.80425e-05
7.80234e-05
0.000735641
0.0804099
0.770704
0.776871
0.197218
0.00729353
1.46673e-05
-6.83516e-09
4.57557e-08
4.51925e-07
1.44338e-06
3.035e-06
6.98888e-06
1.15949e-05
1.9189e-05
3.05122e-05
3.96432e-05
4.94549e-05
9.48164e-05
0.000323973
0.00173021
0.00845297
0.0297642
0.057408
0.0544162
0.026864
0.00388814
0.000110974
1.75039e-05
1.22559e-05
1.19734e-05
1.19635e-05
3.08805e-05
0.000114401
0.000178082
0.000142772
6.53497e-05
5.77326e-05
5.77718e-05
0.000229871
0.000578815
0.000523535
0.000204512
6.89584e-05
6.43281e-05
6.43523e-05
0.000127313
0.000620234
0.000771377
0.000363084
9.46544e-05
7.80849e-05
8.38323e-05
0.000235289
0.000608576
0.0004872
0.000286464
0.000142528
7.80334e-05
7.8039e-05
0.00072943
0.0784736
0.741446
0.725282
0.187268
0.00705051
1.31183e-05
-7.19889e-09
5.71743e-14
4.8375e-13
9.41475e-07
1.34832e-05
3.75972e-05
0.000103613
0.000278927
0.000516158
0.000501247
0.000332267
0.000152025
0.000137586
0.000293949
0.00334607
0.0296584
0.116258
0.149992
0.103716
0.030271
0.0027136
0.000126332
0.000115961
0.000175193
0.000228224
0.000235638
0.000226192
0.000189102
0.000115128
6.65503e-05
6.32608e-05
7.26455e-05
0.000139945
0.000255012
0.000257854
0.000243281
0.000234452
0.000237764
0.000250122
0.000264414
0.000306055
0.000359093
0.000352033
0.000320585
0.000254829
0.000250116
0.000424336
0.000661307
0.000572608
0.000505896
0.000420674
0.000125597
0.000125685
0.00321406
0.151944
0.540144
0.377133
0.0741212
0.00253121
5.32817e-06
-9.75554e-09
1.18778e-12
2.60829e-08
1.14672e-05
7.82256e-05
0.000252787
0.000835698
0.00300614
0.00818062
0.00897732
0.00660153
0.00209187
0.000197648
0.000273921
0.00124284
0.00725701
0.0354631
0.0990806
0.114429
0.0737108
0.0169212
0.000886885
0.000126173
0.000129622
0.000125987
0.000111197
7.67405e-05
4.61336e-05
4.58064e-05
6.70899e-05
0.000147362
0.000409408
0.000463414
0.000462634
0.000205896
0.000114908
0.00011185
0.000113764
0.000129268
0.000241659
0.000625344
0.000795486
0.000612062
0.000333525
0.000257907
0.000290006
0.000394441
0.00048787
0.000514024
0.000511447
0.000414438
9.79517e-05
0.000152883
0.00619806
0.233448
0.486458
0.26572
0.0372035
0.000925139
3.80914e-06
-1.3997e-08
1.62771e-14
1.24657e-14
3.28775e-15
9.29184e-05
0.000492198
0.00162537
0.00225975
0.00145648
0.000227382
1.26421e-05
2.38169e-05
7.26826e-05
0.000580804
0.00404316
0.0147858
0.0223573
0.0215935
0.0166084
0.00773572
0.00145616
0.000152185
0.000142466
0.000154749
0.000144006
0.000111325
0.000109705
0.000185908
0.000390692
0.000574599
0.000668124
0.000450905
0.000145617
2.82464e-05
3.26062e-05
0.000200713
0.00139575
0.0014971
0.00125284
0.000429733
0.000360096
0.000382948
0.000264009
0.00011733
0.000306776
0.000591666
0.00059166
0.000591667
0.000544547
0.000292714
0.00012657
6.89678e-05
0.000101134
0.00501457
0.280844
0.596666
0.298865
0.035255
0.000750782
1.97099e-06
-1.04612e-08
1.81779e-10
5.27121e-10
2.94576e-10
-1.75574e-14
1.10502e-12
6.95078e-12
4.1333e-06
9.29043e-06
1.03335e-05
1.15811e-05
1.73759e-05
3.6895e-05
8.30399e-05
0.000191954
0.000318307
0.000347293
0.000308311
0.00023599
0.000102264
2.54561e-05
1.95941e-05
1.87321e-05
1.65765e-05
1.80561e-05
3.75551e-05
0.000107689
0.000160525
0.000158462
0.000155479
0.000130164
5.96824e-05
2.06273e-05
5.28675e-05
0.000349781
0.000707341
0.000707367
0.000608165
0.000317394
8.07991e-05
3.93316e-05
4.33344e-05
4.27073e-05
6.10811e-05
0.000141116
0.000247124
0.000269659
0.000267458
0.000193666
0.000103746
7.02173e-05
6.90411e-05
0.000170571
0.00679193
0.189256
0.42249
0.253987
0.0443262
0.00154993
2.63627e-06
-5.72108e-09
1.44368e-17
1.59051e-10
3.15957e-10
3.82132e-10
3.07075e-10
1.23543e-10
-3.6555e-14
-3.15926e-12
8.39816e-16
3.1539e-15
1.11188e-14
2.79806e-14
3.50606e-14
2.88567e-16
3.99259e-14
5.56225e-10
1.74798e-10
-3.20212e-10
4.69813e-07
1.25314e-06
2.34624e-06
4.44143e-06
8.55022e-06
1.53086e-05
2.29981e-05
2.90446e-05
1.81395e-05
1.17541e-05
1.26844e-05
1.48833e-05
1.68214e-05
1.89698e-05
2.23721e-05
2.54867e-05
2.70499e-05
2.79436e-05
2.27162e-05
1.37987e-05
9.74005e-06
1.06403e-05
1.28711e-05
1.5854e-05
2.04444e-05
2.23024e-05
3.22039e-05
3.85639e-05
4.31719e-05
5.17581e-05
6.16285e-05
5.33405e-05
0.000100461
0.000817186
0.0123571
0.0688901
0.129364
0.105178
0.0297571
0.00134445
2.03251e-06
-2.20641e-09
-1.41861e-10
-1.17425e-10
-8.69421e-11
-2.98103e-11
3.40251e-18
-2.36539e-19
5.02149e-18
1.53625e-17
6.19011e-17
2.10118e-16
5.99177e-16
1.00783e-15
4.30656e-16
-1.53239e-15
-2.52662e-15
-7.10298e-15
2.04294e-10
4.90019e-12
-5.11983e-11
3.55895e-08
1.79118e-07
5.09524e-07
1.00012e-06
1.40143e-06
9.47625e-07
3.1871e-07
2.4931e-08
1.63078e-09
2.86429e-09
-2.11738e-15
-2.30368e-15
-2.46286e-15
-2.61353e-15
2.04223e-15
1.40308e-14
5.7343e-15
4.96241e-08
8.13108e-08
1.01608e-07
1.19231e-07
1.11284e-07
9.21106e-08
1.0164e-07
2.784e-07
8.58981e-07
2.61832e-06
6.60132e-06
1.39342e-05
2.91739e-05
7.04712e-05
0.000179837
0.000662615
0.00312777
0.00995372
0.0168273
0.0169789
0.00833805
0.000580821
2.92464e-07
-1.28962e-09
-1.7615e-10
-1.97018e-10
-2.33654e-10
-2.67759e-10
-3.06156e-10
-3.46082e-10
-3.90388e-10
-4.3315e-10
-4.83215e-10
-5.39124e-10
-6.09826e-10
-6.85614e-10
-7.597e-10
-8.18033e-10
-8.58361e-10
-8.71328e-10
-8.56428e-10
-8.12538e-10
-5.01839e-10
-2.8831e-14
3.88039e-12
5.05702e-10
7.5112e-10
2.49968e-10
1.18134e-13
4.44282e-14
-1.92741e-09
-2.25048e-09
-2.09383e-09
-1.81794e-09
-1.48825e-09
-1.10887e-09
-6.53343e-10
-1.70214e-10
-5.25422e-17
-2.42915e-17
9.22135e-10
3.49985e-09
6.18616e-09
9.29487e-09
1.4089e-08
3.05743e-08
9.50014e-08
3.28542e-07
1.07074e-06
3.32732e-06
9.85335e-06
2.49281e-05
4.37658e-05
5.36775e-05
4.54156e-05
2.20044e-05
2.96811e-05
0.000280397
0.000631779
0.000809134
0.00054897
5.84371e-05
1.51745e-10
-7.1797e-10
-1.28639e-10
-1.64257e-10
-2.20771e-10
-2.8456e-10
-3.53223e-10
-4.24893e-10
-4.98914e-10
-5.74656e-10
-6.61297e-10
-7.66419e-10
-9.03459e-10
-1.07173e-09
-1.27119e-09
-1.48486e-09
-1.69667e-09
-1.89084e-09
-2.07508e-09
-2.27797e-09
-2.4609e-09
-2.56039e-09
-2.63654e-09
-2.7231e-09
-2.79488e-09
-2.8678e-09
-2.96462e-09
-3.08395e-09
-3.17338e-09
-3.0907e-09
-2.99864e-09
-2.89151e-09
-2.75871e-09
-2.57695e-09
-2.31852e-09
-1.96025e-09
-1.49701e-09
-9.88947e-10
-4.96095e-10
-1.80512e-10
9.07847e-12
7.34311e-10
8.91323e-09
5.46843e-08
2.4079e-07
8.97304e-07
2.71646e-06
6.46471e-06
1.30263e-05
2.44054e-05
3.07725e-05
2.11148e-05
9.48224e-06
1.4743e-06
9.71754e-07
3.24277e-06
4.80136e-06
5.42338e-06
4.18553e-06
4.76739e-07
-3.05309e-09
-3.87059e-10
-5.24818e-11
-6.14262e-11
-8.43451e-11
-1.14039e-10
-1.4916e-10
-1.87295e-10
-2.28187e-10
-2.7089e-10
-3.18694e-10
-3.74543e-10
-4.43604e-10
-5.25178e-10
-6.20907e-10
-7.24696e-10
-8.33703e-10
-9.41694e-10
-1.04672e-09
-1.13871e-09
-1.21701e-09
-1.28202e-09
-1.34717e-09
-1.41649e-09
-1.48636e-09
-1.55199e-09
-1.61067e-09
-1.66563e-09
-1.71849e-09
-1.77537e-09
-1.82926e-09
-1.86112e-09
-1.84009e-09
-1.74038e-09
-1.54109e-09
-1.23594e-09
-8.50819e-10
-4.57778e-10
-2.45412e-10
-6.56519e-11
1.61505e-10
3.71715e-09
2.09469e-08
9.83049e-08
4.42056e-07
1.72124e-06
5.42158e-06
1.2824e-05
2.18298e-05
2.68431e-05
1.83392e-05
6.69253e-06
1.00565e-06
2.06849e-08
1.88959e-09
1.1202e-08
1.80592e-08
2.05441e-08
4.06708e-10
-5.68134e-10
-8.71845e-10
-7.35971e-11
-9.58566e-12
-9.35848e-12
-1.25823e-11
-1.73663e-11
-2.38457e-11
-3.1284e-11
-3.98599e-11
-4.91401e-11
-5.96197e-11
-7.15117e-11
-8.55865e-11
-1.0182e-10
-1.20765e-10
-1.42139e-10
-1.66088e-10
-1.92287e-10
-2.16988e-10
-2.3534e-10
-2.49802e-10
-2.62506e-10
-2.79101e-10
-3.00619e-10
-3.27063e-10
-3.56652e-10
-3.87851e-10
-4.20562e-10
-4.54699e-10
-4.9079e-10
-5.27441e-10
-5.59278e-10
-5.76056e-10
-5.73797e-10
-5.51444e-10
-5.12045e-10
-4.60802e-10
-4.01764e-10
-3.30204e-10
-2.3768e-10
-1.37301e-10
-8.5116e-11
-4.12264e-11
-7.94797e-12
-2.35929e-15
1.58661e-08
6.55866e-08
1.1181e-07
1.13136e-07
6.53233e-08
3.68883e-08
8.21142e-09
3.77927e-10
3.73207e-10
2.47583e-09
4.17896e-09
1.71132e-09
-5.03374e-13
-5.36136e-10
-1.47856e-10
-1.05118e-10
-6.34088e-12
-2.69495e-12
-3.16475e-13
-4.24655e-13
-5.85869e-13
-9.01675e-13
-1.33218e-12
-1.88731e-12
-2.53612e-12
-3.28815e-12
-4.13753e-12
-5.11946e-12
-6.23892e-12
-7.54661e-12
-9.12049e-12
-1.10295e-11
-1.33654e-11
-1.5639e-11
-1.71354e-11
-1.82667e-11
-1.92229e-11
-2.07411e-11
-2.29449e-11
-2.58979e-11
-2.94903e-11
-3.35744e-11
-3.8192e-11
-4.37053e-11
-5.07851e-11
-6.00045e-11
-7.08298e-11
-8.24059e-11
-9.45763e-11
-1.0756e-10
-1.22069e-10
-1.38669e-10
-1.57014e-10
-1.74379e-10
-1.83697e-10
-1.73296e-10
-1.31101e-10
-5.70534e-11
1.68223e-11
5.83239e-11
3.42206e-11
2.67364e-11
3.90677e-11
1.30761e-11
-9.35485e-13
-1.01969e-12
3.27077e-11
8.91756e-11
6.51039e-11
3.26572e-11
1.06267e-10
6.98683e-11
-1.28052e-10
-1.5259e-10
-2.72866e-11
-5.69426e-12
-2.42214e-13
-7.92169e-13
-2.08003e-13
-2.80676e-13
-3.41803e-13
-4.43503e-13
-5.60038e-13
-7.13022e-13
-8.92217e-13
-1.12038e-12
-1.39519e-12
-1.74454e-12
-2.17556e-12
-2.71452e-12
-3.37712e-12
-4.18709e-12
-5.15677e-12
-6.30506e-12
-7.64079e-12
-9.1842e-12
-1.09473e-11
-1.29406e-11
-1.51688e-11
-1.76149e-11
-2.02227e-11
-2.28613e-11
-2.52847e-11
-2.70949e-11
-2.77883e-11
-2.69183e-11
-2.45135e-11
-2.13469e-11
-1.87339e-11
-1.70215e-11
-1.60977e-11
-1.59775e-11
-1.66496e-11
-1.79355e-11
-1.93446e-11
-1.99325e-11
-1.86812e-11
-1.51666e-11
-1.03626e-11
-6.69094e-12
-5.43012e-12
-6.86206e-12
-1.07815e-11
-1.72064e-11
-2.59534e-11
-3.7114e-11
-5.04204e-11
-6.6331e-11
-8.64429e-11
-1.1245e-10
-1.43248e-10
-1.67318e-10
-1.8564e-10
-1.40357e-10
-3.28103e-11
-8.16203e-12
-5.06935e-13
-2.51237e-12
-4.01622e-12
-5.17593e-12
-6.73435e-12
-8.68708e-12
-1.08347e-11
-1.34283e-11
-1.63275e-11
-1.98558e-11
-2.38891e-11
-2.88502e-11
-3.46827e-11
-4.16784e-11
-4.98719e-11
-5.91889e-11
-6.94473e-11
-8.02307e-11
-9.09891e-11
-1.0124e-10
-1.10159e-10
-1.16931e-10
-1.20345e-10
-1.18973e-10
-1.11306e-10
-9.59373e-11
-7.23429e-11
-4.12256e-11
-3.28031e-12
5.01665e-11
3.11968e-10
6.47926e-10
9.20321e-10
1.05589e-09
1.07826e-09
9.81214e-10
6.63546e-10
3.52432e-10
1.33607e-10
3.82509e-11
1.71593e-11
2.65427e-11
1.52805e-10
3.53372e-10
4.63933e-10
4.85817e-10
4.91349e-10
5.35112e-10
6.56804e-10
8.79486e-10
1.24005e-09
1.79803e-09
2.53875e-09
3.24683e-09
3.13496e-09
8.37314e-10
2.04212e-10
-3.33082e-11
-5.8081e-11
-5.94178e-11
-8.59604e-12
-3.13176e-13
-1.19857e-11
-1.72605e-11
-2.36082e-11
-3.08601e-11
-3.89601e-11
-4.78118e-11
-5.73275e-11
-6.75639e-11
-7.81868e-11
-8.9456e-11
-1.00593e-10
-1.11309e-10
-1.20398e-10
-1.26348e-10
-1.28135e-10
-1.24447e-10
-1.14685e-10
-9.90818e-11
-7.74489e-11
-5.07475e-11
-2.06398e-11
9.96689e-12
1.25388e-10
3.44574e-10
5.6407e-10
7.80522e-10
1.00695e-09
1.82354e-09
1.19188e-08
5.27062e-08
9.12026e-08
1.06699e-07
1.34846e-07
1.45782e-07
1.5318e-07
8.30644e-08
3.80362e-08
2.87381e-08
2.78243e-08
3.88091e-08
7.53541e-08
1.38989e-07
2.50395e-07
4.10052e-07
6.43213e-07
1.33084e-06
2.36944e-06
2.88389e-06
1.98356e-06
1.24969e-06
8.89967e-07
7.05058e-07
6.36558e-07
6.17232e-07
5.45208e-07
4.30461e-07
7.66076e-08
-6.88316e-11
-6.4677e-11
-2.51887e-11
-4.49761e-11
-6.60246e-11
-8.91222e-11
-1.11767e-10
-1.35098e-10
-1.56572e-10
-1.77394e-10
-1.9603e-10
-2.13448e-10
-2.29558e-10
-2.44741e-10
-2.58908e-10
-2.70992e-10
-2.77845e-10
-2.75706e-10
-2.60334e-10
-2.28958e-10
-1.82474e-10
-1.34724e-10
-9.45544e-11
-5.51395e-11
-1.80273e-11
1.51608e-11
1.12312e-10
2.58838e-10
4.69923e-10
1.07864e-09
3.43813e-09
1.07371e-08
2.32741e-08
3.48478e-08
4.30158e-08
5.00329e-08
5.55975e-08
6.02784e-08
6.80394e-08
9.68006e-08
1.67844e-07
3.7219e-07
8.4802e-07
1.91872e-06
4.31181e-06
8.00654e-06
1.1818e-05
1.87684e-05
5.30608e-05
0.000192518
0.000392501
0.00046317
0.000272154
6.70251e-05
1.58969e-05
1.31294e-05
2.60729e-05
3.93202e-05
4.80221e-05
2.04523e-05
1.40493e-07
-2.80443e-10
-9.20322e-11
-1.40115e-10
-1.96259e-10
-2.50582e-10
-3.0142e-10
-3.50698e-10
-3.92727e-10
-4.29871e-10
-4.60233e-10
-4.84369e-10
-5.09496e-10
-5.37123e-10
-5.73535e-10
-6.15578e-10
-6.57993e-10
-6.86167e-10
-6.81108e-10
-6.25797e-10
-5.1928e-10
-3.75571e-10
-2.26601e-10
-1.13729e-10
-4.32547e-11
-1.35476e-12
3.06337e-11
1.75505e-10
4.21279e-10
9.15342e-10
1.96382e-09
3.50088e-09
5.16443e-09
6.81284e-09
8.90426e-09
1.10667e-08
1.30183e-08
1.7584e-08
2.74929e-08
4.51911e-08
8.24448e-08
1.89563e-07
5.23637e-07
1.53077e-06
3.8072e-06
7.76937e-06
3.14623e-05
0.000195162
0.000448856
0.000531454
0.000534445
0.000534415
0.000401054
0.000274861
8.99456e-05
0.000144598
0.00046595
0.000945676
0.0012831
0.000602323
7.89937e-06
-6.72732e-10
-1.04864e-10
-1.24893e-10
-1.29555e-10
-1.25958e-10
-1.20223e-10
-1.08614e-10
-1.06035e-10
-7.05069e-11
-4.15048e-11
-1.53017e-11
-1.00714e-11
-2.11824e-12
-2.05357e-16
-1.98216e-16
-2.07432e-16
-1.85131e-16
-1.33839e-16
-9.97069e-17
-8.30847e-17
-7.18173e-17
-1.33732e-16
-1.56636e-16
1.90147e-12
4.62465e-10
2.82161e-09
7.51882e-09
1.4337e-08
2.26748e-08
2.98774e-08
3.38897e-08
3.58848e-08
3.61314e-08
3.4588e-08
3.05468e-08
2.66656e-08
4.19463e-08
8.19825e-08
1.2697e-07
1.55428e-07
2.24165e-07
3.94049e-07
8.91164e-07
2.5248e-06
9.85199e-06
4.60897e-05
9.95786e-05
0.000151375
0.000199003
0.000235862
0.00017358
0.000185486
0.000440639
0.000507803
0.00117715
0.00431136
0.0104026
0.0122818
0.0038872
4.78838e-05
-3.69317e-10
-5.5753e-11
-9.54513e-12
1.19157e-17
8.66173e-17
3.54436e-16
8.98613e-16
2.72358e-09
8.06864e-09
1.60657e-08
2.33049e-08
2.46983e-08
2.43838e-08
2.70199e-08
2.99568e-08
3.09004e-08
2.97168e-08
2.9649e-08
3.1504e-08
3.38575e-08
3.61661e-08
4.0626e-08
5.41058e-08
8.08463e-08
1.1747e-07
1.6784e-07
2.35953e-07
3.25676e-07
4.48261e-07
6.09667e-07
7.61777e-07
9.0081e-07
1.04738e-06
1.24695e-06
1.52377e-06
1.91603e-06
2.24245e-06
2.39365e-06
2.00293e-06
1.56673e-06
1.0731e-06
9.25251e-07
1.12772e-06
1.27499e-06
3.71162e-06
7.20486e-06
1.23175e-05
1.67115e-05
2.47299e-05
2.85569e-05
1.77948e-05
1.56378e-05
0.000110567
0.00180703
0.0113257
0.044857
0.076464
0.0511178
0.00670468
3.92748e-05
-6.93362e-10
3.44201e-10
7.25728e-09
3.35005e-08
6.66784e-08
8.4217e-08
1.52464e-07
2.90686e-07
5.11349e-07
8.42698e-07
1.1327e-06
1.20579e-06
1.23213e-06
1.34476e-06
1.55293e-06
1.76762e-06
1.89427e-06
1.92422e-06
1.96989e-06
2.08818e-06
2.25262e-06
2.41077e-06
2.56136e-06
2.8492e-06
3.34287e-06
3.99717e-06
4.72869e-06
5.19571e-06
5.05746e-06
4.79881e-06
5.14738e-06
6.19474e-06
7.87733e-06
1.01606e-05
1.24632e-05
1.41436e-05
1.41021e-05
1.39268e-05
1.50588e-05
1.53717e-05
1.35746e-05
1.0709e-05
9.72785e-06
9.20127e-06
9.20163e-06
1.15171e-05
1.1095e-05
1.20398e-05
1.93242e-05
1.61212e-05
5.16752e-06
2.23132e-06
5.02512e-05
0.00320821
0.0645078
0.28403
0.273958
0.0882096
0.00356071
4.74626e-06
-1.46041e-09
3.46291e-09
4.23988e-08
9.92344e-08
1.22075e-07
1.82427e-08
5.82705e-09
2.87935e-07
1.3281e-06
3.28658e-06
4.10478e-06
4.47447e-06
5.80447e-06
7.9066e-06
9.89416e-06
1.14578e-05
1.29704e-05
1.45672e-05
1.56042e-05
1.58114e-05
1.59464e-05
1.65449e-05
1.7829e-05
1.9714e-05
2.2435e-05
2.64344e-05
3.13723e-05
3.65202e-05
4.17956e-05
4.88684e-05
6.22966e-05
7.8014e-05
9.07934e-05
0.000100266
0.000106119
0.000106925
0.000102171
8.9309e-05
7.84651e-05
7.93815e-05
8.79081e-05
0.000102278
0.000113961
0.000114816
0.000111694
9.94387e-05
7.65222e-05
7.37979e-05
8.37396e-05
0.000105786
0.000102695
3.20672e-05
6.05447e-05
0.00294788
0.188202
0.754702
0.527193
0.0744971
0.00134096
-1.54082e-07
-7.95574e-09
1.53818e-14
-1.97155e-15
-1.96923e-12
5.15659e-12
6.68123e-06
9.5488e-06
1.77351e-05
6.7044e-05
0.000122777
0.000111487
4.69004e-05
3.40713e-05
3.6509e-05
5.0602e-05
7.70283e-05
0.000111459
0.000147682
0.000187371
0.000235147
0.000289606
0.000330096
0.00032104
0.000283187
0.000279522
0.000287062
0.000273647
0.000229218
0.000178986
0.000163316
0.000171853
0.00020543
0.000284056
0.000404141
0.000564295
0.000766868
0.000995584
0.00124032
0.00151084
0.00179035
0.00201616
0.00217365
0.00226007
0.00228419
0.00222175
0.00195581
0.00144562
0.00099738
0.000871726
0.000864314
0.000782075
0.000393971
0.000200407
0.00299437
0.223173
0.858864
0.610045
0.0953458
0.00236614
4.10675e-07
-1.36302e-08
5.93245e-14
-1.67532e-14
2.59287e-05
8.76014e-05
4.82943e-05
3.21118e-05
0.000154957
0.000514762
0.00125015
0.00196771
0.00191943
0.00128322
0.000309599
7.01724e-05
8.36487e-05
0.000106334
0.000115321
0.000116571
0.000118014
0.000118831
0.000120405
0.000127467
0.000137743
0.000144276
0.000146624
0.000149897
0.000153906
0.000158282
0.000168448
0.000200079
0.000267836
0.000360523
0.000458405
0.000549103
0.000623914
0.000698413
0.000794219
0.000924697
0.00110846
0.00137923
0.00173038
0.00199537
0.00206404
0.00200836
0.00176393
0.00137241
0.00106495
0.000939886
0.000858504
0.000639066
0.000225274
0.000200478
0.00398459
0.243911
0.667988
0.40064
0.0610008
0.00166935
1.70215e-06
-1.60097e-08
1.14412e-12
6.90267e-13
0.000224567
0.00106081
0.00356488
0.00829224
0.0138075
0.0232213
0.0526307
0.0980151
0.0934897
0.0493379
0.00869168
0.000757859
0.000824432
0.000823209
0.000384422
0.000102986
6.04911e-05
6.18298e-05
8.164e-05
0.000174032
0.000283929
0.000240547
8.84609e-05
1.40075e-05
2.86576e-05
0.000163134
0.000307725
0.000307572
0.000307398
0.000310099
0.000322857
0.000347631
0.000385248
0.000433954
0.000484439
0.000543956
0.000655861
0.000900193
0.00120734
0.00125898
0.00115885
0.000916668
0.00078128
0.000722475
0.000592621
0.000628178
0.000707493
0.000353383
0.000142429
0.000226712
0.0122988
0.318322
0.483906
0.242503
0.0312246
0.000872053
1.38577e-05
-1.74053e-08
1.49372e-13
4.84938e-14
3.39816e-14
-2.54478e-11
6.45091e-05
0.000327876
0.000788672
0.00222515
0.0072867
0.0173673
0.0210446
0.0164214
0.00816624
0.00743492
0.00756736
0.00539279
0.00162735
0.000188203
6.4934e-05
5.64903e-05
6.04762e-05
9.57582e-05
0.000175028
0.000187304
0.000143454
6.15717e-05
2.67372e-05
2.65544e-05
8.93226e-05
0.00029736
0.000307398
0.000189227
0.000184339
0.000212448
0.000222077
0.000221714
0.000216861
0.000205834
0.000201408
0.000208012
0.000249763
0.000392213
0.000620843
0.000683094
0.00062746
0.000466367
0.000377222
0.000439709
0.000589412
0.000502261
0.000142477
0.000218488
0.00803406
0.23384
0.459254
0.265937
0.0431138
0.00139957
1.88524e-05
-1.26878e-08
1.5683e-14
2.04428e-14
1.00742e-14
1.53188e-14
4.99443e-14
7.34868e-14
4.26536e-05
0.00012273
0.000311072
0.000682724
0.00129809
0.00302394
0.00721017
0.0133984
0.0130807
0.00720916
0.00133813
8.61156e-05
4.49504e-05
4.89066e-05
5.73491e-05
6.31087e-05
6.27023e-05
6.17928e-05
6.40917e-05
7.35617e-05
8.96299e-05
0.000106892
0.000125687
0.000150508
0.00017896
0.000204467
0.000229394
0.00024728
0.000250701
0.000247945
0.00023459
0.000208282
0.000190842
0.00019167
0.000204446
0.000264102
0.000403789
0.000503618
0.000490961
0.000383935
0.00025521
0.000257253
0.000300805
0.000324593
0.000210276
0.000104766
0.00135702
0.108879
0.663087
0.544124
0.131398
0.00624029
3.94791e-05
-1.66155e-08
1.9115e-07
4.53217e-07
1.03772e-06
6.2771e-07
7.33062e-07
7.46007e-07
2.39511e-06
8.36609e-06
2.12314e-05
5.21235e-05
0.000161361
0.000671634
0.0017977
0.00199046
0.00136846
0.000347135
1.49995e-05
7.83729e-06
7.87176e-06
7.82101e-06
7.87191e-06
7.82114e-06
7.87595e-06
7.83983e-06
7.88805e-06
7.85972e-06
2.62884e-05
4.88643e-05
6.77327e-05
0.000129456
0.000219294
0.000219506
0.000214022
0.000199257
0.000177481
0.000151631
0.000142543
0.000154805
0.000192644
0.000203041
0.000195855
0.000181982
0.000160594
0.000140035
0.000107323
7.94118e-05
8.44523e-05
0.000133952
0.00027668
0.000327148
9.92296e-05
9.94893e-05
0.000819092
0.089759
0.717025
0.759296
0.231976
0.0125265
8.28238e-05
-2.87499e-08
7.26225e-07
2.21511e-06
2.26752e-06
2.26948e-06
2.20479e-06
2.49304e-06
2.6234e-06
2.92262e-06
3.9731e-06
7.54258e-06
1.45964e-05
2.92326e-05
3.57555e-05
3.06832e-05
3.05677e-05
3.60134e-05
4.49584e-05
6.58732e-05
9.75444e-05
0.00012799
0.000138766
0.00012699
9.70318e-05
5.93028e-05
2.5129e-05
3.42604e-05
0.000232547
0.000270219
0.000270084
0.000162264
8.31321e-05
0.000116705
0.000490186
0.000712238
0.000376152
0.000126562
0.000134099
0.000337174
0.000635984
0.000480978
0.000272622
0.000159294
0.000229412
0.00039372
0.000247866
0.000194665
0.000232609
0.000419846
0.000612048
0.000539365
0.000224896
7.80498e-05
0.00063913
0.0501637
0.564682
0.611502
0.206448
0.0132209
9.71944e-05
-1.44062e-08
2.58024e-08
1.46273e-07
9.39553e-11
1.96985e-10
9.34e-11
3.73172e-07
2.17425e-07
4.41102e-12
5.01907e-15
2.42182e-14
4.07301e-12
2.85871e-07
7.20202e-07
7.07692e-07
7.09186e-07
7.33941e-07
4.07813e-06
4.28579e-06
4.13569e-06
4.13616e-06
8.30304e-06
1.54973e-05
2.02045e-05
2.21887e-05
2.82058e-05
6.07263e-05
0.00013336
0.000149953
0.000125248
9.35668e-05
8.63222e-05
0.000112067
0.000175197
0.000180361
0.000157818