/*--------------------------------*- C++ -*----------------------------------*\
| =========                 |                                                 |
| \\      /  F ield         | OpenFOAM: The Open Source CFD Toolbox           |
|  \\    /   O peration     | Version:  2.1.1                                 |
|   \\  /    A nd           | Web:      www.OpenFOAM.org                      |
|    \\/     M anipulation  |                                                 |
\*---------------------------------------------------------------------------*/
FoamFile
{
    version     2.0;
    format      ascii;
    class       volScalarField;
    location    "0.0013";
    object      criterion2;
}
// * * * * * * * * * * * * * * * * * * * * * * * * * * * * * * * * * * * * * //

dimensions      [1 2 -2 0 0 0 0];

internalField   nonuniform List<scalar> 
36520
(
2.74987e-09
6.35256e-09
1.01666e-08
1.1459e-08
1.24414e-08
1.30768e-08
1.3557e-08
1.39025e-08
1.4194e-08
1.45005e-08
1.48462e-08
1.52784e-08
1.57282e-08
1.61233e-08
1.628e-08
1.6093e-08
1.55539e-08
1.48101e-08
1.40502e-08
1.34328e-08
1.29702e-08
1.2618e-08
1.23072e-08
1.20041e-08
1.16866e-08
1.13702e-08
1.10558e-08
1.07634e-08
1.05056e-08
1.03077e-08
1.01772e-08
1.0127e-08
1.01445e-08
1.02196e-08
1.03287e-08
1.04595e-08
1.05899e-08
1.07417e-08
1.09524e-08
1.13e-08
1.18864e-08
1.27017e-08
1.36733e-08
1.49257e-08
1.66191e-08
1.8833e-08
2.19455e-08
2.74575e-08
3.76227e-08
5.60555e-08
8.78159e-08
1.37677e-07
2.15047e-07
3.4299e-07
5.50162e-07
9.60966e-07
1.45374e-06
1.88947e-06
1.57693e-06
1.10789e-06
1.17478e-08
1.10917e-09
2.37223e-09
2.25075e-09
2.33422e-09
2.30303e-09
2.30971e-09
2.22729e-09
2.18836e-09
2.17244e-09
2.27579e-09
2.5667e-09
3.11298e-09
4.06336e-09
5.35711e-09
5.81556e-09
5.32066e-09
4.61063e-09
3.612e-09
2.76566e-09
2.3207e-09
2.22271e-09
2.27556e-09
2.40052e-09
2.50169e-09
2.61363e-09
2.70768e-09
2.85199e-09
3.08503e-09
3.47235e-09
4.02796e-09
4.80309e-09
5.77468e-09
6.891e-09
7.97962e-09
8.81116e-09
9.24951e-09
9.32142e-09
9.13603e-09
8.81207e-09
8.4656e-09
8.12784e-09
7.82563e-09
7.67616e-09
7.66899e-09
7.6295e-09
7.38599e-09
7.15604e-09
7.03737e-09
7.36137e-09
8.15951e-09
9.10416e-09
9.94459e-09
1.01767e-08
9.87761e-09
9.14706e-09
8.30012e-09
9.46136e-09
2.86848e-08
9.06017e-06
3.48638e-09
-2.58488e-09
-1.61033e-09
-1.47479e-09
-1.21726e-09
-1.0446e-09
-9.03059e-10
-9.04742e-10
-8.82321e-10
-7.96884e-10
-5.02503e-10
-1.7225e-11
3.54257e-10
3.38882e-10
1.74622e-10
6.13571e-11
-3.47385e-11
-8.07829e-11
5.19201e-10
2.17143e-09
2.62254e-09
2.69488e-09
2.73995e-09
2.79955e-09
2.75002e-09
2.71554e-09
2.64185e-09
2.58742e-09
2.56836e-09
2.64083e-09
2.73164e-09
2.81836e-09
2.85524e-09
2.87203e-09
2.88077e-09
2.86309e-09
2.79921e-09
2.68134e-09
2.54176e-09
2.41921e-09
2.34978e-09
2.32402e-09
2.33091e-09
2.42331e-09
2.59046e-09
2.76819e-09
2.94783e-09
3.16892e-09
3.4999e-09
3.9082e-09
4.30501e-09
5.04347e-09
6.95974e-09
9.56556e-09
1.07261e-08
1.07665e-08
1.02224e-08
1.07884e-08
1.52295e-08
1.11265e-05
-4.28947e-09
-4.183e-09
-3.00806e-09
-2.47874e-09
-2.01005e-09
-1.65187e-09
-1.41153e-09
-1.26923e-09
-1.14553e-09
-9.94041e-10
-7.72192e-10
-4.8475e-10
-1.63438e-10
1.35859e-10
3.46822e-10
4.92481e-10
3.86832e-10
4.72873e-12
-3.82009e-10
-6.6996e-10
-8.13792e-10
-7.77731e-10
-7.06471e-10
-6.26848e-10
-5.83497e-10
-5.24864e-10
-4.50547e-10
-3.84255e-10
-3.57443e-10
-2.91117e-10
-1.95656e-10
-7.36788e-11
5.48131e-11
1.84174e-10
3.1955e-10
4.72221e-10
6.47891e-10
8.22249e-10
9.38638e-10
1.01919e-09
1.07611e-09
1.10722e-09
1.10925e-09
1.11174e-09
1.10608e-09
1.01888e-09
8.57214e-10
7.875e-10
1.01294e-09
1.6831e-09
2.23879e-09
1.98733e-09
2.17658e-09
4.43311e-09
7.84229e-09
1.04528e-08
1.22412e-08
1.40666e-08
1.87903e-08
1.11899e-05
-1.11481e-08
-3.70374e-09
-2.39366e-09
-1.68731e-09
-1.32383e-09
-1.08952e-09
-9.37267e-10
-8.25084e-10
-7.0266e-10
-5.00265e-10
-1.40269e-10
4.54694e-10
1.32467e-09
2.40311e-09
3.48359e-09
4.35554e-09
3.97916e-09
2.37456e-09
7.61248e-10
-1.29025e-10
-4.73497e-10
-5.26158e-10
-4.61656e-10
-3.61736e-10
-2.95382e-10
-2.7375e-10
-2.92436e-10
-2.76349e-10
-1.85014e-10
-3.15566e-12
2.12852e-10
4.5251e-10
6.8361e-10
8.518e-10
9.15371e-10
8.72973e-10
7.7449e-10
5.58196e-10
3.4268e-10
1.64367e-10
1.18167e-10
2.39786e-10
3.46009e-10
4.79656e-10
6.53495e-10
8.2914e-10
9.20768e-10
9.94113e-10
1.14268e-09
1.47316e-09
1.70532e-09
1.20634e-09
8.56174e-10
9.05985e-10
1.64685e-09
3.20185e-09
8.80438e-09
1.72289e-08
2.57529e-08
8.40957e-06
-5.32419e-09
-1.82995e-09
-1.42969e-09
-1.17138e-09
-8.96836e-10
-5.70037e-10
-1.95113e-10
2.67314e-10
8.76265e-10
1.81248e-09
3.29643e-09
5.64151e-09
9.07481e-09
1.33952e-08
1.74576e-08
1.98204e-08
1.86534e-08
1.42313e-08
8.85561e-09
5.26931e-09
3.89947e-09
3.7759e-09
4.10998e-09
4.60975e-09
5.03849e-09
5.26843e-09
5.28188e-09
5.39729e-09
5.7499e-09
6.47091e-09
7.69901e-09
9.26301e-09
1.09794e-08
1.23872e-08
1.29262e-08
1.24103e-08
1.12938e-08
9.58823e-09
7.83105e-09
6.06482e-09
4.28443e-09
2.88204e-09
1.49289e-09
5.98863e-10
5.57237e-10
6.8385e-10
8.91962e-10
1.15504e-09
1.41451e-09
1.70343e-09
1.40054e-09
5.7408e-10
2.33904e-10
1.18226e-10
1.21179e-10
1.9292e-10
7.1244e-10
1.20508e-08
3.40495e-08
5.27733e-06
1.63409e-08
-1.32876e-09
-8.56369e-10
-2.83852e-10
5.30593e-10
1.65519e-09
3.00581e-09
4.67122e-09
6.64437e-09
9.35956e-09
1.33081e-08
1.91905e-08
2.72305e-08
3.65811e-08
4.46314e-08
4.80798e-08
4.78592e-08
4.4452e-08
3.77997e-08
3.15988e-08
2.84397e-08
2.73012e-08
2.68978e-08
2.67446e-08
2.66019e-08
2.62771e-08
2.55593e-08
2.5001e-08
2.48082e-08
2.53861e-08
2.68703e-08
2.93952e-08
3.27172e-08
3.61013e-08
3.87546e-08
3.98385e-08
3.87927e-08
3.56645e-08
3.15174e-08
2.71139e-08
2.22317e-08
1.78859e-08
1.3488e-08
8.85622e-09
6.19076e-09
4.81207e-09
3.90398e-09
3.14305e-09
2.76512e-09
2.48948e-09
2.36452e-09
1.28664e-09
1.24309e-10
1.8014e-11
1.34106e-11
1.49254e-11
7.20784e-11
2.28416e-09
3.45407e-08
3.24872e-06
2.11717e-08
-3.51494e-10
7.23924e-10
2.41789e-09
4.63567e-09
7.70895e-09
1.08022e-08
1.42453e-08
1.76202e-08
2.12771e-08
2.63003e-08
3.29282e-08
4.03537e-08
4.7882e-08
5.51408e-08
6.13079e-08
6.62718e-08
7.25273e-08
7.66957e-08
7.59689e-08
7.365e-08
7.12131e-08
6.83901e-08
6.49259e-08
6.10996e-08
5.77017e-08
5.50787e-08
5.29728e-08
5.11379e-08
4.97178e-08
4.9053e-08
4.92861e-08
5.03524e-08
5.16943e-08
5.16954e-08
4.87521e-08
4.71776e-08
4.70679e-08
4.62265e-08
4.27349e-08
3.76215e-08
3.2247e-08
2.71694e-08
2.244e-08
1.87268e-08
1.57653e-08
1.29896e-08
9.83379e-09
7.11054e-09
6.93929e-09
7.79814e-09
9.26579e-09
5.21654e-09
4.70175e-11
1.49872e-11
1.26096e-11
2.91515e-11
1.46665e-09
2.81893e-08
2.07238e-06
1.86991e-07
8.50713e-10
2.76202e-09
5.22143e-09
7.73134e-09
1.05062e-08
1.24763e-08
1.42845e-08
1.62114e-08
1.81902e-08
1.89905e-08
1.55807e-08
9.08121e-09
5.98303e-09
6.55825e-09
1.06299e-08
2.45324e-08
3.94648e-08
4.60288e-08
5.05669e-08
5.48618e-08
5.94511e-08
6.36531e-08
6.56506e-08
6.56998e-08
6.52274e-08
6.39808e-08
6.17659e-08
5.86832e-08
5.50681e-08
5.18116e-08
4.90436e-08
4.67322e-08
4.48422e-08
4.31886e-08
4.15482e-08
3.96082e-08
3.69415e-08
3.34876e-08
2.964e-08
2.59269e-08
2.24969e-08
1.94322e-08
1.69638e-08
1.53743e-08
1.50692e-08
1.63328e-08
1.76757e-08
1.71674e-08
1.83853e-08
2.09941e-08
2.13705e-08
1.40512e-08
1.3091e-10
1.8735e-11
1.46396e-11
2.42558e-11
6.63324e-10
3.2113e-08
1.33527e-06
2.69777e-07
3.07873e-10
2.07483e-09
3.60157e-09
5.70584e-09
7.34561e-09
8.56367e-09
9.90021e-09
1.12207e-08
1.25282e-08
1.3448e-08
1.29042e-08
1.03664e-08
6.56233e-09
5.10353e-09
6.15197e-09
1.12943e-08
2.37226e-08
3.06295e-08
3.24749e-08
3.3813e-08
3.53372e-08
3.73241e-08
4.06339e-08
4.65836e-08
5.72668e-08
7.06682e-08
7.52575e-08
7.17678e-08
6.50045e-08
5.71587e-08
5.09303e-08
4.62386e-08
4.22549e-08
3.89325e-08
3.65399e-08
3.50588e-08
3.41671e-08
3.31725e-08
3.16152e-08
2.96714e-08
2.73058e-08
2.4399e-08
2.19386e-08
2.03821e-08
1.97154e-08
1.90532e-08
1.72359e-08
1.73094e-08
2.04025e-08
2.44697e-08
3.04713e-08
1.57511e-08
1.31376e-10
2.6835e-11
2.62721e-11
4.75432e-11
1.02607e-09
3.9075e-08
1.2357e-06
1.37426e-07
-1.53785e-10
2.43797e-09
5.34187e-09
7.21408e-09
9.20306e-09
1.07394e-08
1.20275e-08
1.34537e-08
1.56602e-08
1.8019e-08
1.72757e-08
9.08946e-09
3.2319e-09
2.20667e-09
2.87983e-09
7.9256e-09
3.79287e-08
6.15733e-08
6.47476e-08
6.5909e-08
6.5591e-08
6.63619e-08
6.90945e-08
7.42637e-08
8.2134e-08
8.972e-08
9.3595e-08
9.19117e-08
8.45537e-08
7.15257e-08
6.46695e-08
6.3676e-08
6.47589e-08
6.60852e-08
6.7769e-08
6.90547e-08
6.88157e-08
6.66264e-08
6.2964e-08
5.90817e-08
5.4994e-08
5.03361e-08
4.5041e-08
3.87314e-08
3.29448e-08
2.81647e-08
2.20123e-08
1.87318e-08
2.18224e-08
2.74442e-08
3.00889e-08
1.37698e-08
8.88327e-11
2.43764e-11
2.23386e-11
4.31183e-11
1.56348e-09
3.64759e-08
1.23079e-06
2.67907e-08
-1.00549e-10
1.36814e-09
3.6924e-09
6.02957e-09
8.82719e-09
1.07646e-08
1.25298e-08
1.4445e-08
1.72857e-08
2.14332e-08
2.44637e-08
1.17947e-08
2.32252e-09
1.18853e-09
1.64315e-09
4.1781e-09
2.9007e-08
7.94514e-08
8.50751e-08
9.01686e-08
9.12382e-08
9.1548e-08
9.34396e-08
9.39175e-08
9.03048e-08
9.1986e-08
9.93281e-08
1.03338e-07
9.82164e-08
7.60131e-08
6.31156e-08
6.02084e-08
6.72057e-08
7.69535e-08
8.33266e-08
8.43155e-08
5.81746e-08
4.62879e-08
4.53389e-08
6.11434e-08
6.31139e-08
5.68464e-08
4.88367e-08
4.11786e-08
3.38147e-08
2.4092e-08
1.59581e-08
1.20695e-08
1.5097e-08
2.39219e-08
2.52171e-08
1.37202e-08
8.89336e-11
2.4867e-11
1.98348e-11
2.57341e-11
8.85705e-10
2.1235e-08
1.37433e-06
2.60748e-08
2.87984e-12
9.5189e-10
2.68099e-09
4.61608e-09
7.69198e-09
1.04959e-08
1.27906e-08
1.47214e-08
1.74267e-08
2.08022e-08
2.11158e-08
1.03813e-08
2.35181e-09
6.58194e-10
4.12713e-10
4.93437e-10
1.08761e-09
1.05653e-08
7.89271e-08
9.4343e-08
9.98308e-08
1.03104e-07
1.05843e-07
1.06022e-07
9.851e-08
9.32552e-08
9.65748e-08
1.02239e-07
9.72026e-08
8.89395e-08
6.78727e-08
4.75822e-08
4.97152e-08
6.82603e-08
8.17443e-08
8.488e-08
8.60833e-08
7.94552e-08
4.8921e-08
4.12322e-08
5.28341e-08
6.09756e-08
5.13244e-08
3.81159e-08
2.17628e-08
1.01522e-08
8.282e-09
1.05847e-08
1.85233e-08
2.57736e-08
2.63792e-08
1.43769e-08
1.03603e-10
2.96384e-11
2.292e-11
2.81522e-11
8.96801e-10
1.98045e-08
1.38237e-06
1.33908e-07
1.61684e-10
2.56236e-09
4.40804e-09
6.17606e-09
8.89941e-09
1.05243e-08
1.01746e-08
1.08751e-08
1.26524e-08
1.59197e-08
1.90373e-08
2.02275e-08
5.14461e-09
5.24493e-10
2.0519e-10
2.09687e-10
3.00434e-10
9.48103e-10
1.53046e-08
7.90748e-08
8.62254e-08
8.50483e-08
8.3357e-08
8.47453e-08
8.67992e-08
9.04144e-08
9.66673e-08
9.86846e-08
9.21151e-08
8.29133e-08
7.18822e-08
6.1739e-08
6.1654e-08
6.40606e-08
6.66725e-08
6.81153e-08
6.78406e-08
6.60002e-08
6.10117e-08
5.44963e-08
5.03825e-08
4.63576e-08
4.23063e-08
3.37871e-08
1.99139e-08
1.06878e-08
8.39471e-09
8.70553e-09
1.31868e-08
2.22642e-08
2.27921e-08
4.01333e-09
6.06715e-11
3.1726e-11
2.9955e-11
7.11107e-11
3.40097e-09
3.47698e-08
1.30845e-06
3.36256e-07
-8.31923e-11
1.30047e-09
2.65436e-09
3.59411e-09
3.40535e-09
1.62813e-09
6.45969e-10
7.02116e-10
1.18459e-09
4.57477e-09
1.78833e-08
1.91776e-08
1.07086e-08
2.14479e-09
4.34312e-10
2.26116e-10
2.46613e-10
3.90223e-10
1.82608e-09
3.81009e-08
7.91956e-08
8.28871e-08
8.58818e-08
8.89187e-08
9.20405e-08
9.27046e-08
8.78006e-08
7.90035e-08
6.63925e-08
4.79666e-08
4.36994e-08
4.2977e-08
5.48794e-08
6.13391e-08
6.22931e-08
6.19553e-08
5.91994e-08
4.95926e-08
3.21549e-08
2.53395e-08
2.57802e-08
2.84592e-08
2.59067e-08
2.02952e-08
1.41323e-08
9.95145e-09
8.16846e-09
8.30139e-09
1.1728e-08
2.06071e-08
2.11332e-08
1.87151e-09
4.48876e-11
3.16715e-11
3.42581e-11
1.50949e-10
6.74953e-09
4.9188e-08
1.67992e-06
2.28331e-07
-4.10988e-11
1.37057e-09
2.95293e-09
3.68025e-09
2.71607e-09
2.68307e-09
4.86221e-09
1.37204e-08
1.952e-08
2.26329e-08
2.66573e-08
2.08725e-08
5.31443e-09
1.38288e-09
1.00262e-09
1.1964e-09
1.79471e-09
4.73487e-09
2.71257e-08
7.25554e-08
7.40443e-08
7.36469e-08
7.48862e-08
7.72451e-08
7.55658e-08
6.6027e-08
5.02155e-08
3.97302e-08
3.47189e-08
3.97941e-08
5.20127e-08
5.86486e-08
5.80135e-08
4.76104e-08
1.91173e-08
1.72924e-08
1.84991e-08
3.02946e-08
2.87898e-08
2.48642e-08
2.44277e-08
2.47323e-08
1.75917e-08
1.1788e-08
1.02658e-08
9.06238e-09
9.00935e-09
1.24665e-08
1.85612e-08
2.2966e-08
2.25355e-08
2.40057e-09
3.91522e-11
2.84339e-11
3.11807e-11
1.58758e-10
7.40608e-09
5.35802e-08
1.88836e-06
2.21215e-08
-3.75506e-10
8.59923e-10
2.98833e-09
6.3391e-09
9.77243e-09
1.24069e-08
1.45268e-08
1.67504e-08
1.94352e-08
2.35456e-08
2.95248e-08
3.6646e-08
4.16575e-08
4.35385e-08
4.62141e-08
4.98948e-08
5.46222e-08
6.37029e-08
7.03921e-08
7.1405e-08
7.22136e-08
7.34073e-08
7.33711e-08
6.98077e-08
6.0986e-08
5.32074e-08
4.90432e-08
4.61052e-08
4.57456e-08
4.89934e-08
5.17199e-08
5.12632e-08
3.92598e-08
3.00518e-08
3.00745e-08
3.13066e-08
3.74698e-08
4.31263e-08
3.97569e-08
3.37795e-08
2.80186e-08
2.23044e-08
1.67778e-08
1.2811e-08
1.13588e-08
1.08611e-08
1.19664e-08
1.46756e-08
1.7167e-08
1.80422e-08
1.59491e-08
1.1765e-09
2.97648e-11
1.61869e-11
1.65837e-11
7.46935e-11
3.2821e-09
3.73801e-08
2.53246e-06
1.97374e-08
-1.39494e-09
-9.60939e-10
-3.92667e-10
4.28413e-10
1.49408e-09
2.62347e-09
3.87214e-09
4.94442e-09
6.39309e-09
8.62102e-09
1.20697e-08
1.68132e-08
2.21086e-08
2.66528e-08
2.99232e-08
3.21714e-08
3.39865e-08
3.44173e-08
3.28849e-08
3.06813e-08
3.02861e-08
3.08122e-08
3.04372e-08
2.84818e-08
2.50878e-08
2.13406e-08
1.77118e-08
1.49452e-08
1.34922e-08
1.28824e-08
1.298e-08
1.33168e-08
1.38694e-08
1.46471e-08
1.56596e-08
1.63499e-08
1.60264e-08
1.48038e-08
1.28933e-08
1.08993e-08
9.55528e-09
8.36795e-09
7.65755e-09
7.41961e-09
7.75523e-09
8.74556e-09
1.01789e-08
1.16099e-08
1.27208e-08
1.23634e-08
6.3804e-09
3.87528e-10
4.41978e-11
1.83574e-11
1.48278e-11
6.31781e-11
2.09774e-09
3.17784e-08
3.62682e-06
6.83916e-09
-2.02065e-09
-1.50781e-09
-1.23408e-09
-9.49701e-10
-6.89199e-10
-4.60256e-10
-2.41773e-10
-2.18254e-11
3.28785e-10
9.02682e-10
1.72539e-09
2.73373e-09
3.81388e-09
4.874e-09
5.91273e-09
6.94173e-09
7.54583e-09
7.12369e-09
5.73312e-09
4.54202e-09
4.38503e-09
4.71059e-09
4.82299e-09
4.35984e-09
3.36485e-09
2.12042e-09
1.0526e-09
4.03208e-10
2.19274e-10
2.5559e-10
3.17947e-10
4.00202e-10
5.00539e-10
5.92866e-10
6.59399e-10
6.81978e-10
6.72979e-10
6.68984e-10
7.12012e-10
8.28516e-10
1.02667e-09
1.31787e-09
1.76539e-09
2.4215e-09
3.30348e-09
4.47491e-09
5.7054e-09
6.79805e-09
7.7161e-09
7.46456e-09
4.85662e-09
1.417e-09
3.35366e-10
1.35427e-10
8.99868e-11
1.55176e-10
3.26686e-09
3.25558e-08
5.34382e-06
1.07682e-09
-3.81628e-09
-2.50735e-09
-1.76508e-09
-1.39798e-09
-1.22746e-09
-1.15583e-09
-1.11474e-09
-1.067e-09
-9.47252e-10
-7.29539e-10
-4.38573e-10
-1.31409e-10
1.30043e-10
3.30678e-10
4.95587e-10
6.42733e-10
6.5718e-10
4.2752e-10
8.5685e-11
-1.37484e-10
-1.55472e-10
-9.05207e-11
-4.40235e-11
-1.02538e-10
-2.40287e-10
-3.99177e-10
-4.71328e-10
-4.18941e-10
-3.57213e-10
-2.78681e-10
-1.39796e-10
3.51964e-11
2.02835e-10
3.22358e-10
3.81817e-10
3.72988e-10
3.45635e-10
3.43563e-10
4.07918e-10
5.2267e-10
6.72127e-10
9.19203e-10
1.30517e-09
1.86377e-09
2.63551e-09
3.60692e-09
4.64369e-09
5.56101e-09
5.72832e-09
5.41845e-09
4.96961e-09
4.34505e-09
2.90836e-09
1.70463e-09
8.52971e-10
1.09892e-09
1.09381e-08
2.5824e-08
7.41354e-06
6.28416e-09
-3.69427e-09
-2.7859e-09
-2.42293e-09
-1.97759e-09
-1.7862e-09
-1.67793e-09
-1.63234e-09
-1.52711e-09
-1.32305e-09
-1.02127e-09
-7.10577e-10
-4.49454e-10
-2.58459e-10
-1.49722e-10
-1.15617e-10
-1.43248e-10
-1.96432e-10
-2.75155e-10
-3.01303e-10
-2.98655e-10
-3.09471e-10
-3.31541e-10
-3.10639e-10
-2.60165e-10
-8.70415e-11
2.49509e-10
5.75698e-10
6.54484e-10
6.59596e-10
6.9783e-10
7.94445e-10
9.00669e-10
9.75005e-10
9.78744e-10
9.18382e-10
8.03076e-10
6.72498e-10
5.7381e-10
5.47418e-10
6.06257e-10
7.40433e-10
9.63096e-10
1.33114e-09
1.8815e-09
2.54822e-09
3.22127e-09
3.83669e-09
4.17391e-09
4.17809e-09
3.87182e-09
3.5675e-09
3.30911e-09
3.03435e-09
2.9033e-09
3.46539e-09
6.4733e-09
1.23942e-08
1.86411e-08
9.21911e-06
7.11949e-09
-2.18633e-09
-1.68056e-09
-1.73514e-09
-1.50172e-09
-1.40577e-09
-1.31728e-09
-1.29807e-09
-1.17744e-09
-9.21522e-10
-4.3663e-10
3.00876e-10
1.33384e-09
2.57051e-09
3.28988e-09
3.05332e-09
2.57023e-09
2.74363e-09
3.49944e-09
4.22809e-09
4.13236e-09
3.85582e-09
3.59415e-09
3.567e-09
3.63164e-09
3.73318e-09
3.59422e-09
3.31252e-09
2.97147e-09
2.69825e-09
2.47807e-09
2.30601e-09
2.11717e-09
1.89217e-09
1.60959e-09
1.30407e-09
1.0023e-09
7.55583e-10
5.94751e-10
5.36154e-10
5.79662e-10
7.25117e-10
9.96557e-10
1.41474e-09
1.97045e-09
2.69477e-09
3.51412e-09
4.03968e-09
4.07888e-09
3.79201e-09
3.41728e-09
3.29225e-09
3.60464e-09
4.41719e-09
5.38777e-09
6.37237e-09
7.25379e-09
9.2546e-09
1.24187e-08
1.14199e-05
1.40425e-08
1.45766e-09
2.03944e-09
1.59123e-09
1.57149e-09
1.42702e-09
1.41177e-09
1.35573e-09
1.36712e-09
1.42428e-09
1.5477e-09
1.77036e-09
2.14661e-09
2.76578e-09
3.58734e-09
4.22753e-09
4.39667e-09
4.37796e-09
4.21211e-09
4.03709e-09
3.92849e-09
3.992e-09
4.125e-09
4.34167e-09
4.47933e-09
4.58179e-09
4.58306e-09
4.58926e-09
4.60397e-09
4.7745e-09
5.13107e-09
5.66723e-09
6.26794e-09
6.76384e-09
6.90985e-09
6.61617e-09
5.9332e-09
5.09481e-09
4.27882e-09
3.5776e-09
3.01124e-09
2.54571e-09
2.20135e-09
1.98722e-09
1.86214e-09
1.88447e-09
2.02452e-09
2.20265e-09
2.41356e-09
2.78143e-09
3.43564e-09
4.48413e-09
5.5694e-09
6.26316e-09
6.06699e-09
5.96157e-09
5.89317e-09
7.43418e-09
1.50846e-08
1.00896e-05
5.52613e-09
8.07622e-09
1.13029e-08
1.23526e-08
1.31654e-08
1.36632e-08
1.40422e-08
1.43381e-08
1.46113e-08
1.48926e-08
1.51821e-08
1.54685e-08
1.57169e-08
1.58882e-08
1.59329e-08
1.5831e-08
1.55854e-08
1.52399e-08
1.48321e-08
1.43955e-08
1.39685e-08
1.35713e-08
1.31811e-08
1.28027e-08
1.24082e-08
1.20148e-08
1.16287e-08
1.12684e-08
1.09488e-08
1.06943e-08
1.05285e-08
1.04813e-08
1.05525e-08
1.07276e-08
1.09553e-08
1.12163e-08
1.14862e-08
1.18088e-08
1.22877e-08
1.30384e-08
1.41199e-08
1.55248e-08
1.73772e-08
1.99768e-08
2.35794e-08
2.89854e-08
3.72707e-08
4.96759e-08
6.85425e-08
9.7809e-08
1.43704e-07
2.16046e-07
3.25933e-07
5.06394e-07
7.41102e-07
1.1158e-06
1.54332e-06
2.29756e-06
2.02395e-06
1.45517e-06
4.36004e-09
7.62536e-09
1.10105e-08
1.21622e-08
1.30931e-08
1.36025e-08
1.40485e-08
1.43585e-08
1.4608e-08
1.48283e-08
1.4986e-08
1.51398e-08
1.52239e-08
1.52959e-08
1.52847e-08
1.52361e-08
1.51032e-08
1.49203e-08
1.46809e-08
1.43937e-08
1.40606e-08
1.37094e-08
1.3343e-08
1.29728e-08
1.25923e-08
1.22119e-08
1.18237e-08
1.14513e-08
1.11102e-08
1.08495e-08
1.06935e-08
1.06641e-08
1.0753e-08
1.09474e-08
1.12086e-08
1.14902e-08
1.17205e-08
1.19105e-08
1.21767e-08
1.26799e-08
1.35872e-08
1.49537e-08
1.67806e-08
1.91461e-08
2.25914e-08
2.80049e-08
3.65138e-08
4.95776e-08
6.89307e-08
9.68795e-08
1.3897e-07
2.03049e-07
2.99868e-07
4.5274e-07
6.43701e-07
9.03448e-07
1.19201e-06
2.07739e-06
2.11482e-06
1.44107e-06
1.15847e-08
4.1951e-10
1.46903e-09
1.14638e-09
1.16481e-09
1.01875e-09
1.11536e-09
1.12569e-09
1.24682e-09
1.37176e-09
1.51992e-09
1.70604e-09
1.88448e-09
2.12297e-09
2.33777e-09
2.60507e-09
2.84429e-09
3.09576e-09
3.34497e-09
3.58835e-09
3.83066e-09
4.06877e-09
4.281e-09
4.5134e-09
4.69557e-09
4.87743e-09
4.9822e-09
5.07309e-09
5.16818e-09
5.39914e-09
5.77476e-09
6.28944e-09
6.82656e-09
7.26919e-09
7.44993e-09
7.23496e-09
6.69288e-09
5.90433e-09
5.06934e-09
4.3214e-09
3.74144e-09
3.29718e-09
2.91065e-09
2.54932e-09
2.43882e-09
2.49386e-09
2.66267e-09
2.93661e-09
3.3118e-09
3.79355e-09
4.37949e-09
5.07395e-09
5.74174e-09
6.37991e-09
6.2831e-09
6.04315e-09
5.43931e-09
6.04644e-09
1.02543e-08
1.00441e-05
3.61003e-09
-3.14694e-09
-2.12598e-09
-2.007e-09
-1.67279e-09
-1.49121e-09
-1.14273e-09
-8.73791e-10
-5.07064e-10
-1.69334e-10
1.94769e-10
6.31309e-10
1.10627e-09
1.776e-09
2.44984e-09
3.23761e-09
3.90373e-09
4.40414e-09
4.6914e-09
4.75718e-09
4.62352e-09
4.37014e-09
3.99728e-09
3.62903e-09
3.18424e-09
2.8201e-09
2.47726e-09
2.17721e-09
1.87528e-09
1.66796e-09
1.52908e-09
1.44644e-09
1.37518e-09
1.30403e-09
1.19868e-09
1.04614e-09
8.64758e-10
6.74957e-10
5.2298e-10
4.43878e-10
4.54672e-10
5.58079e-10
7.43108e-10
1.00896e-09
1.3798e-09
1.87561e-09
2.2953e-09
2.49261e-09
2.53603e-09
2.56424e-09
2.6941e-09
3.05308e-09
3.64522e-09
4.46973e-09
5.23397e-09
5.91353e-09
6.34965e-09
7.89529e-09
1.05788e-08
1.14715e-05
1.88396e-10
-4.32652e-09
-2.95224e-09
-2.42581e-09
-1.82462e-09
-1.41213e-09
-9.83046e-10
-7.70191e-10
-5.66052e-10
-4.63087e-10
-3.72823e-10
-2.71471e-10
-1.84699e-10
-8.49537e-11
-3.14104e-11
9.38132e-12
1.1379e-11
6.58874e-12
-2.96214e-12
-9.72861e-12
-2.6815e-11
-3.11178e-11
-4.52112e-11
-4.01926e-11
-5.21555e-11
-6.26101e-11
-9.31738e-11
-1.13283e-10
-1.32145e-10
-1.11857e-10
-4.94896e-11
5.37924e-11
1.672e-10
2.65208e-10
3.22137e-10
3.35154e-10
3.16591e-10
2.92304e-10
2.97665e-10
3.68109e-10
5.31223e-10
8.22633e-10
1.29674e-09
2.06563e-09
3.32896e-09
5.22626e-09
7.64492e-09
8.17971e-09
6.81998e-09
5.40744e-09
4.8026e-09
4.36821e-09
3.62572e-09
3.13708e-09
2.67332e-09
2.63673e-09
4.0881e-09
9.8034e-09
1.63881e-08
9.02489e-06
-8.26522e-10
-4.51566e-09
-2.91181e-09
-2.31698e-09
-1.95482e-09
-1.70177e-09
-1.50922e-09
-1.35069e-09
-1.2132e-09
-1.09072e-09
-9.76408e-10
-8.56517e-10
-7.25126e-10
-5.79115e-10
-4.39062e-10
-3.04279e-10
-1.84489e-10
-7.60816e-11
2.26386e-11
1.23572e-10
2.15394e-10
2.98267e-10
3.34919e-10
3.54962e-10
3.52905e-10
3.26974e-10
2.53605e-10
1.48412e-10
4.33753e-11
-1.4541e-11
-4.18225e-11
-3.58001e-11
4.80795e-12
8.45316e-11
1.92082e-10
2.92858e-10
3.55654e-10
3.91837e-10
4.33574e-10
5.27784e-10
7.1843e-10
1.04171e-09
1.55251e-09
2.37001e-09
3.6003e-09
4.69728e-09
6.14325e-09
9.61432e-09
1.18573e-08
1.13698e-08
1.02457e-08
7.54298e-09
5.46195e-09
3.71021e-09
2.29209e-09
1.19193e-09
5.82739e-10
2.68774e-09
2.25728e-08
5.64163e-06
4.00454e-09
-3.05561e-09
-1.88041e-09
-1.55196e-09
-1.41795e-09
-1.31761e-09
-1.21521e-09
-1.11054e-09
-9.94149e-10
-8.68194e-10
-7.10696e-10
-4.88451e-10
-1.40795e-10
3.94931e-10
1.17018e-09
2.21408e-09
3.478e-09
4.82027e-09
6.05905e-09
7.12316e-09
8.03881e-09
8.71422e-09
8.9513e-09
8.90639e-09
8.64567e-09
8.13106e-09
7.27862e-09
6.15417e-09
5.11898e-09
4.55238e-09
4.16762e-09
3.81158e-09
3.38673e-09
2.89629e-09
2.3875e-09
1.87314e-09
1.41666e-09
1.1005e-09
1.00854e-09
8.33258e-10
8.77191e-10
1.11623e-09
1.53091e-09
2.18042e-09
3.09893e-09
4.47131e-09
6.9787e-09
1.19405e-08
1.68788e-08
2.03024e-08
1.79848e-08
1.03139e-08
6.18048e-09
2.922e-09
7.93441e-10
2.12235e-10
1.12857e-10
4.12233e-10
1.75239e-08
4.08356e-06
2.71273e-08
-1.50157e-09
-1.23046e-09
-1.11294e-09
-1.05986e-09
-9.94483e-10
-8.89029e-10
-6.93695e-10
-3.87253e-10
8.5553e-11
8.23051e-10
2.02846e-09
4.00423e-09
7.09951e-09
1.14682e-08
1.69148e-08
2.3011e-08
2.92876e-08
3.49863e-08
3.95569e-08
4.33224e-08
4.57315e-08
4.70343e-08
4.76336e-08
4.75126e-08
4.64917e-08
4.43265e-08
4.0993e-08
3.72751e-08
3.48108e-08
3.38695e-08
3.38483e-08
3.40441e-08
3.39416e-08
3.32326e-08
3.1078e-08
2.73342e-08
2.2354e-08
1.76665e-08
1.24776e-08
8.44757e-09
5.15664e-09
3.44743e-09
3.31904e-09
3.80325e-09
4.77155e-09
6.89496e-09
1.08553e-08
1.61883e-08
2.10419e-08
2.18773e-08
1.79513e-08
4.38877e-09
4.84335e-10
7.39523e-11
2.61196e-11
2.15439e-11
3.31759e-10
1.70664e-08
3.05295e-06
3.36462e-08
-1.04819e-09
-7.33058e-10
-4.57415e-10
-1.86066e-10
2.03698e-10
8.69656e-10
1.97274e-09
3.78813e-09
6.55735e-09
1.01311e-08
1.46497e-08
2.07118e-08
2.90108e-08
3.94083e-08
5.03885e-08
6.08073e-08
7.08263e-08
7.99088e-08
8.68408e-08
9.18408e-08
9.5207e-08
9.72603e-08
9.85296e-08
9.89677e-08
9.82263e-08
9.6502e-08
9.35078e-08
8.89161e-08
8.37193e-08
8.04247e-08
7.94644e-08
8.02842e-08
8.21729e-08
8.46946e-08
8.66999e-08
8.67767e-08
8.34128e-08
7.67242e-08
6.64382e-08
5.43956e-08
4.18553e-08
3.01571e-08
2.1158e-08
1.52101e-08
1.18015e-08
1.04886e-08
1.11356e-08
1.35822e-08
1.74974e-08
2.02208e-08
1.94224e-08
2.90619e-09
7.81713e-11
1.97672e-11
1.08895e-11
1.82017e-11
1.28583e-09
2.45089e-08
2.37367e-06
3.10767e-08
4.09764e-10
2.09533e-09
4.10019e-09
6.38828e-09
8.78066e-09
1.14467e-08
1.45859e-08
1.90491e-08
2.52709e-08
3.02988e-08
3.59299e-08
4.25216e-08
5.00415e-08
5.85341e-08
6.75682e-08
7.64588e-08
8.47637e-08
9.2365e-08
9.88925e-08
1.03995e-07
1.07661e-07
1.10006e-07
1.11219e-07
1.11324e-07
1.10687e-07
1.09522e-07
1.07805e-07
1.05378e-07
1.01635e-07
9.71678e-08
9.38627e-08
9.22876e-08
9.21204e-08
9.29397e-08
9.40495e-08
9.47787e-08
9.32454e-08
8.82724e-08
8.09641e-08
7.22874e-08
6.32618e-08
5.43207e-08
4.48244e-08
3.55956e-08
2.80585e-08
2.20065e-08
1.82261e-08
1.65742e-08
1.73526e-08
2.05325e-08
1.95359e-08
3.31364e-09
3.72054e-11
1.603e-11
1.18444e-11
3.96726e-11
4.61697e-09
3.64632e-08
1.96993e-06
1.37618e-07
1.75775e-09
4.85297e-09
9.27205e-09
1.4624e-08
1.93367e-08
2.49444e-08
3.06295e-08
3.52515e-08
3.91487e-08
4.27618e-08
4.39896e-08
4.52793e-08
4.6799e-08
4.85239e-08
5.03474e-08
5.23208e-08
5.418e-08
5.56243e-08
5.6555e-08
5.77393e-08
6.0952e-08
6.52537e-08
6.68542e-08
6.71717e-08
6.84382e-08
7.17008e-08
7.54118e-08
7.59706e-08
7.39468e-08
7.01745e-08
6.39517e-08
5.64986e-08
4.88891e-08
4.15674e-08
3.51789e-08
2.97147e-08
2.4731e-08
2.03305e-08
1.69252e-08
1.42634e-08
1.20881e-08
1.02382e-08
8.75226e-09
7.94321e-09
8.15783e-09
8.83937e-09
8.7226e-09
9.12501e-09
1.07891e-08
1.60013e-08
1.90941e-08
3.86147e-09
3.94777e-11
2.34962e-11
2.60821e-11
7.42946e-11
5.41921e-09
5.18786e-08
1.47907e-06
1.58291e-07
5.53998e-10
6.03071e-09
1.09768e-08
1.64978e-08
2.05401e-08
2.1051e-08
1.79716e-08
1.2779e-08
1.00908e-08
1.15982e-08
1.76461e-08
3.691e-08
4.79325e-08
4.87898e-08
4.97392e-08
5.13044e-08
5.29777e-08
5.47198e-08
5.69961e-08
5.9402e-08
6.09811e-08
6.15029e-08
6.13303e-08
6.06082e-08
5.91605e-08
5.72008e-08
5.48951e-08
5.19702e-08
4.81317e-08
4.33703e-08
3.86018e-08
3.47932e-08
3.21567e-08
3.0616e-08
2.95538e-08
2.81722e-08
2.59279e-08
2.27152e-08
1.86478e-08
1.44519e-08
1.13981e-08
9.49861e-09
8.0948e-09
7.31537e-09
7.04324e-09
6.82686e-09
6.65385e-09
7.59979e-09
1.12037e-08
1.8622e-08
2.05085e-08
3.30818e-09
4.67042e-11
3.59969e-11
4.51347e-11
1.5188e-10
7.92225e-09
6.09861e-08
1.47512e-06
1.90783e-07
-1.62576e-10
2.0364e-09
2.23636e-09
1.17064e-09
5.75211e-10
3.91663e-10
2.61673e-10
1.37301e-10
1.06648e-10
1.44105e-10
3.15863e-10
2.5126e-09
2.72898e-08
2.82462e-08
3.01817e-08
4.51942e-08
6.23044e-08
6.76732e-08
6.96618e-08
6.96842e-08
6.36622e-08
5.67456e-08
5.8138e-08
6.60304e-08
6.86499e-08
6.37001e-08
5.15538e-08
4.19421e-08
3.97145e-08
3.80337e-08
3.69353e-08
3.62975e-08
3.59977e-08
3.58361e-08
3.56218e-08
3.52915e-08
3.42927e-08
3.13254e-08
2.53156e-08
1.9043e-08
1.57793e-08
1.32367e-08
1.13711e-08
8.69813e-09
6.36983e-09
5.51389e-09
5.36397e-09
6.81655e-09
1.50831e-08
2.3253e-08
2.34311e-08
9.70658e-10
4.43344e-11
3.99732e-11
5.03035e-11
2.6549e-10
9.13588e-09
5.63829e-08
1.51976e-06
1.96226e-07
2.29584e-10
3.30302e-09
5.96232e-09
7.52218e-09
7.27047e-09
6.18584e-09
3.66626e-09
1.25421e-09
5.48883e-10
5.63354e-10
9.32705e-10
2.45672e-09
3.09522e-09
3.40719e-09
5.59897e-09
2.0006e-08
5.79878e-08
6.77828e-08
6.98077e-08
7.12032e-08
7.01048e-08
6.55014e-08
6.50129e-08
6.73183e-08
7.14434e-08
7.07135e-08
6.62037e-08
5.74405e-08
4.36157e-08
4.12404e-08
4.51371e-08
4.52038e-08
4.46561e-08
4.56373e-08
4.7402e-08
4.92718e-08
5.0768e-08
5.06396e-08
4.81366e-08
4.19425e-08
3.09712e-08
1.98243e-08
1.38023e-08
1.01761e-08
8.23412e-09
6.72175e-09
5.8047e-09
6.84239e-09
1.21613e-08
2.20096e-08
2.29789e-08
1.60223e-09
4.70367e-11
3.75583e-11
4.49322e-11
1.71425e-10
6.49022e-09
4.9421e-08
1.49556e-06
2.2108e-07
8.50631e-10
3.09568e-09
6.17854e-09
8.47453e-09
1.08869e-08
1.22194e-08
1.29649e-08
1.25325e-08
1.10398e-08
9.11269e-09
5.39771e-09
2.46545e-09
1.35325e-09
1.5503e-09
3.42093e-09
1.97855e-08
5.58445e-08
6.24826e-08
6.64434e-08
7.02223e-08
7.40967e-08
7.78998e-08
8.0847e-08
8.24096e-08
8.18749e-08
7.87161e-08
7.35346e-08
6.7828e-08
6.25871e-08
5.81514e-08
5.51546e-08
5.36166e-08
5.35895e-08
5.50733e-08
5.71533e-08
5.95218e-08
6.17133e-08
6.1837e-08
5.88115e-08
5.30152e-08
4.33608e-08
3.11712e-08
2.22861e-08
1.68963e-08
1.33905e-08
1.11387e-08
9.4098e-09
9.24596e-09
1.05666e-08
1.5785e-08
2.12827e-08
8.79229e-09
6.86275e-11
2.85994e-11
3.13052e-11
6.05929e-11
1.79044e-09
3.49027e-08
1.28241e-06
4.8863e-08
1.96104e-09
3.95608e-09
5.81269e-09
7.61315e-09
1.03305e-08
1.28392e-08
1.54559e-08
1.81367e-08
2.07947e-08
2.30872e-08
1.90405e-08
1.21192e-08
1.31208e-08
2.06245e-08
4.80137e-08
7.39649e-08
8.05995e-08
8.68822e-08
9.32922e-08
9.94123e-08
1.04565e-07
1.086e-07
1.11511e-07
1.13261e-07
1.13809e-07
1.09994e-07
1.03726e-07
9.65755e-08
8.51964e-08
7.38173e-08
7.12191e-08
7.06721e-08
7.2339e-08
7.56191e-08
7.92832e-08
8.03711e-08
7.7479e-08
7.02727e-08
6.32357e-08
5.5418e-08
4.62452e-08
3.67014e-08
2.79591e-08
2.10993e-08
1.57487e-08
1.17025e-08
8.8811e-09
6.80905e-09
7.10382e-09
1.34753e-08
2.04597e-08
1.24299e-08
8.38736e-11
3.01007e-11
2.71909e-11
3.54565e-11
6.34618e-10
2.40729e-08
1.17203e-06
3.77436e-08
1.56291e-09
2.285e-09
3.80317e-09
5.88311e-09
8.47611e-09
1.1634e-08
1.55737e-08
2.08288e-08
2.70613e-08
3.53408e-08
4.55973e-08
5.74303e-08
6.96787e-08
7.95756e-08
8.63983e-08
9.1832e-08
9.5622e-08
9.794e-08
1.0059e-07
1.05099e-07
1.10831e-07
1.17433e-07
1.24137e-07
1.29414e-07
1.26553e-07
9.92533e-08
9.08292e-08
8.48822e-08
8.76585e-08
8.93195e-08
8.26984e-08
5.77994e-08
4.9615e-08
6.70992e-08
8.67267e-08
8.44983e-08
6.475e-08
4.47106e-08
4.27115e-08
4.04037e-08
3.28144e-08
2.09516e-08
1.19351e-08
9.49603e-09
7.44951e-09
5.85715e-09
4.73286e-09
4.69394e-09
7.31841e-09
1.62075e-08
2.47649e-08
1.53639e-08
1.56978e-10
2.9926e-11
2.26735e-11
2.54244e-11
4.02027e-10
1.50577e-08
1.4311e-06
3.48288e-08
8.86068e-10
2.78213e-09
5.64742e-09
8.80823e-09
1.29751e-08
1.76104e-08
2.34168e-08
3.10565e-08
4.15844e-08
5.34207e-08
6.55515e-08
7.69547e-08
8.70516e-08
9.49076e-08
1.00144e-07
1.03716e-07
1.07715e-07
1.12657e-07
1.18688e-07
1.23982e-07
1.2757e-07
1.30311e-07
1.32186e-07
1.31765e-07
1.25738e-07
1.13107e-07
1.06134e-07
1.02237e-07
9.93252e-08
9.61563e-08
9.21316e-08