/*--------------------------------*- C++ -*----------------------------------*\
| =========                 |                                                 |
| \\      /  F ield         | OpenFOAM: The Open Source CFD Toolbox           |
|  \\    /   O peration     | Version:  2.1.1                                 |
|   \\  /    A nd           | Web:      www.OpenFOAM.org                      |
|    \\/     M anipulation  |                                                 |
\*---------------------------------------------------------------------------*/
FoamFile
{
    version     2.0;
    format      ascii;
    class       volScalarField;
    location    "0.0013";
    object      epsilon;
}
// * * * * * * * * * * * * * * * * * * * * * * * * * * * * * * * * * * * * * //

dimensions      [0 2 -3 0 0 0 0];

internalField   nonuniform List<scalar> 
36520
(
130.462
336.831
870.636
1197.71
1509.08
1745.58
1950.19
2120.84
2276.12
2417.63
2525.25
2582.51
2556.58
2446.92
2259.86
2027.66
1806.73
1618.99
1472.85
1349.73
1232.18
1118.13
1005.16
895.948
792.334
697.302
609.498
529.848
457.925
393.601
335.845
284.421
238.86
199.419
166.124
138.849
117.13
100.292
87.5353
78.4207
73.0622
72.3977
78.535
93.8405
118.347
147.047
170.617
165.421
127.069
83.3003
47.127
23.2366
10.2007
3.91253
1.27724
0.354161
0.0982749
0.0338975
0.0249127
0.0335483
31.9805
160.829
237.537
253.842
271.729
275.789
285.112
292.731
306.727
313.326
304.764
270.745
213.337
148.153
98.3043
80.6358
74.8723
67.252
61.1736
56.018
51.1036
46.5701
42.4664
38.9594
35.8027
33.1834
31.0394
29.0356
26.5939
23.6913
20.4091
17.0313
13.9331
11.4727
9.84263
9.01647
8.85772
9.22297
10.0531
11.4374
13.674
17.4129
23.8468
34.6795
51.7363
76.6099
112.121
150.24
181.979
203.748
213.435
206.873
171.259
112.817
61.5362
28.9569
9.92492
1.63997
0.100197
0.00347794
11.1405
44.5728
53.8494
48.9834
47.0516
42.9425
42.1717
41.767
43.9484
45.2397
44.3958
40.8569
37.9178
41.3194
55.9512
84.93
81.7661
34.7502
9.67536
4.26569
3.32384
3.08924
3.02715
3.05154
3.09639
3.16023
3.25924
3.41801
3.55781
3.65926
3.74859
3.87839
4.11153
4.49801
5.0542
5.79292
6.75255
8.0059
9.67475
11.9819
15.38
20.7415
29.7417
45.3736
72.6821
120.155
203.182
349.411
545.771
734.347
871.546
861.235
618.928
354.162
184.334
92.253
37.356
8.17725
0.611811
0.00344741
4.04068
12.9298
13.0851
11.1251
11.1507
11.9486
14.9901
20.299
29.6517
45.0034
71.7482
119.893
208.25
362.078
606.483
967.481
954.834
449.305
119.173
29.6367
12.8796
9.84101
9.63243
10.1345
10.5409
10.3826
9.87612
10.2171
11.8511
13.8894
16.2949
19.0079
21.7371
23.9534
25.0744
25.0223
24.3742
24.155
25.1755
27.3282
31.0477
36.9206
46.0001
60.9541
86.3784
129.975
206.645
350.657
678.137
1205.27
1881.73
2198.28
1769.28
941.835
471.038
229.547
105.724
28.8338
2.68036
0.0060587
1.76625
6.07122
7.74435
11.4705
20.147
36.9739
66.9914
117.638
202.116
348.993
612.83
1094.34
1959.81
3392.4
5439.97
8187.4
8012.79
4416.86
1532.75
492.998
233.373
179.668
180.078
196.414
208.948
205.992
187.581
179.157
196.277
243.947
306.506
385.093
473.801
556.575
611.658
630.698
630.035
539.648
424.826
293.471
180.377
127.119
117.809
121.238
138.701
170.303
227.837
330.999
526.506
838.21
1369.57
1830.43
2043.16
1897.17
1122.31
560.096
260.265
77.1331
9.00537
0.0189395
1.1763
14.7662
32.1134
68.6958
138.534
268.408
491.369
866.129
1484.15
2567.62
4537.13
8164.58
14516.9
24396.1
36463.6
48095.6
46090.7
29735.4
13868.4
6246.01
3645.28
2907.71
2780.77
2887.97
2966.9
2927.18
2757.49
2634.77
2664.61
2975.49
3655.77
4611.93
5813.31
7067.86
8004.69
8320.89
8180.37
7369.41
6376.15
5221.37
3834.85
2717.07
1536.97
728.217
637.732
620.827
618.75
631.914
695.689
908.173
1218.21
1529.9
1731.47
1729.77
1547.1
1191.21
663.151
182.431
24.7167
0.0755846
3.49374
98.5957
231.688
489.941
957.976
1791.32
3120.92
5123.66
8019.09
12749.5
20817.1
34839.4
57301.4
87444.3
117204
134365
134916
113484
75924.8
47249.2
33753.6
27927.1
24942.2
22990.9
21304.6
19729.9
18282
17179.3
16370.1
16257.5
17157.5
19209.4
22361.8
26124.3
30002.8
32992.4
34385.6
33125.8
30151.2
26733.6
22261.9
18273.1
14075
8975.37
5809.98
4243.17
3088.19
2069.55
1587.06
1379.37
1327.05
1334.98
1307.17
1241.43
1113
955.128
818.044
403.926
61.1509
0.288886
28.9435
483.967
1152.84
2505.41
4906.17
9211.45
15193.6
23567.4
31468.3
38761.7
52187.6
71515.7
94210
116663
137899
155091
163988
162129
152569
141513
130317
119353
107257
93182.6
78065.3
65371.7
57460.9
52748.5
49932
48104.1
47468.8
47984.2
49555.7
52004.8
54910.3
57561.8
59259.6
58702.6
55448.9
50804.8
44845.2
38204.9
32046.7
25282
18948.7
14438.1
11199.2
8310.06
5761.17
4329.61
3282.01
2663.5
2134.96
1622.09
1181.42
868.075
690.917
443.972
117.074
0.983804
67.0942
1545.12
4727.62
9181.27
13428.9
18228.8
20899
23685.6
27339.9
32211.4
38729.2
46669.8
56094.9
66630.6
76121.1
84113.9
90363.4
95554.6
100237
104543
108254
109974
109674
107742
103938
97076.2
86726.1
76086.9
68151.3
62674.3
58666.4
55488.6
52949.8
50930.2
49235.5
47761.8
46439.7
45225
43591.6
41289.5
38267.3
34408.5
29916.4
25181.5
20306.8
15949.6
12843.8
10821.1
9037.34
7458.02
6417.84
5013.2
3553.14
2415.8
1521.96
939.641
612.589
382.541
135.64
3.19546
45.7014
1054.03
3830.6
6380.57
8609.19
10821.2
12506.8
13565.4
14337.8
15664.1
17914
20874.9
24422.9
28656.5
33482.6
37924.8
41507
43598.5
44266.1
44669.6
46151.3
49224.2
53025.4
56847
60683.6
64930.8
69493.6
71422.6
67788.6
60137.8
52047.1
45316.4
40337.3
36937.3
34810.3
33596.4
32882.1
32115.7
30946.9
29219.6
26828.5
24021.9
20930.2
17696.4
14443.2
11163.3
8011.29
5373.67
3664.83
2812.6
2236.83
1754.71
1393.02
1047.8
717.019
498.866
379.761
278.626
119.263
3.73748
29.3342
883.56
4298.64
9286.98
11775.5
14671
15962.9
15931.4
15622.8
16367.8
18517.3
22994.3
30756
40354.3
49746.7
58398.3
65401.1
69521.3
70364.9
69391.3
68712.5
69197.5
71460.9
75262.4
80575.4
87335.7
94917.2
101323
102132
94207.6
82200.6
71941
64856.1
61195.6
60186.6
60914
62460.6
63630.1
63321.6
61152.9
57026.6
51654.1
45497.7
38488.7
30946
23100.1
15650.3
9610.12
5724.1
3746.14
2772.69
2152.82
1707.05
1286.52
904.6
653.015
511.898
356.621
137.055
4.04651
33.9145
729.056
2130.54
5122.33
9215.86
14349.5
17011
18191.5
17019.1
18270.9
22093.4
29464.4
41169.8
55158.7
67858.2
79872.2
92770.9
102511
102900
102559
107057
111531
115398
120322
126547
132560
136306
135118
126431
111806
95992.9
83635.4
77451.2
76733.1
79666.7
84265.5
89004.5
92382.1
92921.9
90577.3
84882.2
76397.1
65808.3
53110.1
39541.8
26819.3
16349
8780.44
4745.32
3349.18
3146.72
2909.47
2437.8
2013.86
1519.17
1124.66
888.73
622.205
192.859
2.8134
39.8129
750.005
1774.18
3869.38
6742.29
12455.4
17251.8
18864.5
18322.7
18861.5
21924.6
26810.9
31615.1
35277.3
39510.5
47076.8
60356.8
81942.6
103751
114122
119036
123407
125564
128458
132222
135770
138285
137779
130241
115516
98067.7
83270.3
76090.9
75825.8
79430.9
84853.8
90642.1
94665.1
94577.7
90979.2
84920
76321.5
65730.1
52298.6
36464.1
21577.6
11617.4
6080.09
3653.63
3223.79
3770.73
3775.1
3304.68
2652.67
1929.94
1371.11
1038.25
702.201
207.73
2.75798
35.1833
1115.18
6420.22
10647.3
13811.6
20970.3
30628.6
36989.4
35714.1
28488.5
21679.2
18817.4
19246.8
20961
23293.6
26633.5
32422.1
43322.1
61097.8
78069.5
86335.2
89451.6
92670.7
95289.9
97117.5
98709.5
101468
106116
108820
101047
85070.1
71760.4
63118.5
58794.1
57694.7
58302.9
59316.8
59632.1
58474.9
55883.4
51992.9
47141
41848.5
36023
29329.3
20229
11501.2
6133.94
3531.79
2622.04
2322.02
2030.26
1739.1
1379.73
1062.2
834.109
708.653
467.832
145.657
3.63016
36.233
371.628
2940.21
5368.69
6685.04
7775.85
8371.87
9679.89
12393.7
16097.3
19693
22993.7
27279
30588.6
31609.3
32217.6
33955.4
41317.5
58727.2
81902.6
95775.6
97454.3
95955.8
97442.5
101843
106175
106997
100952
88235.1
74387.2
63561.6
56419.4
52528.7
51133.3
51397.4
52149.4
52196.5
50606.3
46869.9
41056.5
34775.9
29425.3
24835.4
20596.3
16388.4
11900.4
7694.8
4684.78
2921.46
2048.04
1574.08
1246.1
1006.88
817.381
670.901
587.373
543.858
326.438
87.3405
2.02702
39.0407
653.162
2586.67
5396.53
9366.33
16250.9
26558.7
37563.5
44310.5
45434.7
47838.1
54259.8
64671.9
75997
86774.1
100110
118112
140866
165234
166843
140683
118018
107636
103482
101967
99979.4
93105.2
81281.4
69582.3
61155.2
56107
52925.9
50859
49057.8
46315.7
42732.1
38937.1
34906.9
30501.3
26019.2
21814.4
18245.9
15232.5
12442.1
9919.82
7531.76
5398.16
3704.83
2582.03
1992.7
1698.87
1442.5
1156.99
914.877
723.47
613.639
551.973
307.711
75.9648
1.48795
25.1574
527.476
1512.21
3907.13
9017.76
14856.1
19671
24507
30235.1
38871.7
52362.4
72496.3
100967
136846
168591
180675
173574
156510
136346
114739
97600.7
90899.2
89675.2
88462.8
84271.9
76314
65901.7
56112.9
49226.6
45736.6
44705.6
44946.4
46203.3
47855.4
49506.5
49989.8
48264.8
44428.9
39253.3
33487.9
27515.2
21603.8
16208.1
11885.4
8777.58
6706.4
5227.43
4309.41
4203.73
4989.02
5273.73
4388.18
3056.65
1984.16
1290.77
896.393
697.074
370.539
77.5231
0.610974
2.98008
66.7885
166.508
365.503
748.624
1406.29
2405.24
3923.39
5476.26
7846.47
11604.9
17865.6
27439.2
38786.5
47402.2
51380.3
51898.2
50445.5
45236.1
37082.9
30284.6
28254.2
28688
28660.7
26814.4
23057.7
18393.9
14334.7
11611
10368.6
10001.6
10262.2
10713.5
11381
12292.6
13398.6
14115.1
13883.5
12952.1
11436.5
9731.27
8587.3
7670.86
7187.29
7259.08
7978.32
9341.16
11434.9
12951.6
12530
10234.8
7291.69
4813.94
3109.09
2015.02
1326.54
925.375
410.833
59.3781
0.225422
1.94927
9.49819
20.8218
44.6146
90.2632
166.892
276.227
422.148
606.026
846.131
1194.98
1719.39
2471.7
3440.92
4543.65
5791.94
7203.78
7853.23
6996.63
5085.88
3600.02
3240.61
3440.25
3597.47
3340.88
2655.7
1774.77
1040.15
611.326
492.248
510.619
530.421
552.106
579.153
607.56
627.279
637.028
638.048
644.194
671.794
748.299
911.725
1188.76
1655.75
2436.26
3593.3
5371.04
7318.48
8893.98
10212.2
10195.4
8846.45
7275.75
5581.93
3743.35
2233.25
1197.48
322.833
31.532
0.0801662
3.48292
4.31849
3.98755
5.45743
9.67648
16.9735
27.4177
40.6512
56.6085
76.377
103.488
140.944
193.014
263.103
356.408
481.375
658.197
739.22
605.513
375.005
241.855
225.642
257.179
282.843
260.738
192.39
113.134
60.9159
40.4369
38.5805
40.9463
43.6979
47.2261
52.0981
58.9719
68.6432
82.6433
102.636
131.452
173.424
236.897
340.024
514.159
815.972
1358.47
2306.96
3830.11
5955.12
8382.04
9324.99
8558.64
6653.84
4662.58
3420.63
2438.11
1464.65
656.379
165.583
16.9905
0.0297196
7.24419
12.3243
8.5045
5.32042
4.55524
4.30156
4.92071
5.84735
7.09567
8.29734
9.66369
11.4342
14.184
18.366
24.5013
33.1266
44.9227
46.173
33.7853
20.2484
15.1962
15.8535
18.2052
19.6435
18.0172
14.047
10.3497
8.67547
8.58123
9.33149
10.4986
12.0449
14.1353
17.0187
21.0463
26.7618
35.0923
47.5519
66.7975
97.6982
149.9
242.139
408.725
709.982
1235.08
2067.08
3238.08
4749.53
5983.49
6106.77
4980.19
3368.42
2147.49
1537.06
1169.96
751.498
347.091
92.5832
8.80482
0.0129356
13.7738
43.3032
39.4697
28.6744
24.6026
20.5068
19.7535
19.4786
20.0067
18.9583
16.1001
11.839
7.59993
4.67797
3.36434
3.32615
3.73764
3.58279
3.04885
2.69444
2.70185
2.88301
3.1103
3.2998
3.40518
3.49707
3.6745
3.99049
4.44506
5.042
5.74813
6.64621
7.86963
9.63717
12.2681
16.2773
22.5587
32.6936
49.5195
78.3637
129.717
224.017
399.903
728.171
1338.84
2426.22
4057
5442.12
5677.63
4794.22
3384.22
1990.81
1049.91
581.78
355.42
230.378
113.521
27.9307
2.00582
0.00416908
38.9408
157.301
196.269
183.916
183.741
176.32
179.882
182.888
187.676
184.669
170.382
144.913
113.037
82.7301
60.3973
49.3897
44.6328
40.7783
37.4677
34.5146
31.7067
29.0393
26.5513
24.3951
22.5999
21.2469
20.2649
19.589
19.1258
18.4616
17.4439
16.2896
15.2054
14.4531
14.2831
14.9491
16.759
20.1571
25.8034
34.9272
49.8335
75.039
119.096
197.871
344.047
539.15
734.383
823.685
737.885
535.233
336.966
196.295
120.43
82.6247
62.1614
45.6203
22.6377
4.41657
0.22526
0.00314005
216.664
417.197
876.152
1110.47
1323.7
1475.22
1605.23
1714.41
1809.85
1887.09
1935.47
1946.31
1913.61
1840.24
1731.93
1601.56
1464.75
1335.17
1211.83
1094.3
981.884
874.183
770.732
676.126
590.491
516.484
452.084
395.686
344.543
298.725
258.307
223.274
192.991
167.119
145.305
127.524
113.636
103.694
97.6384
95.2544
96.3749
100.582
106.907
111.991
110.112
95.1067
75.282
55.0597
37.0697
23.1033
13.428
7.211
3.65197
1.72529
0.772589
0.319729
0.117464
0.0323146
0.0198199
0.0252086
160.686
365.44
788.597
1022.69
1247.88
1394.18
1528.04
1624.5
1698.77
1755.19
1783.64
1795.82
1775.41
1736.39
1666.77
1581.04
1475.36
1360.16
1237.47
1110.2
985.904
869.13
760.735
662.3
573.116
494.307
424.602
364.087
311.509
266.267
227.01
193.11
164.053
139.745
119.823
103.846
91.5034
82.6998
77.4381
75.787
78.0243
84.3736
94.2429
104.68
105.855
91.814
70.944
50.5024
33.7114
21.4096
13.0415
7.59123
4.25627
2.2706
1.15932
0.57128
0.233783
0.0480382
0.0197816
0.0260328
28.8326
111.875
148.459
139.13
134.672
123.42
121.139
114.778
113.36
111.285
110.699
107.358
103.578
95.0823
85.9786
75.3748
65.4957
57.1773
49.8809
43.9026
38.6979
34.3137
30.6265
27.348
24.5834
22.2745
20.3929
18.9501
17.7758
16.7185
15.6559
14.6288
13.784
13.2918
13.2369
13.7111
14.9803
17.3271
21.2049
27.4382
37.5971
54.5202
83.1717
132.916
190.832
235.614
255.343
248.414
225.443
195.847
166.43
140.079
118.384
100.482
85.5746
69.6826
40.089
8.96306
0.434272
0.00330343
8.84081
25.445
23.8409
16.4548
12.7874
9.39022
8.16984
6.79431
6.41814
6.11738
6.11097
5.97602
5.77596
5.17939
4.58641
3.95479
3.46838
3.17649
3.01095
2.97363
3.02149
3.14125
3.3241
3.55462
3.8512
4.17779
4.52325
4.95215
5.51757
6.21452
7.06732
8.15575
9.59712
11.563
14.2873
18.1266
23.6436
31.7274
43.8979
62.8439
94.0158
148.032
246.205
427.584
761.287
1380
2009.28
2277.75
2173.97
1825.14
1392.65
1018.21
740.527
549.373
403.925
288.84
161.008
42.0906
2.84779
0.0041905
3.88104
6.33974
4.11278
2.10613
1.41407
0.947157
0.848819
0.795912
0.897656
1.06104
1.33789
1.71449
2.23571
2.91904
3.82303
4.9522
6.27513
7.71864
9.24895
10.8826
12.6132
14.3143
15.9247
17.4824
19.0565
20.7455
22.19
23.1772
24.3049
25.578
27.1047
29.3356
32.982
39.0738
48.9526
64.5283
88.6216
126.032
184.668
278.356
437.252
721.612
1264.73
2341.51
4486.36
8507.84
15715
22856.9
25709.4
23075.9
16562.1
9889.33
5365.3
3009.95
1842.22
1097.16
518.098
130.462
12.3188
0.0128639
1.86284
1.91332
1.04527
0.717284
0.837626
1.15849
1.7461
2.67034
4.14472
6.45253
10.1471
16.0136
25.4136
39.9612
61.3188
90.3863
126.278
165.361
203.955
241.89
281.963
316.727
332.996
337.057
339.042
333.511
314.108
278.29
242.302
224.02
207.782
190.125
172.754
160.437
158.413
171.013
203.953
255.695
332.642
444.398
640.977
978.784
1574.67
2675.83
4736.37
8619.66
17188
36416.9
51947.8
53886.1
44011.3
25647.9
11479.1
6086.51
4260.45
2790.68
1399.63
342.315
37.6964
0.0561168
1.05526
1.57835
1.9676
3.03222
4.75361
7.45295
11.7911
19.0536
31.4947
53.121
91.0979
158.291
279.378
491.949
845.289
1380.13
2096.19
2921.64
3723.81
4420.62
5053.1
5562.32
5742.29
5725.69
5599.86
5333.72
4839.18
4116.55
3447.29
3198.21
3076.7
2959.88
2758.86
2460.02
2102.59
1708.18
1353.7
1121.57
1146.13
932.367
889.387
1106.69
1579.18
2435.12
3980.54
6833.65
12936.8
29065.6
52061
69714.7
67738.8
45271.2
21617.8
11066.6
6813.11
3980.87
1994.72
697.547
92.9795
0.14722
0.929107
9.70565
19.5047
34.0413
49.3059
69.4933
101.11
158.598
269.17
476.069
844.104
1508.06
2718.96
4849.36
8242.1
12990.3
18851.8
25456.7
31899.1
37216.9
41982.1
45138.3
46672.5
47321.2
47158.4
46070.1
43698.1
39969.8
35845.9
33938.1
34179.5
35742.2
37726.3
39312
40081.5
38701.2
35091
29630.1
25258.6
18921.8
13380.8
8106.75
5132.69
5033.91
5847.7
7320.22
10574.2
18088.4
29954.9
41089.7
42359.1
35006.6
22745.5
13276.4
7361.73
3791.85
1844.05
709.384
121.797
0.309227
3.20471
104.83
255.199
487.191
727.198
1011.91
1419.1
2051.39
3358.78
5740.15
9180.65
13681.1
20483.1
31461.9
47740.9
67314.2
86822.8
105805
124022
137820
147322
153255
155837
156622
155356
152037
147370
141525
134008
126375
123289
125946
133591
144307
157711
170419
178504
176514
165589
144584
117599
90721.5
65152.2
45396
33188
26409.1
22432
20328.1
20527.2
22225.6
20788.8
16598.5
11754.3
7114.79
4020.1
2199.84
1239.44
560.752
111.4
0.57495
54.1296
1505.6
4354.61
8099.42
13665.3
20056.8
24979.1
26315.5
30787.6
41721.5
48797.6
56014.3
67573.2
83272.9
103151
126647
150383
170621
186806
198711
205868
209498
210052
208368
204535
199100
192140
183802
175370
167250
159019
152879
150326
150105
150464
149709
145664
136912
124166
111156
98513.1
86793
74870.7
61479.4
47039.4
34461.8
25032
18402.3
13906.5
10950.8
9227.74
7408.46
5318.19
3442.19
2130.78
1320.9
897.568
447.544
92.4053
0.974004
101.478
3628.64
11692.8
24439.3
42116.4
58741.8
80514.7
112268
141898
146289
127259
105674
91387.8
84078
81936.3
83230.9
87134
92680.1
98981
105193
110001
112835
113743
113273
112458
112033
112387
112499
110087
104707
99074.4
93698.2
87960.4
82026.6
75965.5
69823.3
63584.4
57464.9
50978.5
44293.5
37649.4
31335.6
25365.3
19859.8
14866.8
10563
7273.25
5030.28
3716.98
2983.6
2476.43
2057.62
1577.79
1121.14
777.062
559.071
451.875
292.139
96.2363
2.30914
64.4561
1777.54
18080.9
46330.3
71489
81345.4
81601.1
84181.1
89874.9
95867.6
104442
109108
97867.8
82396.1
74373.2
71073.5
68610
65579.6
63074.1
62360.9
63085.3
63872.2
63758
62432.9
60030.2
56928
53550.1
50198.2
46868.6
43723.7
40639.4
37368.2
33999.1
30923.3
28453.4
26945.9
26208.7
25694.2
25110.8
24354.4
22909.5
20382.6
17118.8
13671.6
10431.4
7438.1
4887.1
3075.61
2020.84
1460.42
1100.52
848.943
674.454
532.76
425.889
366.909
350.71
247.897
88.2747
2.62154
43.6854
772.671
5317.32
8899.53
9679.14
9101.68
9003.74
10100.1
12879
18802.6
33502
62175.2
91524
100865
98231.6
98058.6
98634.3
98289.3
99350.7
101478
102093
99521.9
94236.6
87723.5
80559.6
72779.2
64763.6
57261.3
50568.4
44901.9
40198.2
36605.8
34259.9
33065.6
32929.6
33557.8
34457.1
35116.2
35308.9
34595.9
32132.9
27661.6
21708.1
15327
9713.79
5654.52
3154.04
1817.17
1187.56
882.779
697.783
580.242
515.819
461.772
416.124
399.497
385.793
248.312
84.6867
2.78728
45.938
1171.77
8420.41
17022.1
21407.1
23551.4
23864.5
24000.5
25440.1
30593.7
42324.3
57507.3
66601.6
70590.1
79474.3
94253.1
108530
112584
106470
100578
98097.7
97208.5
95950.8
93653.1
89454.7
82956.9
74836.2
66247.2
58152.7
51350.3
45911.2
41798.9
39156.6
37837.6
37787.9
38738.2
40195.7
41504.1
42115.1
41629.1
39087.2
33722.1
25785.8
17669.4
11169.9
6611.72
3723.46
2044.37
1244.37
895.951
710.632
589.709
532.523
482.016
430.82
407.484
399.871
275.079
96.1654
2.99361
46.7101
1432.06
5251.7
12115.5
17136.3
22741.2
26147
28376
29562
31254.7
34836.9
40265.3
44368.8
47618.8
52527.4
57861.9
60273.3
59353.7
58663.6
59628.8
61594
63963.9
66232.5
68271.7
70106.9
71152.3
69508.9
64074
56903.6
50399.8
45219.1
41485.5
39411.4
38749.9
39309.8
40836.7
42794.2
44371.4
44750.9
43559.5
40307.4
35143.9
28455.3
21295.8
14981.5
9777.55
5919.43
3608.94
2387.58
1704.23
1291.18
1036.27
867.116
717.642
574.418
474.226
430.288
345.321
141.128
3.8967
99.9768
2250.13
4720.9
7260.06
9012.64
12944.6
16641
21235.8
26240.8
30836.7
36809.5
46805.4
60262.6
74317.8
88152.7
97607.3
96518.9
90894.5
87711.6
87983.4
90594.2
93719.1
96446.7
98934.2
101925
106100
108605
106440
99703
91058.9
84225.6
79977.5
78012.3
78263.6
81055.3
85713.2
89976.9
91354.7
87972.9
80642.3
69531
55171.1
40021.2
27145.7
17618
10973.5
6593.63
3919.46
2323.75
1447.51
1149.81
1154.74
1077.56
892.341
723.83
592.918
515.205
427.924
192.738
4.53433
127.687
942.892
1368.14
2229.92
3600.94
5521.08
8124.09
12245
19010.2
28285
41979.9
61610.5
85342.2
107489
121073
122871
120553
122438
128689
137371
145937
151259
152798
151456
148299
142252
131138
116699
103008
92971.9
86740.6
83672.9
85219.6
90891.7
97350.1
101638
101925
95759
83604.5
68807.7
51867.5
35551.3
22904.9
14136.5
8713.54
5483.24
3434.74
2182.12
1534.26
1437.22
1979.56
2461.77
2346.12
1898.72
1421.39
1052
824.167
619.369
231.73
2.40354
42.044
666.188
1614.32
3273.54
5544.59
8921.95
13294
19708.1
29901.7
47121.7
70890.4
99302.2
127077
149016
160424
160611
157552
158659
164522
174453
183753
188349
188081
183291
174123
162105
148343
133572
119667
109277
103617
102572
105215
109034
111486
111050
106681
97643.5
85299.1
70805.8
53892.1
36037
21060.4
11247.9
6027.18
3769.2
2749.36
2392.73
2565.17
3357.9
4350.85
4550.78
3961.67
3005.44
2142.51
1523
1117.56
766.221
257.566
2.19574
10.1473
175.655
443.584
951.407
1785.06
3037.84
4900.75
7882.12
12676
20727.1
33000.5
48417.7
60752.4
66721.4
66753.5
64051.2
63368.1
67661.5
74615.2
79739.1
82781.4
84213.8
84152
82804.5
81021
78684.4
74783.7
70331
67129.7
65771.1
66191.5
67827.7
70230.5
72517.1
73417.4
70681.7
64072.4
53805.8
42847.6
32135
22866.7
15042.9
9530.37
6146.56
4513.95
3979.98
4099.74
4916.92
6411.37
7793.92
7678
6604.58
5007.87
3431.3
2353.59
1666.7
1190.51
536.055
95.5664
0.547932
2.72819
11.8538
26.3377
54.8723
106.481
195.687
353.999
641.914
1159.17
2050.63
3428.04
5229.55
7356.65
8140.67
7482.16
6286.87
5740.24
6489.17
7488.35
8483.99
9530.86
10744.4
12089.9
13555.3
14434.9
14591.8
13983.7
13204.3
12510.1
12151.4
12350
13016.3
13712.5
14434.3
15286.4
15733.6
14653.2
12450.7
10112.4
7548.32
5806.35
4576.65
4047.28
4290
5610.46
7250.16
9402.48
13007.6
16823.5
18351.6
17917
15659.5
12075.7
8529.9
5403.96
2839.69
1012.59
249.269
38.2382
0.142908
4.77833
4.05779
3.26333
4.06547
6.24576
9.67481
15.1752
24.1138
38.9654
62.8553
97.5899
141.954
197.463
260.788
225.785
159.768
141.554
174.367
209.686
250.719
300.569
362.754
433.566
509.4
592.814
612.695
565.471
508.753
478.796
511.122
552.138
594.932
645.693
718.046
826.89
993.842
1131.29
1080.73
935.92
740.077
706.313
798.162
1090.52
1611.38
2507.83
4052.4
7120.46
12710.7
17977.7
17843.2
15144.4
11579.4
8291.99
5434.47
3021
1374.73
475.907
122.489
15.4173
0.0370136
7.00898
10.7334
6.6113
3.80824
2.89722
2.29676
2.22626
2.20545
2.4282
2.75378
3.2009
3.62229
3.99049
4.43842
4.59699
4.35458
4.91976
5.81196
6.67979
7.61754
8.65321
9.83809
11.0605
12.2386
13.3069
14.2775
15.403
16.9008
18.6973
20.7117
22.8632
25.2738
28.2983
32.3216
37.6952
44.7185
53.4581
65.7521
84.289
114.448
168.579
266.398
455.711
842.248
1638.01
3232.63
6197.47
10618.7
12246.8
10719.4
7680.39
4833.31
2992.31
1868.46
1134.67
575.636
218.869
55.8113
5.20444
0.00987341
13.2751
39.5641
33.792
23.8454
19.6082
15.6445
14.0625
11.8964
10.3771
8.33973
6.66707
5.49894
4.79361
4.5768
4.65774
4.84795
5.00058
5.03125
4.83734
4.54209
4.20687
3.94634
3.77634
3.70738
3.71362
3.80584
3.96701
4.19207
4.48068
4.84235
5.31095
5.92041
6.7258
7.81961
9.33804
11.4872
14.6136
19.3344
26.8676
39.6767
63.0793
108.407
201.962
402.314
833.842
1759.69
3756.98
5660.48
6248.7
5217.26
3313.12
1748.51
916.885
556.135
359.325
202.97
84.6703
18.0749
1.22303
0.00384671
39.2951
150.212
186.295
171.874
169.289
160.164
158.22
150.403
143.4
130.288
117.083
104.728
94.7591
88.1523
84.0629
80.9614
77.2391
72.8441
66.8551
60.166
53.2186
46.8665
41.2746
36.5697
32.4232
28.8596
25.6664
22.7198
20.0284
17.6218
15.5641
13.8069
12.3055
11.1616
10.5043
10.4134
10.9835
12.3439
14.7771
18.942
26.3172
40.2555
68.4679
128.174
258.377
553.769
988.042
1304.31
1287.26
942.003
521.53
259.945
152.898
107.412
83.9529
52.0409
21.5134
3.46732
0.174236
0.0032425
194.155
429.581
900.382
1153.72
1389.29
1558.32
1705.71
1816.95
1899.24
1952.46
1968.14
1955.96
1911.09
1842.67
1750.87
1646.63
1531.57
1412.65
1291.92
1173.54
1057.53
947.207
841.682
744.311
652.767
569.023
492.084
422.846
360.85
306.622
259.432
219.033
184.539
155.373
131.122
111.521
96.1318
84.435
76.1141
71.0958
69.637
72.399
80.5663
93.7921
107.822
115.984
103.748
80.0016
53.5212
31.329
16.6245
8.36016
4.12689
1.95307
0.942863
0.378058
0.126176
0.0317329
0.0201429
0.0268967
175.643
341.862
749.208
969.769
1165.42
1305.37
1420.28
1517.89
1601.95
1669.41
1709.92
1716.57
1684.34
1616.76
1519.44
1404.36
1282.04
1165.66
1054.7
952.124
855.348
764.14
677.072
598.875
529.02
469.607
418.739
375.455
337.563
303.91
274.048
247.996
225.155
205.316
188.437
175.02
165.679
160.925
160.722
164.182
169.485
174.339
177.833
176.682
163.65
141.762
115.38
87.2619
61.0538
39.8206
24.5223
14.1094
7.68779
3.88868
1.8334
0.743201
0.24498
0.0416444
0.0154491
0.019414
109.559
247.201
561.397
734.078
880.677
988.598
1072.18
1143.65
1202.99
1248.65
1272.79
1271.18
1241.23
1186.7
1112.14
1026.56
935.355
847.599
768.535
699.683
636.355
578.366
524.211
476.887
435.59
401.279
373.014
349.315
327.43
306.12
285.031
264.605
244.641
225.137
206.975
192.255
182.083
175.936
172.592
173.149
178.418
188.324
202.073
217.347
225.664
217.216
188.028
144.279
99.4309
63.7646
39.9768
24.3602
14.5816
8.3305
4.5014
2.05928
0.680011
0.0845871
0.0128344
0.0142255
93.2406
183.323
371.104
471.016
562.124
633.589
686.185
731.553
767.913
794.205
805.806
800.799
778.395
741.151
691.937
636.182
580.084
528.664
482.545
442.624
406.306
373.496
343.31
315.897
290.872
269.077
250.135
232.828
215.872
199.523
185.37
174.042
164.562
158.25
155.446
152.498
150.333
154.957
171.794
209.809
274.303
356.698
436.536
526.896
611.437
642.614
577.347
430.28
273.212
153.792
85.2214
47.3598
28.3097
17.6937
11.0819
5.88268
2.11489
0.265615
0.0156288
0.0104132
82.1614
128.937
214.988
250.28
294.498
334.021
365.808
396.511
422.117
439.668
445.367
439.036
422.214
398.17
369.946
340.714
311.379
283.685
257.266
232.593
209.643
189.54
172.95
160.824
153.469
150.73
151.837
159.008
176.571
215.59
277.834
341.083
384.918
445.847
525.936
565.592
574.153
606.648
662.696
786.812
999.854
1226.62
1362.66
1576.09
1860.32
2122.77
2157.85
1774.59
1202.07
662.603
337.916
156.246
75.4111
41.4263
26.3674
15.4567
6.10125
0.892701
0.0358549
0.00878366
74.5669
70.8105
93.5206
111.443
130.622
150.86
165.779
181.574
194.542
204.031
207.295
204.369
195.765
183.269
168.701
154.004
140.293
128.89
119.614
113.051
109.529
108.661
113.244
124.855
142.666
168.468
202.948
245.681
308.707
400.755
510.141
631.1
766.157
935.859
1136.38
1343.12
1531.71
1711.61
1861.66
2039.27
2317.11
2576.41
2571.46
2504.76
2459.74
2391.39
2204.65
1844.09
1303.26
726.635
348.282
179.721
103.695
73.6604
51.4241
29.5234
12.6131
2.29529
0.103918
0.00975387
62.6981
41.1968
56.2468
69.3299
85.9235
97.8928
111.509
122.884
134.102
141.993
145.897
145.44
141.623
134.968
126.527
117.66
109.849
104.645
101.815
101.541
104.915
111.607
122.198
136.463
151.362
165.622
181.58
198.989
224.211
266.795
335.122
436.255
565.739
729.562
911.925
1127.03
1359.52
1589.76
1751.42
1890.61
2052.17
2173.36
2169.02
2076.87
2026.4
2014.59
2015.2
1965.85
1758.38
1367.67
920.572
555.367
309.497
172.131
94.9399
41.5032
13.5469
2.11759
0.0945629
0.00897146
71.1481
74.2464
109.277
126.963
150.672
167.875
189.54
207.498
225.25
237.243
243.081
241.612
235.252
225.236
213.559
200.339
187.243
175.124
164.852
156.698
151.148
148.373
150.292
154.938
159.984
164.701
167.69
169.555
175.938
191.67
218.041
263.918
345.607
477.878
631.738
791.027
926.844
1021.39
1056.83
1025.68
1022.59
1011.36
881.181
639.403
385.591
286.252
230.762
182.543
165.1
159.131
174.769
194
199.656
159.567
106.255
54.9205
19.2784
3.17733
0.0900138
0.00858971
55.3435
107.09
229.482
296.193
365.209
411.388
462.339
502.801
537.504
558.287
560.887
541.2
505.626
462.588
418.294
378.394
341.258
306.814
276.608
251.67
234.089
225.275
228.785
250.45
296.837
366.74
461.138
572.328
724.086
934.595
1268.48
1737.34
2376.35
3154.31
4084.8
5125.07
5749.34
6127.84
6477.42
6766.45
7066.35
7659.22
8520.7
9090.56
8510.55
7355.31
5754.58
4120.74
2731.42
1600.42
866.44
472.635
297.767
184.272
92.4915
39.9166
12.7328
1.46401
0.0387032
0.00772108
51.1255
129.201
333.194
477.272
634.323
747.04
867.625
973.428
1072.02
1155
1221.09
1258.68
1265.07
1242.14
1189.61
1118.13
1043.11
967.821
894.202
822.62
755.702
693.105
638.623
595.591
565.449
551.504
560.544
596.598
667.32
778.157
951.346
1228.75
1613.25
2026.19
2521.85
3084.2
3665.89
4288.32
4922.66
5377.99
6032.35
6996.15
8018.37
8512.65
7896.02
6415.23
4595.06
2939.41
1605.49
729.554
328.351
164.526
116.12
76.0986
40.3051
16.6088
5.2224
0.546505
0.0162521
0.00861149
55.2191
163.954
448.028
617.697
802.685
948.932
1092.72
1218.82
1336.03
1439.93
1530.8
1600.2
1644.64
1663.2
1652.58
1612.99
1548.31
1470.5
1390.04
1309.57
1228.64
1147.94
1067.3
990.999
921.938
862.33
809.153
761.95
720.65
684.334
648.542
614.577
583.711
556.296
540.544
543.184
571.339
643.721
787.662
1029.7
1410.48
1908.58
2399.03
2603.7
2381.88
1857.3
1306.94
865.211
568.916
345.233
211.648
123.281
83.8013
54.9025
32.0978
14.7616
4.81426
0.559419
0.0173686
0.0102801
68.7788
205.198
535.714
726.117
923.36
1074.64
1215.17
1332.75
1438.22
1529.28
1603.15
1659.56
1691.85
1699.29
1680.7
1637.09
1573.32
1495.78
1410.99
1328.16
1243.35
1160.69
1076.57
998.267
925.977
862.947
806.084
755.721
709.495
666.241
622.645
577.743
532.228
486.685
443.235
404.382
372.421
352.343
349.212
368.957
419.313
498.845
588.195
635.587
603.096
503.806
392.445
291.479
206.702
138.272
91.5036
59.6693
41.0895
30.8012
21.8397
11.9998
4.98595
0.971891
0.0525525
0.0130476
78.797
213.556
557.216
761.09
961.397
1112.94
1246.55
1354.55
1445.6
1520.9
1575.48
1612.52
1624.25
1614.33
1578.12
1520.47
1444.07
1355.29
1260.86
1170.52
1082.76
1001.34
922.705
850.347
782.892
723
669.068
621.511
578.812
540.992
506.659
475.759
448.247
424.195
403.999
389.981
371.867
345.502
323.464
310.398
309.802
319.561
329.432
328.725
305.161
259.673
207.528
157.087
112.383
77.1474
52.1062
34.9072
23.8993
16.6898
12.0921
7.31845
3.28296
0.626602
0.031916
0.0148004
79.3204
216.501
603.516
825.021
1033.35
1186.14
1317.7
1419.27
1499.92
1563.78
1602.25
1622.22
1612.78
1581.98
1523.19
1446.15
1351.87
1248.56
1141.36
1038.39
939.978
849.584
765.102
689.493
621.405
562.178
509.788
464.418
424.737
390.351
359.791
332.335
307.564
285.987
267.991
253.95
242.599
235.132
232.844
237.648
246.726
254.006
256.003
247.606
223.559
186.547
145.819
107.902
75.9144
51.7776
34.6202
22.6479
14.6633
9.24698
5.7427
3.39064
1.48463
0.255398
0.0201575
0.0176569
129.661
300.731
702.083
933.222
1153.69
1305.42
1438.86
1537.9
1613.74
1673.07
1704.28
1718.72
1701.24
1664.03
1596.52
1512.22
1409.55
1297.42
1179.39
1059.99
945.812
839.755
741.21
652.665
573.05
503.565
442.565
390.027
344.657
305.957
272.391
243.217
217.89
196.426
178.74
164.943
155.174
149.834
149.115
153.688
163.512
177.195