/*--------------------------------*- C++ -*----------------------------------*\
| =========                 |                                                 |
| \\      /  F ield         | OpenFOAM: The Open Source CFD Toolbox           |
|  \\    /   O peration     | Version:  2.1.1                                 |
|   \\  /    A nd           | Web:      www.OpenFOAM.org                      |
|    \\/     M anipulation  |                                                 |
\*---------------------------------------------------------------------------*/
FoamFile
{
    version     2.0;
    format      ascii;
    class       volVectorField;
    location    "0.0013";
    object      fluctuation1;
}
// * * * * * * * * * * * * * * * * * * * * * * * * * * * * * * * * * * * * * //

dimensions      [0 1 -1 0 0 0 0];

internalField   nonuniform List<vector> 
36520
(
(-3.25411e-05 1.5105e-05 5.03585e-05)
(-4.38732e-05 1.57335e-05 7.23119e-05)
(4.08857e-06 3.18347e-05 0.000110433)
(6.0149e-06 4.82647e-05 0.000143865)
(8.88736e-06 7.04717e-05 0.000181065)
(1.03472e-05 9.50014e-05 0.000214589)
(1.12661e-05 0.000119847 0.000245721)
(1.2234e-05 0.000145341 0.000276982)
(1.40829e-05 0.000172288 0.000311831)
(1.79568e-05 0.000203495 0.000356302)
(2.41444e-05 0.000243025 0.000419832)
(3.25621e-05 0.000293228 0.000507975)
(4.21783e-05 0.000356767 0.00062667)
(5.14873e-05 0.000429892 0.000768636)
(5.95209e-05 0.000508953 0.00091817)
(5.69869e-05 0.000588297 0.00104767)
(3.66643e-05 0.000631518 0.00115484)
(1.64519e-05 0.000630584 0.00124742)
(1.37807e-05 0.000613312 0.0013354)
(2.73509e-05 0.000607577 0.00141561)
(4.62375e-05 0.000632523 0.00147431)
(6.12904e-05 0.000682672 0.00150494)
(6.7973e-05 0.000746825 0.00148948)
(6.59425e-05 0.000813259 0.00142084)
(5.99844e-05 0.000870848 0.00128359)
(5.40576e-05 0.000911221 0.00109273)
(5.23339e-05 0.000932961 0.000863183)
(5.93948e-05 0.000943522 0.000620226)
(8.11311e-05 0.000959963 0.000392497)
(0.000119967 0.00100706 0.000201798)
(0.000170258 0.00110815 5.15597e-05)
(0.00021943 0.00127394 -6.96774e-05)
(0.000251961 0.00149285 -0.000177563)
(0.000255171 0.00173459 -0.0002801)
(0.000223934 0.00195801 -0.00037232)
(0.000161661 0.00212176 -0.000443313)
(7.71615e-05 0.00219167 -0.000484895)
(-1.74895e-05 0.00214121 -0.0004951)
(-0.000112907 0.00195742 -0.000478048)
(-0.000205183 0.00163741 -0.000440339)
(-0.000287726 0.0011883 -0.000391802)
(-0.000337701 0.000636903 -0.000364552)
(-0.000321248 2.09312e-05 -0.000535662)
(-0.000251273 -0.0013114 -0.00622231)
(-0.000779575 -0.00784403 -0.0269897)
(-0.00123959 -0.0181943 -0.0643132)
(-0.000709675 -0.0270399 -0.10858)
(-0.000162548 -0.0321888 -0.141599)
(0.00012008 -0.0304905 -0.151697)
(0.000256102 -0.0217053 -0.144032)
(0.000209801 -0.0153695 -0.124679)
(0.000282576 -0.0085061 -0.0716484)
(0.00116374 -0.00190667 -0.0170163)
(0.00136905 0.00103847 -0.00133081)
(0.000100029 0.00171999 0.00461897)
(-0.000406216 0.000884587 0.00405182)
(-0.000245532 0.000278561 0.00139336)
(-6.7922e-05 8.53727e-05 0.000388793)
(-1.6039e-05 1.2033e-05 5.1725e-05)
(-1.78847e-06 8.85151e-07 3.86806e-06)
(-2.16299e-05 6.38466e-05 9.9218e-05)
(-1.96382e-05 0.000107336 0.00012978)
(1.49364e-05 0.000144399 0.000156136)
(1.98893e-05 0.000176046 0.000167077)
(2.1657e-05 0.000209665 0.000175329)
(2.03181e-05 0.0002389 0.000175197)
(2.02312e-05 0.000268307 0.000172009)
(2.19769e-05 0.000296922 0.000166276)
(2.69717e-05 0.000332188 0.000162131)
(3.71194e-05 0.000374088 0.000159185)
(5.18101e-05 0.000427653 0.000162765)
(6.83648e-05 0.000489058 0.000170993)
(8.10985e-05 0.000551367 0.000180791)
(8.45378e-05 0.000597926 0.000183457)
(7.9373e-05 0.000633191 0.000180812)
(7.24493e-05 0.000692724 0.000182688)
(6.46009e-05 0.000744685 0.00016635)
(5.82701e-05 0.000782092 0.000139467)
(5.62583e-05 0.000838628 0.000129496)
(5.50616e-05 0.000903327 0.000118236)
(5.14162e-05 0.000972402 0.000100127)
(4.18539e-05 0.00104056 7.93984e-05)
(2.466e-05 0.00109763 5.39658e-05)
(-7.35671e-07 0.00113163 2.22857e-05)
(-2.93721e-05 0.00113543 -2.86534e-05)
(-5.41803e-05 0.00111163 -0.000101674)
(-7.13758e-05 0.00107905 -0.000126906)
(-7.55259e-05 0.00103946 -0.000140743)
(-6.35746e-05 0.000998626 -0.000154965)
(-3.95034e-05 0.000968356 -0.000165167)
(-1.28069e-05 0.000946971 -0.00018166)
(7.52073e-06 0.000923873 -0.000204419)
(1.75068e-05 0.000888243 -0.000231235)
(1.87667e-05 0.000839562 -0.000259296)
(1.48152e-05 0.000785917 -0.00028649)
(7.51844e-06 0.000733376 -0.000310845)
(-3.14101e-06 0.000677995 -0.000329052)
(-1.76038e-05 0.000607116 -0.000336129)
(-3.63267e-05 0.00050648 -0.000327634)
(-6.08339e-05 0.000366156 -0.000300884)
(-9.87936e-05 0.000161576 -0.000349344)
(-0.000204661 -0.000234597 -0.0011967)
(-0.0024947 -0.00125778 -0.00421727)
(-0.0109949 -0.0087359 -0.016277)
(-0.0158024 -0.0286573 -0.0629715)
(-0.00901171 -0.0391628 -0.107208)
(-0.00492607 -0.0431627 -0.129497)
(-0.00260403 -0.0442801 -0.141955)
(-0.000909988 -0.0415768 -0.148601)
(-0.000202416 -0.0379181 -0.152237)
(0.000345331 -0.0350019 -0.15415)
(0.000525012 -0.0304545 -0.153577)
(0.000511926 -0.0258 -0.142629)
(0.00336267 -0.0185255 -0.105905)
(0.0092297 0.00893399 -0.000722471)
(-0.00182244 0.00785188 0.0179437)
(-0.00293072 0.00260342 0.0086002)
(-0.000855332 0.000610755 0.00178093)
(-0.000120548 5.72532e-05 0.000196265)
(-1.56571e-05 7.42574e-06 2.21203e-05)
(-1.43163e-05 0.000121015 7.03625e-05)
(-9.91136e-06 0.000137231 5.66417e-05)
(7.53271e-06 0.000163356 5.16176e-05)
(7.61946e-06 0.000176538 3.91213e-05)
(4.9417e-06 0.00019092 2.72206e-05)
(1.65531e-06 0.000201769 1.52765e-05)
(-2.17766e-07 0.000218689 3.30641e-06)
(-5.25404e-07 0.000234068 -1.45699e-05)
(8.37902e-07 0.000255604 -4.40452e-05)
(5.19887e-06 0.000278803 -7.92246e-05)
(1.19265e-05 0.000311721 -9.87612e-05)
(1.80963e-05 0.000343771 -0.000109458)
(2.05864e-05 0.000373821 -0.000120313)
(1.97575e-05 0.00041381 -0.000135626)
(1.86768e-05 0.000494576 -0.000167418)
(9.85554e-06 0.000632979 -0.000223468)
(-6.2961e-06 0.000579892 -0.000317908)
(-5.1983e-06 0.000326362 -0.000427506)
(-7.57618e-07 0.000234902 -0.000396592)
(-1.555e-06 0.000223134 -0.000397321)
(-2.35031e-06 0.000218547 -0.000435262)
(-3.25248e-06 0.000208532 -0.000490995)
(-5.9925e-06 0.000192763 -0.000551109)
(-1.34359e-05 0.000159463 -0.000648272)
(-2.55799e-05 2.17252e-05 -0.00109374)
(-2.03346e-05 -0.000485984 -0.00283028)
(-6.72953e-06 -0.00118121 -0.00521997)
(-4.01143e-06 -0.00176591 -0.00730088)
(-1.95241e-06 -0.00233864 -0.00941199)
(-2.44777e-07 -0.0029866 -0.0118159)
(-2.93699e-07 -0.0036835 -0.0144314)
(-3.43033e-07 -0.0044045 -0.0171918)
(-3.89415e-07 -0.00509442 -0.0198944)
(-4.29761e-07 -0.00568579 -0.0222668)
(-4.60803e-07 -0.00610689 -0.0240119)
(-4.85212e-07 -0.00638993 -0.025221)
(-5.06092e-07 -0.00659387 -0.0260789)
(-5.19705e-07 -0.00667934 -0.0264407)
(-8.04245e-07 -0.00660538 -0.0262135)
(-3.24896e-05 -0.00624117 -0.025092)
(-0.00038296 -0.00561034 -0.0235885)
(-0.0017543 -0.00463856 -0.022882)
(-0.00836826 -0.00516367 -0.0238002)
(-0.0508392 -0.0200923 -0.0325858)
(-0.117198 -0.045049 -0.0468612)
(-0.139279 -0.0674375 -0.0748357)
(-0.12345 -0.0969637 -0.110094)
(-0.114065 -0.126825 -0.141457)
(-0.0911922 -0.152979 -0.173993)
(-0.0373677 -0.155014 -0.211323)
(-0.00369179 -0.12702 -0.247099)
(0.0048353 -0.104555 -0.255758)
(0.00690314 -0.0759502 -0.230906)
(0.00949238 -0.0531537 -0.188082)
(0.0178535 -0.0367757 -0.141356)
(0.0139903 0.0397698 0.0141918)
(-0.0108341 0.016876 0.0254469)
(-0.00649432 0.00469919 0.00354976)
(-0.000956448 0.000565931 0.00128485)
(-0.0001096 5.2295e-05 0.000108793)
(-1.97281e-05 0.000107448 3.23985e-06)
(-1.54006e-05 0.000117079 -1.68659e-05)
(-2.24457e-06 0.000140378 -3.8268e-05)
(-1.68286e-06 0.000161127 -5.71686e-05)
(-1.93977e-06 0.000197521 -6.04375e-05)
(-2.67945e-06 0.000234062 -6.29959e-05)
(-5.50402e-06 0.000277777 -7.55251e-05)
(-1.21216e-05 0.000309232 -0.000138572)
(-1.97069e-05 0.000362134 -0.000222564)
(-1.63882e-05 0.00043334 -0.000339282)
(-4.88868e-06 0.000578289 -0.000522839)
(-6.15099e-08 0.000769343 -0.00115303)
(-9.86641e-08 0.00104275 -0.00260691)
(-1.91193e-07 0.000116687 -0.00918243)
(-4.19404e-07 -0.00645951 -0.0334773)
(-0.000108513 -0.0170688 -0.0696168)
(-0.000382198 -0.0245969 -0.091642)
(-0.000243525 -0.025711 -0.0876635)
(-5.63084e-05 -0.0183279 -0.0610291)
(-2.26276e-05 -0.011925 -0.0406681)
(-1.80035e-05 -0.0101504 -0.0353671)
(-1.54584e-05 -0.0103575 -0.0364236)
(-1.63102e-05 -0.0111191 -0.0392428)
(-4.51652e-05 -0.0119392 -0.0422)
(-0.000156081 -0.0125251 -0.0443812)
(-0.000283963 -0.0126986 -0.0452866)
(-0.000323613 -0.0125946 -0.0453358)
(-0.000333504 -0.0128041 -0.0464334)
(-0.000391842 -0.0135867 -0.0493592)
(-0.000457631 -0.0145654 -0.0528091)
(-0.000487865 -0.0157065 -0.0566763)
(-0.000472584 -0.0168866 -0.0607373)
(-0.000399886 -0.0179337 -0.0646042)
(-0.00025543 -0.0187014 -0.0677701)
(-7.71704e-05 -0.0191254 -0.0697785)
(7.10727e-05 -0.0191203 -0.0706122)
(0.000222477 -0.0190702 -0.0708831)
(0.00040704 -0.0192826 -0.0714781)
(0.000638126 -0.0199857 -0.0728181)
(0.000888975 -0.0210161 -0.0745747)
(0.00106351 -0.0219949 -0.0766915)
(0.000992781 -0.022842 -0.079067)
(-0.00250152 -0.024994 -0.0826111)
(-0.0262844 -0.0337326 -0.0874885)
(-0.0776399 -0.0710832 -0.0779048)
(-0.0999205 -0.126057 -0.0340716)
(-0.10808 -0.163173 -0.016441)
(-0.129461 -0.201119 -0.0280854)
(-0.193068 -0.242005 -0.0734588)
(-0.24399 -0.280604 -0.143734)
(-0.16247 -0.352722 -0.190142)
(-0.0248388 -0.359288 -0.232166)
(0.0395415 -0.269782 -0.268773)
(0.0431247 -0.153831 -0.248426)
(0.0259443 -0.0833314 -0.205762)
(0.00108205 -0.0523916 -0.159532)
(-1.9702e-05 -0.0369159 -0.115463)
(-0.00243809 -0.0164436 -0.0636455)
(-0.00208512 0.00378593 0.00574768)
(-0.000656808 0.000264842 0.000419229)
(-2.24077e-05 0.000131359 -5.26203e-05)
(-2.052e-05 0.000178678 -5.41905e-05)
(-1.56564e-05 0.000272393 -0.00015622)
(-8.07181e-06 0.000363587 -0.000549552)
(-4.71907e-08 0.000517593 -0.00130109)
(-5.43117e-06 0.000944852 -0.00219045)
(-5.88955e-05 0.00149593 -0.00374023)
(-0.000135609 0.00204984 -0.00633137)
(-0.000183417 0.00312581 -0.00911925)
(-0.000261472 0.00528205 -0.0148044)
(-0.000756138 0.00255306 -0.0430717)
(-0.00129706 -0.0290896 -0.148682)
(-0.00177724 -0.0895991 -0.308749)
(-0.00245331 -0.139111 -0.437381)
(-0.002467 -0.179425 -0.545599)
(-0.00230805 -0.214178 -0.641797)
(-0.00529694 -0.204722 -0.621897)
(-0.0123828 -0.145426 -0.4744)
(-0.00726898 -0.0981385 -0.303799)
(-0.00403284 -0.0638198 -0.193059)
(-0.00362167 -0.0480418 -0.150125)
(-0.00400532 -0.0442366 -0.142998)
(-0.00419524 -0.0450266 -0.148845)
(-0.00365338 -0.0472463 -0.158331)
(-0.00248461 -0.0488935 -0.165811)
(-0.00124156 -0.0489823 -0.167656)
(-0.000734443 -0.0477156 -0.163722)
(-0.00124111 -0.047424 -0.162183)
(-0.00243784 -0.0495156 -0.168487)
(-0.00450522 -0.0541139 -0.183346)
(-0.007053 -0.0593146 -0.200506)
(-0.00798778 -0.0652302 -0.219408)
(-0.00625368 -0.0712581 -0.237992)
(-0.00326224 -0.0760973 -0.252859)
(0.00102537 -0.078393 -0.260755)
(0.0046514 -0.0780206 -0.26115)
(0.00570211 -0.0766545 -0.256827)
(0.00531499 -0.0700202 -0.238025)
(0.00493647 -0.0618167 -0.214659)
(0.00448028 -0.0524761 -0.186279)
(0.00342817 -0.0439497 -0.158894)
(0.0021284 -0.0398399 -0.144172)
(0.000832433 -0.0396939 -0.141113)
(-0.00226402 -0.0401033 -0.142761)
(-0.0121541 -0.0443651 -0.149726)
(-0.0304543 -0.0591484 -0.157935)
(-0.0654173 -0.0812514 -0.166194)
(-0.133402 -0.103998 -0.170925)
(-0.239507 -0.130777 -0.162114)
(-0.322982 -0.166032 -0.169953)
(-0.249958 -0.286786 -0.207642)
(-0.0741137 -0.406109 -0.127281)
(-0.00595063 -0.407817 -0.148931)
(0.0320104 -0.313147 -0.270731)
(0.0308293 -0.166061 -0.286676)
(0.00991544 -0.0839684 -0.232597)
(0.00659795 -0.0590223 -0.171047)
(0.0221201 -0.0350155 -0.105349)
(0.0696838 0.00327214 0.00188695)
(-0.00286615 0.0010315 0.00126843)
(-2.29661e-05 -2.10832e-05 -0.000813956)
(-7.38181e-05 -0.000959797 -0.00483785)
(-0.000358749 -0.00237536 -0.0130742)
(-0.000892274 -0.0020746 -0.0241942)
(-0.00114565 0.00199262 -0.0380113)
(-0.00122049 0.00138713 -0.0734678)
(-0.00166065 -0.00744034 -0.128875)
(-0.00113341 -0.0349823 -0.214282)
(-0.000980983 -0.066097 -0.305292)
(-0.00355057 -0.0992436 -0.411441)
(-0.0113431 -0.144643 -0.547188)
(-0.0292496 -0.217288 -0.712851)
(-0.0535543 -0.349579 -0.895272)
(-0.0650228 -0.60332 -1.03441)
(-0.0500951 -0.981257 -1.01697)
(-0.00269017 -1.1999 -1.01119)
(0.0370706 -1.11357 -1.04174)
(0.0310886 -0.669441 -1.06476)
(-0.0446432 -0.280925 -0.8725)
(-0.0323172 -0.221585 -0.636785)
(-0.0271498 -0.195413 -0.522861)
(-0.0376454 -0.194862 -0.488965)
(-0.054923 -0.202581 -0.490316)
(-0.0627342 -0.215148 -0.505834)
(-0.0543512 -0.224121 -0.520026)
(-0.0410355 -0.224977 -0.52603)
(-0.0295987 -0.213952 -0.523965)
(-0.0181595 -0.198811 -0.526387)
(-0.0107404 -0.19346 -0.535772)
(-0.0120851 -0.201839 -0.561371)
(-0.0252801 -0.221624 -0.608332)
(-0.0443559 -0.24555 -0.665262)
(-0.0553942 -0.271125 -0.72545)
(-0.0438735 -0.297622 -0.775764)
(-0.0122822 -0.327316 -0.798004)
(0.0212743 -0.339165 -0.792969)
(0.0336382 -0.342727 -0.770124)
(0.027713 -0.344928 -0.716274)
(0.0198405 -0.333243 -0.657445)
(0.0120667 -0.317415 -0.587214)
(0.0106758 -0.286989 -0.502704)
(0.00942705 -0.236018 -0.437458)
(0.0107221 -0.145547 -0.367877)
(0.00610667 -0.090661 -0.28905)
(-0.00328705 -0.0839912 -0.277176)
(-0.0179364 -0.083178 -0.277455)
(-0.0407341 -0.082239 -0.282255)
(-0.0708327 -0.080888 -0.288153)
(-0.132688 -0.084943 -0.29414)
(-0.354725 -0.0680436 -0.25157)
(-0.564821 -0.030555 -0.130398)
(-0.494991 -0.282144 -0.056935)
(-0.0837587 -0.420032 -0.113219)
(-0.0146626 -0.303396 -0.33531)
(0.0123143 -0.207474 -0.37604)
(0.0320473 -0.13779 -0.337719)
(0.0709874 -0.0899071 -0.254327)
(0.198769 -0.0390318 -0.118611)
(0.136204 -0.000202455 -0.000748566)
(-0.00494043 0.00336944 0.00268289)
(-0.00652464 -0.00100751 -0.00608714)
(-0.014122 -0.000661067 -0.0187641)
(-0.0197497 0.0201223 -0.0326838)
(-0.0147088 0.091667 -0.0508667)
(-0.0316172 0.193161 -0.00321936)
(-0.0783719 0.288534 -0.00687576)
(-0.0100227 -0.108345 -0.503016)
(-0.0091916 -0.147702 -0.620592)
(-0.0172497 -0.355571 -0.69063)
(-0.0398173 -0.479618 -0.815523)
(-0.0840038 -0.560161 -1.02188)
(-0.123154 -0.750393 -1.24321)
(-0.137905 -1.3176 -1.18919)
(-0.0845864 -2.04704 -0.425972)
(-0.0338959 -2.36961 0.105281)
(-0.00575358 -2.50515 0.239402)
(0.0225711 -2.52471 0.222915)
(0.0456454 -2.39786 0.15998)
(0.0659013 -2.08331 -0.256254)
(-0.115658 -0.505643 -1.622)
(-0.0733397 -0.392944 -1.4669)
(-0.0477308 -0.388057 -1.37734)
(-0.05846 -0.394884 -1.3279)
(-0.0720742 -0.404005 -1.29712)
(-0.0636739 -0.45339 -1.25865)
(-0.0648501 -0.585156 -1.1768)
(-0.131943 -0.722865 -1.05654)
(-0.197179 -0.758544 -0.994161)
(-0.177604 -0.665379 -1.04521)
(-0.127998 -0.527942 -1.13295)
(-0.0974572 -0.390637 -1.22394)
(-0.0760167 -0.325101 -1.30659)
(-0.0739509 -0.394474 -1.37104)
(-0.075313 -0.940082 -1.17825)
(-0.0403796 -1.31321 -0.888764)
(-0.0237352 -1.05442 -1.24127)
(-0.0105836 -0.825609 -1.40241)
(0.0227543 -0.414891 -1.51422)
(0.0665713 -0.28658 -1.45679)
(0.0529399 -0.368513 -1.34176)
(-0.0101595 -0.396565 -1.21067)
(-0.0742524 -0.283381 -1.12574)
(-0.112908 -0.195659 -1.0152)
(-0.0418226 -0.185773 -0.840088)
(-0.0350693 -0.37963 -0.605416)
(-0.0982029 -0.432295 -0.437977)
(-0.21566 -0.336955 -0.403749)
(-0.362311 -0.160392 -0.377178)
(-0.420034 0.02544 -0.339193)
(-0.40021 0.277813 -0.130661)
(-0.3313 0.297475 0.20363)
(-0.547019 0.155406 0.139056)
(-0.623909 0.0377244 0.0467261)
(-0.290908 -0.316534 -0.209851)
(-0.00232599 -0.221867 -0.346966)
(0.0813954 -0.180103 -0.320352)
(0.277072 -0.137961 -0.24715)
(0.422156 -0.0319373 -0.0538999)
(0.209031 -0.00101252 -0.00239488)
(0.060498 0.000946031 -3.29116e-05)
(-0.015785 0.00263233 0.00121957)
(-0.0223046 0.0320815 0.0181407)
(-0.0227947 0.149454 0.0406489)
(0.0221086 0.353929 0.0398816)
(0.000363911 -0.638379 0.156761)
(-0.00264904 -0.836079 0.204604)
(-0.00441213 -1.03736 0.251552)
(-0.00411419 -1.25698 0.268854)
(-0.00509147 -1.44749 0.194988)
(-0.053275 -1.41421 -0.715691)
(-0.107783 -0.326884 -1.70704)
(-0.0860474 -0.325363 -1.97057)
(-0.0469566 -0.457388 -2.2192)
(-0.0267803 -0.939792 -2.32083)
(-0.0133469 -2.32008 -1.32752)
(-0.0017803 -2.80747 -0.00493117)
(0.0119339 -2.87263 0.479822)
(0.0325942 -2.90356 0.576532)
(0.0698074 -2.94031 0.228504)
(0.0468972 -1.50838 -2.41647)
(-0.0402719 -0.41187 -2.70642)
(-0.0676461 -0.242581 -2.62463)
(-0.0946938 -0.115288 -2.5168)
(-0.0777113 -0.0487896 -2.38286)
(-0.0285803 -0.0264816 -2.2386)
(-0.00486809 -0.0868691 -2.11757)
(-0.0380586 -0.270218 -2.03043)
(-0.111955 -0.478759 -1.94524)
(-0.163607 -0.564508 -1.88694)
(-0.185675 -0.585679 -1.85227)
(-0.194139 -0.582174 -1.84021)
(-0.176974 -0.483921 -1.87535)
(-0.189161 -0.350623 -1.92673)
(-0.365092 -0.245497 -1.96539)
(-0.716669 -0.202429 -1.96419)
(-0.619457 -0.163574 -2.01383)
(-0.0794382 -0.113821 -2.06707)
(0.220869 -0.0735934 -2.03301)
(0.147828 -0.0746404 -1.96286)
(0.0184873 -0.0900256 -1.86482)
(-0.0158461 -0.0880325 -1.73998)
(-0.00603686 -0.0516501 -1.60217)
(0.0183535 0.0122091 -1.46946)
(0.0410289 0.044503 -1.3233)
(0.0368733 0.091067 -1.17591)
(-0.00118788 0.209099 -1.04127)
(-0.152019 0.543193 -0.792766)
(-0.363739 0.810882 -0.099136)
(-0.170571 0.644886 0.307146)
(0.05669 0.389605 0.517742)
(-0.00272959 0.302443 0.519883)
(-0.226229 0.28001 0.479722)
(-0.68146 0.105173 0.164386)
(-0.665535 0.0244887 0.090213)
(-0.200541 -0.287238 -0.279048)
(0.209964 -0.252923 -0.230831)
(0.414085 -0.168135 -0.121)
(0.456272 -0.0501361 -0.0321306)
(0.284091 -0.00636674 -0.00515427)
(0.0986689 0.000125716 9.76398e-05)
(0.000252098 -0.245502 -0.0888646)
(0.000383541 -0.313952 -0.134445)
(0.000606019 -0.530075 -0.221469)
(0.000809108 -0.723007 -0.297135)
(0.000963404 -0.868616 -0.359956)
(0.0011078 -1.0057 -0.421878)
(0.000568328 -1.08237 -0.465099)
(-0.00293628 -1.15822 -0.506959)
(-0.0294424 -1.2367 -0.570067)
(-0.0709058 -1.33398 -0.622245)
(-0.102874 -1.4597 -0.652383)
(-0.0837331 -1.60064 -0.672779)
(-0.0436883 -1.738 -0.7108)
(-0.014624 -1.85992 -0.77324)
(0.0128311 -1.95254 -0.844394)
(0.0413563 -2.0304 -0.912236)
(0.0541822 -2.10608 -0.967783)
(0.0288464 -2.18626 -0.99423)
(0.00996293 -2.25562 -1.01317)
(0.00740024 -2.31222 -1.02254)
(0.00790213 -2.35674 -1.02589)
(0.0082219 -2.38092 -1.02389)
(0.00653314 -2.38676 -1.016)
(0.00394482 -2.37932 -1.00067)
(0.00299523 -2.35835 -0.976791)
(0.00321202 -2.31437 -0.942409)
(0.0025209 -2.2393 -0.901873)
(-0.00146461 -2.14819 -0.875379)
(-0.015826 -2.0602 -0.879399)
(-0.022843 -1.98957 -0.882506)
(-0.0247535 -1.92691 -0.890663)
(-0.0302352 -1.87684 -0.889589)
(-0.0307016 -1.84589 -0.872766)
(-0.0234291 -1.83104 -0.844052)
(-0.0148828 -1.8241 -0.80897)
(-0.00838617 -1.81783 -0.774173)
(-0.00486763 -1.80435 -0.752018)
(-0.00346969 -1.7854 -0.736712)
(-0.0032157 -1.75662 -0.720115)
(-0.00296943 -1.71493 -0.697288)
(-0.00206135 -1.65841 -0.665971)
(-0.000806929 -1.58429 -0.625338)
(0.000708191 -1.49411 -0.578933)
(0.00317373 -1.39434 -0.529314)
(0.00697393 -1.28329 -0.475408)
(0.0108363 -1.16943 -0.423196)
(0.0112273 -1.07369 -0.383181)
(0.0062368 -1.00136 -0.357883)
(0.0017373 -0.932233 -0.333901)
(0.000843355 -0.861024 -0.310466)
(0.00081319 -0.804884 -0.290267)
(-0.025185 -0.727105 -0.247426)
(-0.894126 -0.141175 -0.0534872)
(-0.791873 -0.032367 0.0562507)
(-0.475706 -0.333571 0.013322)
(0.230863 -0.337233 -0.103059)
(0.343184 -0.21524 -0.103228)
(0.425955 -0.0900116 -0.0476289)
(0.328172 -0.0161357 -0.00874726)
(0.147199 0.000122194 7.26122e-05)
(0.000201095 -0.230623 -0.0469508)
(0.000304004 -0.270139 -0.0666015)
(0.00050873 -0.507701 -0.118714)
(0.000632892 -0.653839 -0.147748)
(-0.000181426 -0.7745 -0.175117)
(-0.000361885 -0.872223 -0.196716)
(0.000359489 -0.945941 -0.215139)
(0.000760939 -1.00142 -0.230338)
(-0.00104845 -1.05034 -0.241785)
(-0.0228022 -1.11216 -0.245872)
(-0.0673856 -1.19399 -0.246217)
(-0.0799923 -1.28705 -0.260392)
(-0.0519029 -1.37856 -0.313114)
(-0.0238467 -1.46609 -0.379997)
(-0.0054894 -1.5519 -0.435547)
(0.0151545 -1.6316 -0.472838)
(0.0307422 -1.70895 -0.479493)
(0.026593 -1.77065 -0.46585)
(0.00710477 -1.80476 -0.468119)
(0.00191449 -1.83067 -0.470022)
(0.00159272 -1.87024 -0.472669)
(0.00173291 -1.93033 -0.482702)
(0.00247377 -1.99937 -0.49757)
(0.00432525 -2.06795 -0.512848)
(0.00744775 -2.13631 -0.526406)
(0.010133 -2.20705 -0.538074)
(0.00869969 -2.27369 -0.547578)
(0.00418703 -2.30357 -0.550422)
(-0.000226205 -2.26873 -0.541842)
(-0.0101356 -2.18347 -0.524129)
(-0.0234841 -2.07871 -0.517867)
(-0.0239653 -1.98488 -0.498411)
(-0.0253198 -1.91385 -0.466331)
(-0.0228778 -1.86234 -0.442786)
(-0.013821 -1.82564 -0.434473)
(-0.00514054 -1.79973 -0.434582)
(-0.000840596 -1.77933 -0.436622)
(0.000505015 -1.75633 -0.436168)
(0.000772572 -1.72497 -0.430951)
(0.000907301 -1.68094 -0.420392)
(0.00110225 -1.6205 -0.404007)
(0.00113315 -1.54612 -0.382721)
(0.00162263 -1.45921 -0.356845)
(0.00288499 -1.36076 -0.327151)
(0.00416212 -1.25271 -0.293864)
(0.00447977 -1.13132 -0.257661)
(0.00313225 -0.996548 -0.22103)
(0.00100622 -0.862285 -0.189394)
(0.000256252 -0.755269 -0.166806)
(0.000771692 -0.682391 -0.153178)
(0.00260674 -0.614615 -0.140057)
(-0.00901221 -0.544055 -0.125756)
(-0.570549 -0.220076 -0.0643026)
(-0.565026 -0.112614 -0.0692054)
(-0.261806 -0.317734 -0.0171875)
(0.153167 -0.297382 0.0143082)
(0.26799 -0.223486 -0.0105825)
(0.390504 -0.10609 -0.0133599)
(0.328545 -0.018762 -0.0026134)
(0.154944 0.000138029 2.47771e-05)
(6.21789e-05 -0.190236 -0.0352494)
(0.000101281 -0.249669 -0.0535887)
(0.000190634 -0.552805 -0.10408)
(0.000269247 -0.788002 -0.144294)
(0.000303219 -0.891543 -0.162253)
(0.000338222 -0.987728 -0.180929)
(0.000282634 -1.04802 -0.193439)
(-8.51291e-05 -1.08923 -0.201387)
(-0.00444365 -1.13083 -0.197848)
(-0.59393 -0.504891 0.918807)
(-0.2659 -1.27866 0.003968)
(-0.129335 -1.40211 -0.218967)
(-0.0852857 -1.56523 -0.310774)
(-0.0403872 -1.72426 -0.393986)
(-0.00970523 -1.85182 -0.470527)
(0.0312278 -1.96569 -0.502642)
(0.0730404 -2.06552 -0.515754)
(0.0700754 -2.14972 -0.482619)
(0.0123187 -2.1962 -0.47054)
(-9.04059e-05 -2.21966 -0.475539)
(-0.00104746 -2.24309 -0.476154)
(-0.000829475 -2.27156 -0.479848)
(9.30575e-05 -2.31384 -0.487771)
(0.00136685 -2.36913 -0.501012)
(0.00293991 -2.43616 -0.519895)
(0.00392169 -2.51085 -0.544755)
(0.00350531 -2.5851 -0.567236)
(0.00219296 -2.64467 -0.576669)
(-0.00070442 -2.663 -0.570814)
(-0.0223145 -2.61692 -0.536001)
(-0.143162 -2.51524 -0.518461)
(-0.0367059 -2.40068 -0.57262)
(0.0450598 -2.35476 -0.430524)
(0.0103381 -2.32671 -0.335516)
(0.00017104 -2.29932 -0.389214)
(-0.000285829 -2.288 -0.445912)
(-0.000369206 -2.28751 -0.481706)
(-0.000588002 -2.28194 -0.511525)
(-0.00088046 -2.26319 -0.521901)
(-0.000737944 -2.22694 -0.51596)
(-0.000200429 -2.16723 -0.488649)
(0.000289044 -2.08288 -0.464437)
(0.000712504 -1.97807 -0.437735)
(0.00103807 -1.84789 -0.405375)
(0.00205307 -1.69272 -0.365673)
(0.00418769 -1.50894 -0.315308)
(0.00415996 -1.29823 -0.260476)
(-9.52122e-05 -1.08159 -0.204135)
(-0.00369465 -0.897249 -0.162361)
(0.00332915 -0.770451 -0.13168)
(0.0165632 -0.680403 -0.0979791)
(-0.0831985 -0.582906 -0.119964)
(-0.68273 -0.0834071 -0.0238032)
(-0.616076 -0.0920703 -0.056163)
(-0.262771 -0.297252 -0.182159)
(0.201868 -0.27673 -0.156863)
(0.314002 -0.226837 -0.0692087)
(0.405072 -0.116647 -0.0154421)
(0.331418 -0.027033 -0.000874748)
(0.158563 0.000402473 1.36536e-05)
(0.0205028 0.159081 -0.0476025)
(-0.000918736 0.0142404 -0.283457)
(-0.0154093 -0.371331 -0.249606)
(-0.00113653 -0.585083 -0.28128)
(0.000465796 -0.756606 -0.342118)
(-3.38863e-05 -0.915484 -0.411762)
(-0.00129577 -1.00394 -0.462926)
(-0.0116957 -1.04485 -0.527649)
(-0.0837494 -1.05732 -0.549892)
(-0.215128 -1.21659 -0.332742)
(-0.51057 -1.31592 -0.163345)
(-1.1185 -1.27949 -0.255458)
(-1.49873 -1.32772 -0.412066)
(-0.732767 -1.72363 -0.817832)
(-0.0595839 -1.83576 -1.08189)
(0.063169 -1.89405 -1.23471)
(0.100586 -1.965 -1.36764)
(0.125088 -2.02113 -1.48839)
(0.129653 -2.0779 -1.51435)
(-0.00417234 -2.41265 -1.03989)
(-0.0345671 -2.54863 -0.910073)
(-0.0444266 -2.59574 -0.954502)
(-0.0229997 -2.62272 -1.00315)
(-0.0212222 -2.66315 -1.02477)
(-0.0619732 -2.69753 -1.07999)
(-0.0605238 -2.69293 -1.21574)
(0.104256 -2.64656 -1.38322)
(0.56106 -2.5972 -1.42145)
(1.13292 -2.82116 0.17862)
(-2.78621 -1.43013 1.52509)
(-2.21656 -0.197478 2.12672)
(-1.87558 -1.34276 1.68244)
(0.373173 -1.71395 -1.7419)
(0.459765 -1.97433 -1.45364)
(0.338871 -2.38568 -0.825818)
(0.0481034 -2.54109 -0.45211)
(-1.08 -2.47601 -0.379631)
(-2.19838 -2.15098 -0.173317)
(-1.49192 -2.41894 -0.198657)
(1.56578 -1.20575 -2.00768)
(1.38476 -1.37194 -1.86574)
(0.412822 -2.25396 -0.830744)
(-0.0159948 -2.24548 0.402929)
(0.0910566 -2.04835 0.413826)
(0.316471 -1.80854 0.361626)
(0.260781 -1.56093 -0.261096)
(0.0382979 -0.837349 -0.845234)
(-0.090339 -0.672905 -0.608518)
(-0.137273 -0.641995 -0.365565)
(0.185106 -0.688445 -0.0662547)
(0.40028 -0.590133 0.0795093)
(-0.828075 0.0465048 -0.0209722)
(-0.804355 -0.0015832 -0.0015773)
(-0.754651 -0.0565975 -0.017443)
(-0.472833 -0.313914 -0.155492)
(0.336602 -0.289034 -0.211975)
(0.54047 -0.10743 -0.0877034)
(0.51715 -0.0232506 -0.011388)
(0.343826 -0.00506273 -0.00057862)
(0.139938 0.000255869 -5.28422e-05)
(-0.154108 0.142187 0.0486737)
(-0.331783 0.120559 -0.0141426)
(-0.117624 -0.39792 0.115319)
(-0.0258476 -0.575268 0.132073)
(-0.00885178 -0.706198 0.230775)
(-0.00703017 -0.910933 0.29043)
(-0.0147457 -1.1221 0.0934023)
(-0.0242259 -0.823644 -0.810054)
(-0.0241871 -0.456571 -1.0735)
(-0.112605 -0.575197 -1.1213)
(-0.917314 -1.13135 -0.193509)
(-1.19822 -0.986033 0.621343)
(-1.22128 -1.01174 0.858463)
(-0.904373 -1.28539 0.883574)
(-0.391044 -1.64948 0.578932)
(-0.123609 -1.89392 -0.0463578)
(0.180712 -1.99212 -0.578174)
(0.602243 -1.9039 -1.2497)
(1.2903 -1.47081 -1.87516)
(1.94497 -1.69041 -1.65806)
(0.115413 -2.6081 1.03915)
(0.00420478 -2.63026 1.1637)
(-0.000222364 -2.66736 1.15823)
(-0.0126634 -2.70926 1.12988)
(-0.0723012 -2.73281 1.1464)
(-0.133332 -2.73557 1.19972)
(-0.0455992 -2.73894 1.2317)
(0.569147 -2.70388 1.23605)
(2.43293 -2.19512 1.11762)
(0.917374 -2.10086 1.794)
(-2.01294 -0.261831 2.21051)
(-2.99413 -0.282816 1.34348)
(-1.46833 -1.93149 1.14667)
(1.04783 -2.27875 0.703104)
(1.06267 -2.38298 0.427579)
(0.336273 -2.54337 0.368618)
(0.0113593 -2.58984 0.419962)
(-0.142489 -2.23005 1.39744)
(-1.04026 -1.78362 1.76729)
(-1.48964 -1.4126 1.8673)
(1.33051 -2.11424 0.984216)
(1.90297 -1.98796 0.321659)
(0.663232 -2.17126 0.418933)
(0.0238041 -1.95546 0.591406)
(-0.331877 -1.69558 0.419532)
(-1.10228 -1.05114 -0.443444)
(-0.315041 -0.320379 -0.840661)
(0.322442 -0.415868 -0.555808)
(0.291689 -0.565158 -0.300569)
(0.224393 -0.622244 -0.234113)
(0.270425 -0.72321 0.0167732)
(-0.917702 -0.0194291 -0.0921082)
(-0.907073 -0.0188441 -0.0449662)
(-0.818835 -0.115965 -0.116588)
(-0.448952 -0.317531 0.298872)
(0.274785 -0.230696 0.358647)
(0.535372 -0.105932 0.168064)
(0.536046 -0.0229574 0.0274466)
(0.348204 -0.00495484 0.00275903)
(0.138806 0.000254128 -3.52076e-05)
(-2.87492e-05 -0.203471 0.0384145)
(-0.000101114 -0.28366 0.0618986)
(-0.0014051 -0.646199 0.109675)
(-0.00333166 -0.823207 0.130722)
(-0.00391511 -0.94701 0.14971)
(-0.00474502 -1.13085 0.180962)
(-0.005424 -1.32287 0.185632)
(-0.00324307 -1.44958 0.101896)
(0.00344143 -1.47353 0.0119611)
(0.0216041 -1.35402 -0.36025)
(0.0789998 -0.325356 -1.20646)
(-0.556846 0.886815 0.768961)
(-1.15605 0.432538 0.848097)
(-1.59375 0.0932426 0.636773)
(-1.22132 -0.936961 0.534398)
(-0.253234 -1.43103 0.313704)
(0.0201866 -1.62094 0.168027)
(0.278915 -1.83605 0.0279465)
(0.72063 -2.04129 -0.310977)
(0.895248 -2.28791 -0.246453)
(0.0942204 -2.50016 0.415041)
(-0.00191628 -2.56814 0.476455)
(-0.00327767 -2.61478 0.495304)
(-0.00189157 -2.64319 0.5074)
(-0.00038238 -2.65771 0.515566)
(0.000714901 -2.66592 0.523167)
(0.00251769 -2.68256 0.527775)
(0.00364952 -2.71546 0.525655)
(0.00232758 -2.73793 0.514602)
(-0.00120192 -2.68418 0.481382)
(-0.0475629 -2.58683 0.175085)
(-0.528077 -2.35575 -0.572178)
(-0.292911 -2.22758 0.731978)
(0.00802113 -2.19164 0.716516)
(0.00510706 -2.25272 0.449936)
(0.000199926 -2.26223 0.421975)
(-0.00116898 -2.26695 0.42779)
(-0.00128592 -2.26205 0.427335)
(-0.00205942 -2.23829 0.419306)
(-0.00315387 -2.1927 0.41226)
(-0.00164229 -2.12604 0.394591)
(0.000722095 -2.03971 0.366135)
(0.00214821 -1.93482 0.342516)
(0.00138222 -1.80638 0.314379)
(-0.00412119 -1.64134 0.276209)
(-0.0101438 -1.39676 0.22712)
(-0.00456036 -1.11056 0.180704)
(0.00665242 -0.876205 0.130852)
(0.0107902 -0.724555 0.0852519)
(0.0524822 -0.654447 0.049945)
(0.0594566 -0.602785 0.109512)
(-0.405067 -0.468026 0.087899)
(-0.691808 -0.0833866 -0.0172962)
(-0.501473 -0.257902 -0.180417)
(-0.118932 -0.359484 0.234067)
(0.177891 -0.246927 0.277626)
(0.321748 -0.205671 0.20185)
(0.43866 -0.11604 0.0666483)
(0.322462 -0.0450751 0.0107213)
(0.151717 0.00267898 -0.000263808)
(-7.0979e-05 -0.21876 0.0443514)
(-0.0208252 -0.180977 0.048805)
(-0.0287828 -0.462809 0.110545)
(-0.0236352 -0.619747 0.129517)
(-0.0246877 -0.704046 0.136394)
(-0.0389579 -0.762969 0.137892)
(-0.0466885 -0.793055 0.15409)
(-0.0172156 -0.850785 0.174376)
(0.00372762 -0.952002 0.194363)
(0.0211809 -1.07315 0.215763)
(0.0309057 -1.18708 0.238276)
(0.0209384 -1.27953 0.26302)
(-0.0565263 -1.37073 0.269848)
(-0.708629 -1.35451 0.197193)
(-1.4873 -0.479513 0.934633)
(-0.938553 -0.472317 1.28364)
(-0.25927 -1.37555 0.760198)
(0.0578574 -1.66072 0.535238)
(0.361727 -1.95817 0.44366)
(1.04977 -2.18776 0.414151)
(1.42936 -2.32237 0.446204)
(0.0905673 -2.58645 0.518163)
(-0.000684523 -2.60203 0.539007)
(0.000742707 -2.61905 0.55471)
(0.00312886 -2.64974 0.566558)
(0.0045926 -2.6727 0.568598)
(0.00206385 -2.66978 0.550427)
(-0.00312797 -2.61989 0.4942)
(-0.0220544 -2.51887 0.376353)
(-0.275558 -2.39784 -0.130137)
(-1.19833 -0.784349 -1.86851)
(-0.84018 1.35378 -1.53871)
(1.86424 0.812728 1.39662)
(1.75179 -0.779337 1.45555)