/*--------------------------------*- C++ -*----------------------------------*\
| =========                 |                                                 |
| \\      /  F ield         | OpenFOAM: The Open Source CFD Toolbox           |
|  \\    /   O peration     | Version:  2.1.1                                 |
|   \\  /    A nd           | Web:      www.OpenFOAM.org                      |
|    \\/     M anipulation  |                                                 |
\*---------------------------------------------------------------------------*/
FoamFile
{
    version     2.0;
    format      ascii;
    class       volVectorField;
    location    "0.0013";
    object      fluctuation2;
}
// * * * * * * * * * * * * * * * * * * * * * * * * * * * * * * * * * * * * * //

dimensions      [0 1 -1 0 0 0 0];

internalField   nonuniform List<vector> 
36520
(
(0.355726 0.201217 0.249945)
(0.496223 0.311677 0.296952)
(0.67772 0.431707 0.40935)
(0.746037 0.485754 0.46222)
(0.805741 0.522708 0.501548)
(0.844476 0.548168 0.529379)
(0.876854 0.567218 0.550066)
(0.902681 0.581366 0.566057)
(0.926508 0.592387 0.578661)
(0.947816 0.60131 0.589718)
(0.964034 0.606804 0.598492)
(0.972596 0.608686 0.604689)
(0.969169 0.605148 0.60597)
(0.953674 0.596029 0.601504)
(0.926869 0.58088 0.589778)
(0.892718 0.56072 0.571317)
(0.858611 0.539553 0.550065)
(0.828837 0.519616 0.528327)
(0.805099 0.502431 0.508715)
(0.784305 0.487012 0.491029)
(0.76268 0.471717 0.474137)
(0.739794 0.456202 0.45738)
(0.71509 0.439992 0.440149)
(0.689236 0.423128 0.422351)
(0.662649 0.405819 0.404049)
(0.636188 0.388566 0.385716)
(0.609463 0.371215 0.367283)
(0.582765 0.353978 0.34912)
(0.556092 0.336893 0.33132)
(0.529583 0.320019 0.314063)
(0.502966 0.303238 0.297259)
(0.476319 0.286639 0.280943)
(0.449666 0.270255 0.264989)
(0.423572 0.254421 0.249495)
(0.398672 0.239495 0.234595)
(0.375687 0.22584 0.220593)
(0.355168 0.213775 0.207789)
(0.337498 0.203504 0.196435)
(0.322836 0.195076 0.186631)
(0.3116 0.18874 0.178608)
(0.304802 0.185172 0.172897)
(0.304395 0.185745 0.170506)
(0.313241 0.192479 0.172946)
(0.332624 0.206464 0.181037)
(0.3592 0.225678 0.193316)
(0.385737 0.244976 0.206378)
(0.404743 0.258995 0.216803)
(0.400082 0.257207 0.216222)
(0.365525 0.235363 0.20113)
(0.316021 0.203501 0.179622)
(0.259047 0.167463 0.154153)
(0.202267 0.131729 0.126729)
(0.152099 0.099488 0.0997647)
(0.109292 0.0722901 0.0747504)
(0.0738787 0.0507906 0.0529015)
(0.0465497 0.0350968 0.0353117)
(0.0280873 0.0253828 0.0235252)
(0.0164938 0.0202415 0.016787)
(0.0131259 0.0191458 0.0152679)
(0.01464 0.0210174 0.0168029)
(0.302585 0.167118 0.167694)
(0.351207 0.217511 0.202785)
(0.390088 0.247522 0.235262)
(0.386049 0.248767 0.238621)
(0.387853 0.249975 0.241279)
(0.383087 0.247464 0.240327)
(0.383165 0.247112 0.240561)
(0.38274 0.245805 0.240247)
(0.385924 0.246298 0.241325)
(0.385123 0.244297 0.240349)
(0.377068 0.237955 0.235482)
(0.356139 0.224572 0.223796)
(0.321748 0.203852 0.204608)
(0.27911 0.178663 0.180342)
(0.241358 0.156434 0.158234)
(0.224908 0.146622 0.148115)
(0.219845 0.142904 0.143933)
(0.215528 0.138922 0.139278)
(0.211631 0.135037 0.134844)
(0.207379 0.131131 0.130622)
(0.202235 0.127043 0.126374)
(0.196628 0.122955 0.122122)
(0.190853 0.118958 0.117913)
(0.185411 0.115247 0.113929)
(0.180134 0.11168 0.110043)
(0.175458 0.108506 0.106522)
(0.171284 0.105682 0.103354)
(0.167023 0.102836 0.100228)
(0.161609 0.0993317 0.096533)
(0.154745 0.0949859 0.0921319)
(0.146272 0.0897436 0.0869557)
(0.136589 0.0838765 0.08122)
(0.126659 0.077975 0.0754099)
(0.117893 0.0728761 0.0702379)
(0.111609 0.0693437 0.0664016)
(0.108377 0.0676794 0.0642147)
(0.108013 0.0677507 0.0635719)
(0.109933 0.0692181 0.0641254)
(0.113665 0.0718287 0.0656032)
(0.119196 0.0756356 0.067968)
(0.12709 0.0810805 0.0714888)
(0.138573 0.0890669 0.0767897)
(0.155201 0.100716 0.084742)
(0.177422 0.116392 0.0957752)
(0.203377 0.134784 0.109199)
(0.229497 0.153055 0.123535)
(0.253214 0.169137 0.137937)
(0.266827 0.177029 0.148098)
(0.270259 0.175767 0.153455)
(0.269158 0.169218 0.156436)
(0.266047 0.160399 0.158114)
(0.258375 0.150301 0.157)
(0.236876 0.1341 0.145871)
(0.194952 0.108961 0.121243)
(0.146111 0.082527 0.0923886)
(0.101824 0.0588559 0.0656527)
(0.0631056 0.0367572 0.0410157)
(0.0292087 0.0171114 0.0191833)
(0.00997299 0.00731543 0.00833741)
(0.00960956 0.0109238 0.0112555)
(0.21747 0.113985 0.113231)
(0.197241 0.121909 0.11398)
(0.200579 0.127088 0.121465)
(0.1841 0.11846 0.11421)
(0.175538 0.113156 0.109725)
(0.164463 0.106358 0.103645)
(0.159658 0.103304 0.10079)
(0.155424 0.100397 0.0982634)
(0.155185 0.099903 0.097962)
(0.152811 0.0981132 0.0966916)
(0.146115 0.0939111 0.0930664)
(0.132792 0.086329 0.0859736)
(0.115376 0.0771634 0.0768949)
(0.101899 0.071258 0.070561)
(0.101383 0.073354 0.0720746)
(0.115645 0.0838163 0.0820855)
(0.115343 0.0826648 0.0807399)
(0.0887805 0.0624764 0.0608681)
(0.0682883 0.0462958 0.0451963)
(0.0617157 0.0406886 0.0398874)
(0.0596785 0.0388846 0.0383397)
(0.0586799 0.0380516 0.0376945)
(0.0581162 0.0376294 0.0373836)
(0.0579803 0.037546 0.0373315)
(0.0579726 0.0375676 0.0373262)
(0.0581499 0.0377094 0.0373931)
(0.0585338 0.0379967 0.0375784)
(0.0591064 0.0384375 0.0379398)
(0.0592937 0.0386955 0.0381692)
(0.0589694 0.0386964 0.0382178)
(0.0582635 0.0385359 0.0381917)
(0.0575573 0.0384364 0.0383078)
(0.057419 0.0387102 0.0388313)
(0.0583744 0.039626 0.0399554)
(0.0605814 0.0412498 0.041664)
(0.0639248 0.0435107 0.0438387)
(0.0682586 0.0463607 0.0463937)
(0.0735623 0.0498138 0.0493338)
(0.0799336 0.053968 0.0527625)
(0.0877088 0.0590894 0.0568943)
(0.0975854 0.0656987 0.062162)
(0.110683 0.0746096 0.0692338)
(0.128512 0.0868826 0.0789807)
(0.152393 0.103464 0.0922429)
(0.183023 0.124776 0.1096)
(0.220938 0.150709 0.131372)
(0.267832 0.18172 0.158542)
(0.327183 0.219386 0.192698)
(0.389975 0.25555 0.227419)
(0.444388 0.280673 0.254882)
(0.486056 0.292577 0.274329)
(0.491771 0.283769 0.275137)
(0.434766 0.242625 0.243169)
(0.349553 0.191589 0.195889)
(0.262784 0.145373 0.14922)
(0.190328 0.108238 0.111072)
(0.126029 0.072246 0.0754001)
(0.0653072 0.0373008 0.0397939)
(0.021696 0.0126069 0.0136552)
(0.0103855 0.0107662 0.0109772)
(0.157304 0.0783283 0.079482)
(0.11176 0.0687925 0.0647764)
(0.103244 0.0654012 0.0628723)
(0.0885996 0.0575435 0.0556972)
(0.0814044 0.0537952 0.0522813)
(0.075246 0.0510435 0.0496627)
(0.07505 0.0522082 0.0507538)
(0.0779543 0.0554017 0.0539976)
(0.0860914 0.0618286 0.0605251)
(0.0976691 0.07054 0.0695765)
(0.114462 0.0830309 0.0823572)
(0.138964 0.101271 0.100663)
(0.174909 0.128021 0.126829)
(0.223083 0.163783 0.161066)
(0.280841 0.205699 0.200814)
(0.348435 0.251854 0.24461)
(0.346945 0.248695 0.240379)
(0.24773 0.178436 0.172234)
(0.139384 0.100883 0.0987617)
(0.081583 0.0590453 0.0595374)
(0.0640808 0.0462737 0.047772)
(0.0611662 0.0439467 0.0459744)
(0.0623551 0.0445539 0.0469819)
(0.0646776 0.0459617 0.0487159)
(0.0667238 0.0471734 0.0501489)
(0.0676735 0.0476139 0.0506347)
(0.0678747 0.0475655 0.0504541)
(0.0696297 0.0486463 0.0514293)
(0.0737717 0.0513947 0.0542272)
(0.0783997 0.0544536 0.0574434)
(0.0833802 0.057731 0.0610275)
(0.0885681 0.0611073 0.064888)
(0.093503 0.0642568 0.0686881)
(0.0975138 0.0667287 0.0718838)
(0.100025 0.0681538 0.0739552)
(0.101269 0.0686803 0.0749432)
(0.102222 0.0690118 0.0754804)
(0.104182 0.0700757 0.0764871)
(0.107926 0.0723976 0.0784904)
(0.113216 0.0758106 0.0813233)
(0.120388 0.0805658 0.0853346)
(0.129906 0.087049 0.090903)
(0.142757 0.0959599 0.0985078)
(0.160728 0.108556 0.10936)
(0.185404 0.126181 0.124646)
(0.218349 0.149899 0.145085)
(0.262466 0.180761 0.172018)
(0.324454 0.221981 0.208925)
(0.423182 0.285992 0.26787)
(0.547914 0.356838 0.335827)
(0.678259 0.416061 0.401856)
(0.742337 0.430218 0.422871)
(0.693014 0.382946 0.37994)
(0.547817 0.295091 0.292359)
(0.418301 0.22791 0.221568)
(0.309906 0.173295 0.16739)
(0.217072 0.12244 0.121191)
(0.122983 0.0692926 0.0712008)
(0.0449305 0.0252401 0.0264921)
(0.0146241 0.0125199 0.0125144)
(0.119218 0.0584802 0.0616178)
(0.0657541 0.0415488 0.0401613)
(0.0591234 0.0402739 0.0392575)
(0.0577046 0.0424017 0.0415607)
(0.0676369 0.0515837 0.0506838)
(0.085318 0.0661386 0.0650247)
(0.110571 0.0857234 0.08419)
(0.143059 0.109782 0.108039)
(0.183956 0.138665 0.137202)
(0.236998 0.174791 0.17452)
(0.307954 0.222732 0.224046)
(0.403547 0.288028 0.290278)
(0.52937 0.375865 0.376435)
(0.68157 0.484232 0.478618)
(0.842981 0.598677 0.583399)
(1.00501 0.706463 0.681927)
(0.989134 0.692981 0.66295)
(0.7566 0.536057 0.509981)
(0.474081 0.33935 0.326235)
(0.292513 0.209781 0.207041)
(0.220214 0.158719 0.160307)
(0.205065 0.148002 0.15197)
(0.210787 0.15149 0.157528)
(0.222695 0.158969 0.167076)
(0.232334 0.164697 0.174635)
(0.234812 0.165258 0.17638)
(0.230092 0.160851 0.172161)
(0.229744 0.15972 0.170497)
(0.241072 0.166968 0.17707)
(0.265117 0.182966 0.192626)
(0.292844 0.201336 0.210555)
(0.323304 0.22131 0.230308)
(0.353035 0.240534 0.249774)
(0.376467 0.255324 0.265405)
(0.388016 0.262201 0.273725)
(0.387238 0.260891 0.274174)
(0.380031 0.255248 0.26982)
(0.350048 0.234132 0.250033)
(0.312826 0.207839 0.225435)
(0.2681 0.176486 0.195664)
(0.225693 0.146934 0.167012)
(0.204104 0.132187 0.151676)
(0.202001 0.131096 0.148556)
(0.207472 0.134905 0.150195)
(0.221458 0.144463 0.158412)
(0.242862 0.159557 0.172298)
(0.275173 0.182713 0.19287)
(0.322042 0.216114 0.221484)
(0.391433 0.264312 0.262835)
(0.484132 0.321444 0.316661)
(0.615118 0.387912 0.386728)
(0.717058 0.427544 0.431346)
(0.767257 0.432767 0.445182)
(0.751955 0.408954 0.42186)
(0.614085 0.333159 0.33124)
(0.467699 0.259369 0.245899)
(0.34161 0.189482 0.180041)
(0.203196 0.11265 0.111595)
(0.0823575 0.0458259 0.0468073)
(0.0242035 0.0173165 0.0170232)
(0.102039 0.0519309 0.0570675)
(0.0621099 0.0455446 0.0455599)
(0.0829111 0.0639494 0.0635868)
(0.116216 0.0907224 0.0900123)
(0.161143 0.125624 0.124385)
(0.219628 0.170675 0.168432)
(0.291618 0.225285 0.220899)
(0.380179 0.289397 0.283513)
(0.488417 0.363151 0.358304)
(0.629331 0.454452 0.454808)
(0.816936 0.574007 0.583699)
(1.06814 0.735327 0.755142)
(1.38774 0.944255 0.968906)
(1.75367 1.18845 1.2044)
(2.09323 1.41814 1.41155)
(2.34573 1.58429 1.55044)
(2.29507 1.55572 1.49409)
(1.90142 1.31296 1.24088)
(1.37445 0.967112 0.915873)
(0.986343 0.695812 0.674438)
(0.800609 0.565621 0.559225)
(0.744453 0.527773 0.528438)
(0.743643 0.527512 0.534189)
(0.765445 0.541387 0.554796)
(0.783076 0.55156 0.572023)
(0.786686 0.551315 0.578291)
(0.774712 0.540367 0.572108)
(0.769456 0.534109 0.568103)
(0.782966 0.541277 0.574332)
(0.827698 0.570257 0.600835)
(0.908493 0.624243 0.651529)
(1.00877 0.690613 0.713077)
(1.11893 0.762061 0.777854)
(1.21803 0.824172 0.833035)
(1.27905 0.860001 0.863478)
(1.28638 0.862025 0.863127)
(1.25702 0.842059 0.843895)
(1.18115 0.791385 0.796513)
(1.08963 0.728867 0.739816)
(0.980218 0.653658 0.672294)
(0.842077 0.559526 0.586149)
(0.713561 0.47196 0.505568)
(0.552619 0.364381 0.40155)
(0.411227 0.269623 0.307055)
(0.391878 0.257137 0.293371)
(0.392125 0.256785 0.293686)
(0.400189 0.261913 0.299071)
(0.415748 0.273732 0.306568)
(0.444591 0.296339 0.323117)
(0.510504 0.339724 0.364238)
(0.598124 0.386793 0.408284)
(0.67663 0.421267 0.446535)
(0.722729 0.435675 0.473858)
(0.732579 0.430944 0.47234)
(0.710543 0.408416 0.436655)
(0.649602 0.361832 0.365759)
(0.515587 0.282866 0.27111)
(0.308862 0.168719 0.162572)
(0.136261 0.0751372 0.0747091)
(0.0405831 0.0262539 0.0255197)
(0.135868 0.0831814 0.0918866)
(0.142667 0.108552 0.112728)
(0.211607 0.16338 0.166584)
(0.300354 0.231101 0.235051)
(0.410781 0.314055 0.315447)
(0.547851 0.419219 0.412914)
(0.704688 0.539854 0.519806)
(0.882678 0.670721 0.638924)
(1.08108 0.804675 0.773114)
(1.3331 0.960966 0.944629)
(1.66075 1.15827 1.17145)
(2.08967 1.42002 1.46905)
(2.61005 1.74334 1.823)
(3.16086 2.08832 2.17711)
(3.61642 2.37196 2.4468)
(3.8477 2.51623 2.55747)
(3.85765 2.53472 2.51993)
(3.59211 2.4038 2.32836)
(3.05696 2.10157 2.00073)
(2.54797 1.76775 1.69659)
(2.25617 1.55969 1.5182)
(2.11349 1.46133 1.43031)
(2.0338 1.41034 1.38495)
(1.97827 1.37478 1.35902)
(1.92651 1.34008 1.33933)
(1.87323 1.30241 1.31927)
(1.81676 1.2627 1.29485)
(1.77265 1.23218 1.27545)
(1.74394 1.21294 1.26036)
(1.74989 1.21709 1.26223)
(1.80206 1.25148 1.29092)
(1.90185 1.31792 1.34983)
(2.03933 1.40876 1.4296)
(2.18809 1.50409 1.51133)
(2.32507 1.5885 1.58085)
(2.41694 1.64277 1.61904)
(2.44404 1.65436 1.61849)
(2.3821 1.60989 1.56735)
(2.26026 1.52786 1.48391)
(2.11608 1.42837 1.38937)
(1.92657 1.29907 1.2715)
(1.74165 1.17022 1.16151)
(1.52638 1.02339 1.03732)
(1.23037 0.830004 0.862564)
(1.00488 0.684686 0.728223)
(0.872173 0.594617 0.646756)
(0.764816 0.515693 0.574807)
(0.663792 0.437508 0.500657)
(0.619258 0.404236 0.463348)
(0.607139 0.399705 0.45531)
(0.609302 0.41531 0.465584)
(0.617866 0.426746 0.481046)
(0.629441 0.426416 0.475112)
(0.635098 0.416782 0.454281)
(0.624328 0.393708 0.420012)
(0.602392 0.360125 0.374525)
(0.576751 0.321095 0.323242)
(0.438405 0.236934 0.23071)
(0.209092 0.11422 0.111464)
(0.0649246 0.0396593 0.0381568)
(0.255092 0.185017 0.196781)
(0.304381 0.235594 0.24655)
(0.449205 0.350229 0.352649)
(0.638642 0.492104 0.495745)
(0.864595 0.657728 0.654936)
(1.14301 0.861312 0.852465)
(1.41126 1.06885 1.04455)
(1.69984 1.28769 1.23907)
(1.93464 1.46189 1.39563)
(2.14935 1.60052 1.53135)
(2.47887 1.78595 1.7382)
(2.88507 2.01046 1.99785)
(3.30152 2.24829 2.26686)
(3.67968 2.46765 2.51007)
(4.01362 2.65748 2.72234)
(4.26763 2.80748 2.88634)
(4.40426 2.91067 2.97795)
(4.40879 2.95939 2.98463)
(4.31535 2.94975 2.92315)
(4.20391 2.88641 2.83473)
(4.09407 2.78747 2.73678)
(3.97907 2.68829 2.63602)
(3.83492 2.58437 2.52042)
(3.64333 2.4597 2.38427)
(3.40851 2.31211 2.2392)
(3.18134 2.17125 2.11965)
(3.01402 2.0712 2.0485)
(2.89933 2.00611 2.00511)
(2.82264 1.96509 1.97396)
(2.77204 1.93965 1.94808)
(2.75627 1.93398 1.93527)
(2.77432 1.94757 1.9405)
(2.82211 1.97835 1.96245)
(2.89287 2.02123 1.99639)
(2.9728 2.06617 2.03439)
(3.04276 2.10234 2.06353)
(3.08514 2.12005 2.07082)
(3.0707 2.10247 2.03961)
(2.9894 2.04476 1.96663)
(2.86508 1.96076 1.86687)
(2.69603 1.85032 1.74202)
(2.49494 1.71889 1.60293)
(2.28444 1.58076 1.46958)
(2.03469 1.41826 1.32424)
(1.77725 1.25105 1.17931)
(1.56105 1.11022 1.06027)
(1.37887 0.987914 0.957544)
(1.19833 0.857567 0.847206)
(1.02844 0.723945 0.726168)
(0.926825 0.649248 0.649155)
(0.838702 0.599792 0.60204)
(0.777827 0.575036 0.582484)
(0.730441 0.532889 0.545943)
(0.678215 0.479163 0.486171)
(0.618787 0.423119 0.423521)
(0.56924 0.369095 0.367569)
(0.541358 0.321185 0.322358)
(0.469108 0.255985 0.257097)
(0.284503 0.153829 0.150834)
(0.0988484 0.0577502 0.055156)
(0.344959 0.266638 0.227751)
(0.524777 0.34095 0.344745)
(0.829112 0.575606 0.568178)
(1.10687 0.785039 0.762682)
(1.31785 0.943051 0.924408)
(1.51583 1.09236 1.08074)
(1.60886 1.17633 1.18759)
(1.70043 1.26059 1.28431)
(1.81896 1.35861 1.37799)
(1.97431 1.47392 1.46841)
(2.17134 1.60778 1.56634)
(2.40205 1.75008 1.67009)
(2.65929 1.89361 1.792)
(2.9205 2.02783 1.94088)
(3.13875 2.13462 2.08952)
(3.29881 2.22423 2.23538)
(3.4023 2.30667 2.37457)
(3.48394 2.38579 2.48401)
(3.57046 2.45874 2.54575)
(3.66384 2.5204 2.56948)
(3.75042 2.56892 2.57793)
(3.80661 2.59528 2.57294)
(3.83436 2.60168 2.55291)
(3.84049 2.59312 2.5167)
(3.81869 2.56891 2.46358)
(3.74486 2.51802 2.39211)
(3.60019 2.43281 2.30754)
(3.42018 2.33553 2.23079)
(3.25705 2.25347 2.17063)
(3.12567 2.18877 2.11766)
(3.02454 2.13511 2.0683)
(2.94968 2.08996 2.02268)
(2.89673 2.05465 1.98784)
(2.86098 2.02789 1.96424)
(2.83709 2.0056 1.94622)
(2.82063 1.98467 1.92915)
(2.80677 1.96306 1.90914)
(2.79024 1.93993 1.88369)
(2.75532 1.90826 1.84336)
(2.69352 1.86314 1.78404)
(2.6027 1.80171 1.70403)
(2.47742 1.72109 1.6005)
(2.31885 1.62324 1.48113)
(2.13411 1.51483 1.35431)
(1.92295 1.39366 1.21895)
(1.70685 1.26886 1.09071)
(1.52086 1.16372 0.993735)
(1.3719 1.08448 0.932186)
(1.24171 1.00836 0.876006)
(1.14706 0.93146 0.813876)
(1.10745 0.870637 0.761385)
(1.0341 0.78031 0.683288)
(0.918405 0.670783 0.60268)
(0.797779 0.568205 0.524385)
(0.675304 0.470396 0.441196)
(0.578427 0.386117 0.369286)
(0.519979 0.318308 0.315342)
(0.46377 0.256027 0.262884)
(0.329961 0.176082 0.178121)
(0.14724 0.0827475 0.0796162)
(0.297949 0.236874 0.205739)
(0.450441 0.277498 0.291134)
(0.753812 0.521602 0.517662)
(0.937825 0.671834 0.642694)
(1.09466 0.795923 0.759903)
(1.22567 0.896448 0.851956)
(1.3126 0.972329 0.929767)
(1.35951 1.02944 0.993908)
(1.39586 1.07966 1.04462)
(1.4699 1.14154 1.09333)
(1.60035 1.22337 1.15213)
(1.76752 1.31817 1.23287)
(1.95138 1.41788 1.34765)
(2.14235 1.51674 1.48422)
(2.32591 1.61108 1.62202)
(2.4733 1.69479 1.74836)
(2.57645 1.76858 1.86435)
(2.6326 1.82342 1.95226)
(2.66368 1.85689 1.98959)
(2.70493 1.88414 1.98691)
(2.77851 1.92565 1.98463)
(2.88418 1.98836 2.01269)
(3.001 2.06018 2.0632)
(3.11593 2.13133 2.1189)
(3.23185 2.20204 2.17074)
(3.35379 2.27512 2.21643)
(3.46758 2.34399 2.25283)
(3.50592 2.37494 2.26219)
(3.41192 2.33914 2.22521)
(3.21898 2.25152 2.14831)
(3.00876 2.14808 2.0554)
(2.83033 2.05206 1.96521)
(2.70005 1.97501 1.88994)
(2.61671 1.919 1.83692)
(2.5736 1.88093 1.80577)
(2.56078 1.85523 1.7903)
(2.56283 1.83517 1.78356)
(2.5585 1.81187 1.77525)
(2.53333 1.77952 1.75399)
(2.48039 1.734 1.71254)
(2.39456 1.67157 1.64694)
(2.28087 1.59488 1.55969)
(2.13938 1.50542 1.45145)
(1.97247 1.40415 1.3264)
(1.78033 1.29306 1.18567)
(1.55929 1.1682 1.03366)
(1.31579 1.02945 0.881403)
(1.07193 0.891432 0.746763)
(0.879472 0.781172 0.653173)
(0.773478 0.705995 0.597385)
(0.712378 0.635785 0.547363)
(0.674369 0.562691 0.4934)
(0.6456 0.494872 0.441463)
(0.595341 0.429311 0.396672)
(0.530037 0.366014 0.348051)
(0.484269 0.313846 0.309953)
(0.464635 0.273861 0.284803)
(0.437741 0.236393 0.253976)
(0.33043 0.177602 0.180665)
(0.154984 0.0880639 0.0826432)
(0.258632 0.193722 0.186645)
(0.421091 0.254297 0.282192)
(0.792165 0.563172 0.544979)
(1.11831 0.802955 0.751211)
(1.25906 0.908636 0.840461)
(1.40388 1.00675 0.935151)
(1.47036 1.06828 0.99798)
(1.47894 1.11033 1.03784)
(1.47637 1.1507 1.06941)
(1.52644 1.21062 1.11876)
(1.64804 1.29565 1.19754)
(1.86158 1.425 1.33153)
(2.16461 1.59981 1.5309)
(2.48016 1.77017 1.74579)
(2.74927 1.90922 1.93356)
(2.97395 2.02524 2.09006)
(3.14543 2.12444 2.21632)
(3.24502 2.19853 2.31566)
(3.27663 2.24049 2.37861)
(3.28837 2.26496 2.3897)
(3.32345 2.28975 2.37075)
(3.38223 2.32 2.36054)
(3.46331 2.36391 2.38263)
(3.56263 2.42108 2.43155)
(3.68097 2.49074 2.49714)
(3.81729 2.56932 2.56817)
(3.96005 2.64744 2.6295)
(4.07118 2.70901 2.66181)
(4.06772 2.72708 2.64882)
(3.89671 2.67562 2.57393)
(3.64405 2.57524 2.45781)
(3.4214 2.47533 2.35217)
(3.2663 2.3983 2.27641)
(3.19311 2.35326 2.24107)
(3.18746 2.33482 2.24057)
(3.22698 2.33386 2.26057)
(3.28584 2.34001 2.28683)
(3.33181 2.34026 2.30565)
(3.33828 2.32369 2.30226)
(3.29471 2.28697 2.26695)
(3.20204 2.22289 2.19732)
(3.07064 2.13583 2.09893)
(2.90324 2.02863 1.97295)
(2.68973 1.89584 1.81388)
(2.42349 1.73759 1.6196)
(2.09487 1.54931 1.3903)
(1.71558 1.33332 1.14301)
(1.33291 1.1099 0.909606)
(1.02718 0.920156 0.732316)
(0.849425 0.787914 0.629078)
(0.769182 0.690785 0.571812)
(0.727459 0.603157 0.521406)
(0.692342 0.526608 0.477381)
(0.634427 0.458486 0.434736)
(0.565347 0.396972 0.385514)
(0.517005 0.346457 0.342669)
(0.495094 0.306496 0.309483)
(0.455601 0.256926 0.265479)
(0.33511 0.182746 0.182901)
(0.158681 0.0914016 0.0844525)
(0.270458 0.17038 0.226853)
(0.372372 0.264758 0.293809)
(0.583264 0.457265 0.430507)
(0.869193 0.663262 0.597619)
(1.12735 0.84939 0.75289)
(1.38213 1.02561 0.913453)
(1.48878 1.12904 1.01189)
(1.53907 1.19824 1.07819)
(1.52073 1.22099 1.10685)
(1.59574 1.28033 1.18623)
(1.77528 1.38575 1.31434)
(2.05484 1.55787 1.49645)
(2.41083 1.78026 1.7213)
(2.76631 1.98664 1.94346)
(3.06301 2.13592 2.11799)
(3.33312 2.26037 2.2637)
(3.60635 2.39075 2.4039)
(3.81955 2.50813 2.5174)
(3.87226 2.56635 2.58454)
(3.88542 2.62132 2.65981)
(3.9718 2.70293 2.7338)
(4.0658 2.76439 2.77678)
(4.1473 2.80728 2.81351)
(4.23643 2.85191 2.8648)
(4.33656 2.90201 2.93133)
(4.42928 2.94624 2.99876)
(4.49139 2.97183 3.04489)
(4.48845 2.96809 3.04008)
(4.37688 2.92685 2.95354)
(4.15735 2.84928 2.79048)
(3.88128 2.73686 2.60104)
(3.63891 2.62205 2.44932)
(3.50378 2.55279 2.3752)
(3.48301 2.53481 2.37101)
(3.54648 2.55226 2.41316)
(3.64725 2.58484 2.47552)
(3.74901 2.61778 2.53906)
(3.82059 2.63896 2.58328)
(3.8364 2.63485 2.59223)
(3.79174 2.60374 2.56015)
(3.68365 2.53406 2.48097)
(3.5175 2.42748 2.35895)
(3.29147 2.28441 2.1945)
(2.98989 2.09565 1.9807)
(2.60835 1.86454 1.71635)
(2.16277 1.6005 1.41079)
(1.68769 1.31665 1.09578)
(1.23261 1.02949 0.807879)
(0.91507 0.812427 0.615305)
(0.799086 0.713233 0.549712)
(0.818319 0.68561 0.567185)
(0.830833 0.644048 0.57455)
(0.804361 0.579755 0.55382)
(0.759308 0.536337 0.527923)
(0.687425 0.483049 0.480847)
(0.621964 0.42663 0.425544)
(0.581827 0.376069 0.372264)
(0.518969 0.310793 0.304074)
(0.343946 0.194615 0.188427)
(0.140198 0.0831157 0.0745678)
(0.283464 0.184943 0.237664)
(0.374834 0.284153 0.289193)
(0.533927 0.430984 0.375356)
(0.759545 0.595899 0.511949)
(0.97513 0.754994 0.652875)
(1.28661 0.967742 0.86054)
(1.49352 1.1269 1.02057)
(1.57485 1.21245 1.10414)
(1.56934 1.24579 1.15396)
(1.58997 1.28622 1.25765)
(1.70325 1.36065 1.42335)
(1.89688 1.47701 1.57676)
(2.11141 1.5995 1.6666)
(2.29839 1.69062 1.70962)
(2.48399 1.77095 1.76414)
(2.72933 1.89645 1.86931)
(3.06997 2.08135 2.03859)
(3.51808 2.32808 2.27444)
(3.90927 2.56638 2.49999)
(4.08043 2.71538 2.67136)
(4.15262 2.80916 2.80506)
(4.23141 2.8755 2.87981)
(4.28602 2.90678 2.91443)
(4.34653 2.93238 2.95325)
(4.41376 2.95756 3.001)
(4.47356 2.9773 3.04837)
(4.51752 2.98884 3.07819)
(4.5235 2.98419 3.06014)
(4.4313 2.94466 2.96059)
(4.20979 2.86458 2.79127)
(3.90601 2.74069 2.59587)
(3.62323 2.60258 2.43181)
(3.47335 2.52572 2.35837)
(3.46113 2.51664 2.36457)
(3.53572 2.5428 2.41338)
(3.64866 2.5832 2.48136)
(3.76263 2.6258 2.54847)
(3.83509 2.6523 2.58767)
(3.83187 2.64023 2.57812)
(3.76297 2.59423 2.52532)
(3.64353 2.52092 2.43633)
(3.4683 2.41162 2.30908)
(3.2313 2.26443 2.13701)
(2.89934 2.05811 1.89743)
(2.44213 1.77658 1.57902)
(1.90185 1.4427 1.21514)
(1.40832 1.1359 0.901098)
(1.02714 0.89164 0.672109)
(0.813418 0.747091 0.549593)
(0.793787 0.723828 0.550279)
(0.889539 0.759544 0.629883)
(0.927033 0.735578 0.663903)
(0.909597 0.677482 0.651173)
(0.850137 0.615989 0.607418)
(0.758385 0.541715 0.540313)
(0.673352 0.467539 0.46692)
(0.617013 0.403876 0.397982)
(0.539396 0.32828 0.317064)
(0.348349 0.199174 0.192732)
(0.139094 0.082765 0.0744031)
(0.267621 0.207082 0.206605)
(0.466641 0.288714 0.332281)
(0.883429 0.657461 0.595177)
(1.11372 0.836064 0.748435)
(1.26151 0.961037 0.879617)
(1.53947 1.14683 1.08819)
(1.84725 1.33707 1.27739)
(2.03162 1.45359 1.3724)
(2.02162 1.47359 1.36552)
(1.8496 1.40966 1.29625)
(1.66629 1.30822 1.2471)
(1.60476 1.23654 1.27258)
(1.66198 1.2343 1.35225)
(1.78785 1.27757 1.42381)
(1.95013 1.35831 1.47113)
(2.13964 1.47331 1.52054)
(2.38772 1.62988 1.6116)
(2.74781 1.84581 1.77516)
(3.21317 2.12165 2.0067)
(3.59011 2.37813 2.22686)
(3.75783 2.53923 2.40022)
(3.81918 2.615 2.52823)
(3.88138 2.66273 2.62192)
(3.93923 2.69181 2.68172)
(3.98865 2.70693 2.71576)
(4.03361 2.7162 2.73173)
(4.09187 2.73398 2.73408)
(4.17069 2.76759 2.72116)
(4.19831 2.78975 2.68249)
(4.03415 2.73204 2.5831)
(3.71521 2.59377 2.43435)
(3.43504 2.4624 2.31532)
(3.24626 2.36756 2.2422)
(3.156 2.31641 2.2133)
(3.14853 2.30074 2.21407)
(3.18623 2.30396 2.22732)
(3.2344 2.30964 2.23536)
(3.26133 2.30494 2.22561)
(3.24642 2.28051 2.18915)
(3.18607 2.23517 2.12496)
(3.07988 2.16702 2.03875)
(2.93735 2.07736 1.9318)
(2.76852 1.97073 1.80228)
(2.5646 1.84042 1.64214)
(2.29751 1.67215 1.44574)
(1.89369 1.42312 1.18582)
(1.42725 1.13335 0.905761)
(1.04856 0.892487 0.688589)
(0.813757 0.733079 0.562874)
(0.735221 0.659072 0.530056)
(0.736987 0.617738 0.538861)
(0.726743 0.574835 0.5408)
(0.700721 0.536051 0.526382)
(0.657302 0.48752 0.485499)
(0.611922 0.437232 0.437495)
(0.578656 0.389473 0.391243)
(0.564213 0.349193 0.352501)
(0.49695 0.282854 0.290793)
(0.333558 0.180853 0.187055)
(0.15256 0.0886724 0.0827435)
(0.262637 0.224214 0.202703)
(0.272105 0.186133 0.221809)
(0.608872 0.474782 0.507048)
(0.786759 0.632577 0.653783)
(0.875923 0.716722 0.736855)
(0.961082 0.775441 0.792605)
(1.02707 0.80862 0.811452)
(1.13041 0.86965 0.844047)
(1.28513 0.974175 0.916284)
(1.45137 1.09842 1.01404)
(1.58092 1.21541 1.11468)
(1.69103 1.31023 1.22417)
(1.84921 1.3994 1.35559)
(2.00068 1.46401 1.44793)
(2.09978 1.49592 1.48609)
(2.19581 1.52839 1.5109)
(2.33002 1.59285 1.54577)
(2.60834 1.75568 1.65366)
(3.08369 2.0305 1.8711)
(3.5994 2.33594 2.1306)
(3.87619 2.55242 2.34644)
(3.91396 2.64493 2.49317)
(3.90207 2.66133 2.56784)
(3.94149 2.67981 2.61984)
(4.02426 2.71181 2.66336)
(4.09562 2.73505 2.67825)
(4.10317 2.72946 2.64665)
(3.99451 2.67021 2.55774)
(3.76128 2.5499 2.42137)
(3.4854 2.40934 2.27887)
(3.24894 2.28753 2.16286)
(3.08603 2.19753 2.08222)
(3.00045 2.14417 2.03684)
(2.98005 2.12208 2.0195)
(3.00246 2.12187 2.02025)
(3.03305 2.12684 2.02381)
(3.04139 2.11962 2.01205)
(3.00397 2.08556 1.97093)
(2.90415 2.01699 1.89157)
(2.73632 1.91304 1.77514)
(2.53739 1.79349 1.64681)
(2.34527 1.67845 1.52108)
(2.15683 1.56659 1.39298)
(1.96193 1.44905 1.25409)
(1.74324 1.31368 1.10165)
(1.47913 1.1479 0.934541)
(1.19185 0.963598 0.764697)
(0.941545 0.797431 0.623603)
(0.764978 0.670731 0.532565)
(0.671601 0.585075 0.489414)
(0.626603 0.519833 0.466367)
(0.593086 0.465939 0.444858)
(0.567462 0.424834 0.418801)
(0.547975 0.389609 0.389241)
(0.534412 0.356091 0.360848)
(0.534889 0.323916 0.339983)
(0.538506 0.29253 0.324167)
(0.452302 0.233638 0.264326)
(0.282813 0.146484 0.158943)
(0.125528 0.0732497 0.0691069)
(0.27906 0.230354 0.19464)
(0.335844 0.251229 0.257621)
(0.598887 0.458422 0.485086)
(0.827269 0.64017 0.663362)
(1.07336 0.809309 0.826196)
(1.38974 0.996884 0.987476)
(1.73647 1.19866 1.16511)
(2.02853 1.38882 1.34295)
(2.17369 1.52674 1.49828)
(2.17977 1.59382 1.62034)
(2.24025 1.66116 1.73814)
(2.42298 1.77711 1.84963)
(2.70425 1.9301 1.9526)
(2.99118 2.07343 2.04407)
(3.24302 2.20782 2.13884)
(3.51345 2.37116 2.27215)
(3.8317 2.56494 2.42538)
(4.19194 2.76604 2.55828)
(4.54733 2.94876 2.69013)
(4.64258 2.99151 2.76895)
(4.38387 2.88116 2.74452)
(4.10709 2.76446 2.68605)
(3.97984 2.70147 2.64254)
(3.942 2.67026 2.60882)
(3.94034 2.64965 2.57362)
(3.9202 2.61706 2.52158)
(3.80381 2.53895 2.43358)
(3.58081 2.41457 2.31872)
(3.3382 2.28629 2.20722)
(3.15205 2.18676 2.11365)
(3.03796 2.12184 2.04526)
(2.9707 2.07611 1.99488)
(2.93511 2.04372 1.95909)
(2.90807 2.015 1.92686)
(2.8545 1.97089 1.88457)
(2.77191 1.91075 1.82842)
(2.67223 1.84172 1.75895)
(2.55126 1.76229 1.6732)
(2.40277 1.66806 1.56959)
(2.2345 1.56335 1.45681)
(2.05874 1.45651 1.34243)
(1.89089 1.35766 1.23054)
(1.72968 1.26656 1.12125)
(1.56376 1.17235 1.01008)
(1.39569 1.07078 0.900818)
(1.21966 0.95575 0.790037)
(1.0422 0.834674 0.684686)
(0.877848 0.72068 0.597203)
(0.752483 0.624847 0.542156)
(0.689389 0.55267 0.52054)
(0.671467 0.503299 0.508879)
(0.649319 0.466455 0.486714)
(0.614544 0.430285 0.450764)
(0.581448 0.395944 0.411432)
(0.553842 0.361525 0.372703)
(0.545341 0.328208 0.343199)
(0.543121 0.293339 0.321174)
(0.443273 0.227905 0.253139)
(0.265202 0.138304 0.146993)
(0.113029 0.0661023 0.0632428)
(0.247172 0.175126 0.185058)
(0.310085 0.243781 0.232852)
(0.4981 0.392288 0.357733)
(0.764967 0.586616 0.5405)
(1.11797 0.833338 0.776584)
(1.40756 1.0361 0.976833)
(1.59044 1.17285 1.13447)
(1.73527 1.28361 1.27731)
(1.88207 1.4018 1.41931)
(2.09515 1.55577 1.55811)
(2.40381 1.76625 1.72815)
(2.81571 2.03169 1.95268)
(3.31768 2.33856 2.22874)
(3.856 2.6496 2.51633)
(4.2881 2.87776 2.72509)
(4.49341 2.96063 2.79771)
(4.5118 2.92325 2.76296)
(4.41019 2.82619 2.69556)
(4.22198 2.71321 2.64956)
(3.96045 2.59237 2.61268)
(3.73305 2.49248 2.54581)
(3.65681 2.45732 2.49492)
(3.66338 2.45642 2.47378)
(3.6625 2.44316 2.44917)
(3.5994 2.39112 2.39179)
(3.45427 2.29779 2.29575)
(3.23973 2.17568 2.17398)
(3.01498 2.05391 2.05642)
(2.84334 1.96031 1.96889)
(2.75334 1.90692 1.92194)
(2.72903 1.8871 1.90808)
(2.74196 1.88841 1.91298)
(2.78446 1.91218 1.93435)
(2.83685 1.94797 1.96277)
(2.88472 1.98092 1.98702)
(2.89768 1.98816 1.98232)
(2.84966 1.95621 1.93738)
(2.74134 1.88641 1.85464)
(2.58683 1.78716 1.74479)
(2.4005 1.66734 1.61748)
(2.18797 1.53197 1.47218)
(1.95293 1.38287 1.31299)
(1.70785 1.2258 1.15629)
(1.47807 1.0745 1.02216)
(1.28206 0.942117 0.915737)
(1.12764 0.834667 0.835624)
(1.00011 0.744799 0.774627)
(0.907666 0.674544 0.747588)
(0.893562 0.639747 0.76961)
(0.976562 0.65147 0.824406)
(1.0272 0.658379 0.833038)
(0.972161 0.625199 0.768346)
(0.858981 0.556419 0.659859)
(0.742676 0.480663 0.54912)
(0.649868 0.412297 0.455777)
(0.591012 0.352489 0.385251)
(0.557118 0.301586 0.335209)
(0.441658 0.229391 0.252035)
(0.239932 0.127062 0.131956)
(0.08382 0.0497862 0.0479495)
(0.132392 0.0789155 0.0817429)
(0.122558 0.0963825 0.0889717)
(0.18729 0.148541 0.135)
(0.271422 0.214021 0.194668)
(0.379912 0.296331 0.272562)
(0.506146 0.391251 0.368745)
(0.642619 0.490153 0.471242)
(0.795456 0.595949 0.577586)
(0.925436 0.681472 0.653588)
(1.08863 0.789359 0.740049)
(1.30046 0.930739 0.855679)
(1.58263 1.11692 1.02169)
(1.92511 1.33706 1.23521)
(2.26052 1.5451 1.45369)
(2.49843 1.6818 1.61215)
(2.62689 1.74199 1.69795)
(2.67544 1.75023 1.74456)
(2.66604 1.73632 1.78846)
(2.55887 1.67937 1.78262)
(2.37208 1.57723 1.68618)
(2.20518 1.47879 1.55549)
(2.1653 1.45548 1.49967)
(2.19041 1.47316 1.5003)
(2.19009 1.47284 1.49433)
(2.122 1.42908 1.44982)
(1.9779 1.3374 1.35915)
(1.78217 1.2121 1.23619)
(1.59045 1.08559 1.11394)
(1.44668 0.985328 1.01941)
(1.37557 0.930382 0.970599)
(1.35268 0.909148 0.952735)
(1.3676 0.917329 0.959186)
(1.39402 0.936005 0.973326)