/*--------------------------------*- C++ -*----------------------------------*\
| =========                 |                                                 |
| \\      /  F ield         | OpenFOAM: The Open Source CFD Toolbox           |
|  \\    /   O peration     | Version:  2.1.1                                 |
|   \\  /    A nd           | Web:      www.OpenFOAM.org                      |
|    \\/     M anipulation  |                                                 |
\*---------------------------------------------------------------------------*/
FoamFile
{
    version     2.0;
    format      ascii;
    class       volVectorField;
    location    "0.0013";
    object      gradAlphaUSE;
}
// * * * * * * * * * * * * * * * * * * * * * * * * * * * * * * * * * * * * * //

dimensions      [0 0 0 0 0 0 0];

internalField   nonuniform List<vector> 
36520
(
(-9.1478e-05 7.5068e-05 0.000201478)
(-8.84143e-05 5.04801e-05 0.000243514)
(6.03283e-06 7.37413e-05 0.000269777)
(8.06248e-06 9.93605e-05 0.000311247)
(1.10301e-05 0.00013482 0.000361012)
(1.22529e-05 0.000173307 0.000405359)
(1.28483e-05 0.000211289 0.000446711)
(1.3553e-05 0.000249999 0.000489319)
(1.51999e-05 0.000290836 0.000538884)
(1.89454e-05 0.00033842 0.000604191)
(2.50452e-05 0.0004005 0.000701482)
(3.34796e-05 0.000481739 0.000840059)
(4.352e-05 0.000589554 0.00103416)
(5.39883e-05 0.000721261 0.00127786)
(6.42171e-05 0.000876176 0.00155681)
(6.38353e-05 0.00104918 0.00183379)
(4.27019e-05 0.00117045 0.00209946)
(1.98494e-05 0.00121356 0.00236107)
(1.71168e-05 0.00122069 0.00262505)
(3.48728e-05 0.00124756 0.00288295)
(6.0625e-05 0.0013409 0.00310947)
(8.28479e-05 0.00149642 0.00329036)
(9.50551e-05 0.00169736 0.00338404)
(9.56748e-05 0.00192202 0.00336412)
(9.05222e-05 0.0021459 0.00317681)
(8.49711e-05 0.00234509 0.002833)
(8.58689e-05 0.00251326 0.00235019)
(0.000101919 0.00266548 0.00177654)
(0.000145895 0.00284946 0.00118464)
(0.000226531 0.00314687 0.000642541)
(0.000338507 0.00365439 0.00017345)
(0.000460679 0.0044444 -0.000248012)
(0.000560328 0.00552387 -0.000670075)
(0.000602428 0.00681777 -0.00112267)
(0.0005617 0.00817557 -0.00158707)
(0.000430308 0.00939499 -0.00200964)
(0.000217253 0.0102522 -0.00233359)
(-5.18211e-05 0.0105217 -0.00252043)
(-0.000349736 0.0100341 -0.00256147)
(-0.000658483 0.00867547 -0.00246539)
(-0.000943977 0.00641725 -0.00226609)
(-0.00110942 0.00342891 -0.00213806)
(-0.00102556 0.000108746 -0.00309727)
(-0.000755428 -0.00635171 -0.0343704)
(-0.00217031 -0.0347576 -0.139615)
(-0.00321357 -0.0742698 -0.311628)
(-0.0017534 -0.104403 -0.500822)
(-0.000406288 -0.125147 -0.654878)
(0.000328514 -0.129547 -0.754222)
(0.000810397 -0.10666 -0.801862)
(0.000809896 -0.0917788 -0.808802)
(0.00139704 -0.0645728 -0.565368)
(0.00765116 -0.0191648 -0.170564)
(0.0125265 0.0143653 -0.0178034)
(0.00135396 0.0338645 0.0873126)
(-0.00872651 0.0252042 0.114744)
(-0.00874176 0.0109744 0.0592285)
(-0.00411803 0.00421771 0.0231604)
(-0.00122193 0.000628493 0.00338783)
(-0.000122163 4.21151e-05 0.000230202)
(-7.14838e-05 0.000382046 0.00059166)
(-5.59163e-05 0.000493476 0.000639989)
(3.82899e-05 0.00058338 0.000663668)
(5.15203e-05 0.000707675 0.000700178)
(5.58381e-05 0.000838745 0.000726665)
(5.30377e-05 0.000965394 0.000728993)
(5.28003e-05 0.00108577 0.000715034)
(5.74199e-05 0.00120796 0.000692104)
(6.98886e-05 0.00134872 0.000671834)
(9.63834e-05 0.00153128 0.000662305)
(0.000137402 0.0017972 0.000691201)
(0.000191961 0.00217773 0.000764054)
(0.000252056 0.00270474 0.000883596)
(0.000302883 0.00334667 0.00101727)
(0.00032886 0.00404767 0.00114269)
(0.000322128 0.00472455 0.00123342)
(0.000293847 0.00521108 0.00115575)
(0.00027036 0.00562972 0.00100136)
(0.000265831 0.00621034 0.000960338)
(0.000265512 0.00688871 0.000905179)
(0.00025424 0.00765412 0.000792304)
(0.000212858 0.00846286 0.000650157)
(0.00012921 0.00922701 0.000457676)
(-3.96778e-06 0.00981919 0.00019561)
(-0.000163057 0.0101668 -0.000260384)
(-0.000308794 0.0102448 -0.000954486)
(-0.00041671 0.0102104 -0.00122787)
(-0.000452189 0.0101079 -0.00140423)
(-0.000393385 0.0100534 -0.00160531)
(-0.000255282 0.0101947 -0.00179273)
(-8.75553e-05 0.010552 -0.00208911)
(5.50608e-05 0.0110147 -0.00251685)
(0.000138219 0.0113914 -0.00306637)
(0.000159184 0.0115204 -0.00369168)
(0.000132742 0.0113337 -0.00431451)
(6.93729e-05 0.010836 -0.00484071)
(-2.90801e-05 0.0100072 -0.00517605)
(-0.000160133 0.00877106 -0.00524175)
(-0.000319593 0.00705122 -0.00499418)
(-0.000510367 0.00484105 -0.00442685)
(-0.000777353 0.00199278 -0.00488669)
(-0.00147692 -0.00263394 -0.0155842)
(-0.016074 -0.0124884 -0.049766)
(-0.0619705 -0.0750558 -0.16995)
(-0.0776997 -0.212617 -0.576667)
(-0.0392672 -0.255875 -0.867837)
(-0.0194542 -0.255194 -0.938813)
(-0.00975925 -0.250129 -0.958523)
(-0.0033671 -0.236545 -0.968368)
(-0.000752034 -0.224079 -0.973162)
(0.00129801 -0.218218 -0.974925)
(0.00203198 -0.202623 -0.978198)
(0.00216116 -0.192393 -0.977774)
(0.0172487 -0.17002 -0.873495)
(0.0631693 0.108255 -0.00781992)
(-0.017898 0.133409 0.273312)
(-0.0464415 0.0708275 0.209681)
(-0.0292835 0.035693 0.0928375)
(-0.0120874 0.00782637 0.0235403)
(-0.00162932 0.000679779 0.00196529)
(-6.5831e-05 0.00106167 0.000621409)
(-5.02499e-05 0.00112568 0.000496943)
(3.75547e-05 0.00128538 0.000424959)
(4.13876e-05 0.00149028 0.000342539)
(2.81518e-05 0.00168723 0.000248081)
(1.00649e-05 0.00189708 0.000147392)
(-1.36395e-06 0.00211695 3.28049e-05)
(-3.38045e-06 0.00233143 -0.000148274)
(5.39938e-06 0.00255852 -0.000449615)
(3.40216e-05 0.00284164 -0.000819353)
(8.1624e-05 0.00331932 -0.00106119)
(0.000136276 0.00398211 -0.00127316)
(0.000178428 0.00484454 -0.00156465)
(0.000193894 0.0058072 -0.00192211)
(0.00018422 0.00674232 -0.00232284)
(8.52227e-05 0.00755198 -0.00272238)
(-5.45861e-05 0.00701498 -0.00393744)
(-5.85523e-05 0.00522377 -0.00702347)
(-1.10944e-05 0.00507393 -0.00877487)
(-2.51962e-05 0.00548395 -0.00996105)
(-3.93828e-05 0.00562041 -0.0113528)
(-5.54275e-05 0.00548024 -0.0130256)
(-0.000103112 0.00512266 -0.014742)
(-0.000231733 0.00424714 -0.0173653)
(-0.000441241 0.000578295 -0.0293022)
(-0.000349693 -0.0128876 -0.0756898)
(-0.000114968 -0.0310871 -0.138909)
(-6.78679e-05 -0.0459424 -0.192433)
(-3.29277e-05 -0.060437 -0.246586)
(-4.15092e-06 -0.0771803 -0.309172)
(-5.04088e-06 -0.0955863 -0.377869)
(-5.95985e-06 -0.114592 -0.44878)
(-6.78197e-06 -0.131604 -0.51233)
(-7.36216e-06 -0.143486 -0.557292)
(-7.60634e-06 -0.148047 -0.576324)
(-7.59036e-06 -0.146859 -0.575313)
(-7.41433e-06 -0.14223 -0.562123)
(-7.06482e-06 -0.134086 -0.535956)
(-1.00614e-05 -0.122394 -0.49682)
(-0.000370426 -0.105622 -0.441029)
(-0.00392436 -0.085395 -0.379467)
(-0.0158498 -0.0621711 -0.330504)
(-0.0651164 -0.0594327 -0.301342)
(-0.333607 -0.194197 -0.35326)
(-0.640341 -0.361038 -0.427566)
(-0.6304 -0.447469 -0.569649)
(-0.460924 -0.533589 -0.694418)
(-0.348629 -0.578091 -0.734088)
(-0.233841 -0.598625 -0.765077)
(-0.0840879 -0.552295 -0.8291)
(-0.00759539 -0.43414 -0.900738)
(0.00983243 -0.36845 -0.929565)
(0.0158778 -0.313035 -0.949571)
(0.0271557 -0.277436 -0.960149)
(0.0679396 -0.252974 -0.947294)
(0.0735067 0.367429 0.127771)
(-0.0859648 0.233591 0.337491)
(-0.0994427 0.125981 0.0892038)
(-0.0440841 0.0448907 0.0940924)
(-0.0105531 0.00485733 0.0099108)
(-0.000125414 0.00137177 4.0762e-05)
(-0.0001378 0.00170191 -0.000260371)
(-2.17406e-05 0.00214642 -0.000608663)
(-1.8994e-05 0.00280008 -0.00102642)
(-2.38288e-05 0.00367173 -0.00115601)
(-3.56092e-05 0.00458554 -0.00126848)
(-7.33381e-05 0.00532055 -0.00148807)
(-0.000155497 0.00558163 -0.00256627)
(-0.000228906 0.00585706 -0.00367723)
(-0.000167793 0.00614318 -0.00487639)
(-4.271e-05 0.00696474 -0.00634843)
(-4.42632e-07 0.00759685 -0.0114544)
(-5.64088e-07 0.00814519 -0.0205545)
(-8.57045e-07 0.000712451 -0.0570103)
(-1.49339e-06 -0.0314028 -0.166708)
(-0.000311431 -0.0677726 -0.284604)
(-0.00110161 -0.098904 -0.381239)
(-0.000983025 -0.144091 -0.50898)
(-0.000403981 -0.181675 -0.617943)
(-0.000277356 -0.201964 -0.683068)
(-0.00028095 -0.219356 -0.740331)
(-0.000252729 -0.235684 -0.792259)
(-0.00026157 -0.249564 -0.835275)
(-0.000698312 -0.259765 -0.866246)
(-0.00233921 -0.265513 -0.884989)
(-0.00419607 -0.2667 -0.89438)
(-0.0047678 -0.264783 -0.898556)
(-0.00478968 -0.263208 -0.902861)
(-0.00531154 -0.264359 -0.910231)
(-0.00583715 -0.267482 -0.919324)
(-0.00585109 -0.272064 -0.9287)
(-0.00533583 -0.276343 -0.936033)
(-0.00427672 -0.279094 -0.940544)
(-0.00261942 -0.280259 -0.942774)
(-0.000771509 -0.280622 -0.943524)
(0.000701822 -0.278395 -0.942209)
(0.0021764 -0.276333 -0.939092)
(0.00390701 -0.275169 -0.934512)
(0.00591264 -0.276055 -0.927732)
(0.00785202 -0.277218 -0.917015)
(0.00883405 -0.273006 -0.898716)
(0.00764232 -0.262404 -0.869795)
(-0.017523 -0.260463 -0.838624)
(-0.163533 -0.310739 -0.800008)
(-0.41876 -0.563343 -0.625008)
(-0.457619 -0.840942 -0.234839)
(-0.411786 -0.902704 -0.0955774)
(-0.399012 -0.906018 -0.134429)
(-0.456229 -0.846195 -0.274233)
(-0.445307 -0.786363 -0.428001)
(-0.23954 -0.847765 -0.473161)
(-0.0334602 -0.83513 -0.549024)
(0.0570572 -0.704492 -0.707408)
(0.078721 -0.5213 -0.849728)
(0.0620231 -0.365633 -0.928661)
(0.00349153 -0.302326 -0.953059)
(-9.07627e-05 -0.301501 -0.952736)
(-0.0198245 -0.237307 -0.893888)
(-0.0464077 0.149996 0.216958)
(-0.0449127 0.0211538 0.0334998)
(-0.000187956 0.00224621 -0.000853979)
(-0.000312071 0.00430044 -0.00134932)
(-0.000264808 0.0067635 -0.00397938)
(-0.000139882 0.00857481 -0.0132229)
(-6.97706e-07 0.010034 -0.0256708)
(-6.36579e-05 0.0142859 -0.0336865)
(-0.000532646 0.0174506 -0.044426)
(-0.000947924 0.0186719 -0.0586027)
(-0.000997072 0.0225421 -0.0664659)
(-0.00110326 0.0302192 -0.0848291)
(-0.00245536 0.0114625 -0.192245)
(-0.00321414 -0.100996 -0.512207)
(-0.00335727 -0.238381 -0.820192)
(-0.0035995 -0.287282 -0.913842)
(-0.00292652 -0.299703 -0.935207)
(-0.00229654 -0.303169 -0.941152)
(-0.00535513 -0.295422 -0.938075)
(-0.0163664 -0.271288 -0.930232)
(-0.0153328 -0.289195 -0.931229)
(-0.0137869 -0.304221 -0.93247)
(-0.0164461 -0.302684 -0.936482)
(-0.019532 -0.298891 -0.940962)
(-0.0199028 -0.297225 -0.944881)
(-0.0164053 -0.297204 -0.947659)
(-0.0106941 -0.29687 -0.949474)
(-0.00528749 -0.296399 -0.950539)
(-0.00319196 -0.296644 -0.950983)
(-0.00540217 -0.29692 -0.951236)
(-0.0101125 -0.296557 -0.951524)
(-0.0169933 -0.29576 -0.951826)
(-0.0240845 -0.294606 -0.952277)
(-0.0247067 -0.294746 -0.952671)
(-0.0177141 -0.29625 -0.952829)
(-0.00866543 -0.298042 -0.952728)
(0.00264259 -0.298981 -0.952617)
(0.0120117 -0.299054 -0.952497)
(0.0150043 -0.300314 -0.951846)
(0.0151836 -0.299063 -0.951971)
(0.0157802 -0.297426 -0.952201)
(0.0167113 -0.297339 -0.952032)
(0.0151895 -0.299112 -0.951393)
(0.010428 -0.301391 -0.950525)
(0.00412093 -0.302786 -0.949899)
(-0.0109124 -0.29727 -0.950504)
(-0.054882 -0.307104 -0.945167)
(-0.125397 -0.370705 -0.916637)
(-0.237731 -0.444694 -0.861689)
(-0.414238 -0.481217 -0.771727)
(-0.611873 -0.494783 -0.616791)
(-0.667137 -0.516518 -0.536702)
(-0.406357 -0.739308 -0.536919)
(-0.103358 -0.949864 -0.29508)
(-0.00775572 -0.942349 -0.334541)
(0.0425695 -0.765728 -0.641754)
(0.0502037 -0.498445 -0.865466)
(0.0212005 -0.323741 -0.945907)
(0.0193143 -0.311493 -0.950046)
(0.108861 -0.310833 -0.944034)
(0.846113 0.0714038 0.0403131)
(-0.118419 0.0595671 0.0745121)
(-0.000225072 -0.000405986 -0.0142631)
(-0.00118851 -0.0210738 -0.106187)
(-0.00432691 -0.0371443 -0.205612)
(-0.0076777 -0.0228676 -0.268788)
(-0.00710952 0.0158618 -0.305595)
(-0.00555707 0.00812733 -0.436187)
(-0.00569458 -0.0330263 -0.583414)
(-0.00298124 -0.12088 -0.755811)
(-0.00200849 -0.18201 -0.852047)
(-0.00564182 -0.218381 -0.904647)
(-0.0138849 -0.251988 -0.937449)
(-0.0273837 -0.295498 -0.943996)
(-0.038591 -0.370217 -0.924003)
(-0.0370782 -0.507653 -0.858858)
(-0.023932 -0.691933 -0.720467)
(-0.00114684 -0.757373 -0.652198)
(0.0161523 -0.715793 -0.697242)
(0.0163502 -0.509873 -0.858066)
(-0.0324809 -0.290479 -0.952644)
(-0.0327647 -0.318455 -0.944171)
(-0.0339114 -0.345484 -0.934975)
(-0.0505679 -0.369216 -0.925302)
(-0.0738567 -0.384032 -0.917869)
(-0.0819578 -0.397401 -0.911747)
(-0.0694073 -0.40634 -0.9091)
(-0.0521625 -0.408073 -0.909629)
(-0.0382061 -0.395939 -0.915849)
(-0.0236004 -0.372229 -0.926569)
(-0.0137176 -0.357415 -0.932861)
(-0.0146009 -0.353943 -0.934318)
(-0.0278265 -0.355029 -0.933699)
(-0.0439703 -0.355554 -0.932946)
(-0.0495063 -0.355779 -0.93263)
(-0.0360201 -0.361116 -0.93125)
(-0.00960257 -0.3806 -0.924173)
(0.0165381 -0.393451 -0.918716)
(0.0267602 -0.40701 -0.912583)
(0.0234628 -0.435853 -0.899262)
(0.0182086 -0.457208 -0.88866)
(0.0123102 -0.485598 -0.873448)
(0.012678 -0.512914 -0.857639)
(0.0132113 -0.500079 -0.865279)
(0.0194023 -0.399438 -0.916142)
(0.0148499 -0.336251 -0.941363)
(-0.00838793 -0.32664 -0.944797)
(-0.0457416 -0.323921 -0.944734)
(-0.101787 -0.313993 -0.943773)
(-0.170374 -0.295501 -0.93993)
(-0.298451 -0.286641 -0.910319)
(-0.694852 -0.200291 -0.690674)
(-0.944321 -0.0789956 -0.31938)
(-0.731553 -0.669753 -0.127504)
(-0.115892 -0.964096 -0.238931)
(-0.0200151 -0.704026 -0.709892)
(0.0173308 -0.507997 -0.861185)
(0.0493338 -0.380811 -0.923336)
(0.137683 -0.317844 -0.938093)
(0.643554 -0.231342 -0.729592)
(0.999584 -0.00269447 -0.0100198)
(-0.121736 0.12834 0.10513)
(-0.0480218 -0.0121122 -0.0662462)
(-0.0989855 -0.00608985 -0.166455)
(-0.0933319 0.123163 -0.196199)
(-0.0489715 0.396654 -0.216407)
(-0.0769684 0.615056 -0.0102057)
(-0.143053 0.688265 -0.0166518)
(-0.0142228 -0.200694 -0.967701)
(-0.0104133 -0.220214 -0.971307)
(-0.0159561 -0.441882 -0.89331)
(-0.0298682 -0.4991 -0.863326)
(-0.050582 -0.483619 -0.872324)
(-0.0589348 -0.528437 -0.846268)
(-0.0528363 -0.75579 -0.652323)
(-0.0267605 -0.980234 -0.19566)
(-0.00937278 -0.999009 0.0430281)
(-0.00149533 -0.995596 0.0936089)
(0.00585099 -0.99605 0.0884608)
(0.0127071 -0.99753 0.0687094)
(0.0215578 -0.991312 -0.12808)
(-0.0453923 -0.286038 -0.956034)
(-0.0325062 -0.251938 -0.966209)
(-0.0225839 -0.265551 -0.962964)
(-0.0287442 -0.279992 -0.958807)
(-0.036433 -0.293869 -0.954449)
(-0.0330515 -0.338329 -0.939761)
(-0.0346193 -0.449287 -0.892004)
(-0.0726253 -0.572475 -0.815955)
(-0.111234 -0.61561 -0.779459)
(-0.10184 -0.548565 -0.829297)
(-0.073146 -0.433774 -0.897577)
(-0.0540811 -0.312142 -0.948119)
(-0.0399699 -0.246677 -0.967963)
(-0.0362623 -0.280014 -0.95904)
(-0.0344196 -0.625019 -0.779608)
(-0.0173671 -0.826696 -0.562208)
(-0.00982034 -0.641858 -0.766675)
(-0.00433038 -0.49905 -0.866495)
(0.0095522 -0.257714 -0.966104)
(0.0294529 -0.187569 -0.981723)
(0.0250179 -0.257996 -0.965727)
(-0.0052734 -0.305268 -0.952158)
(-0.0426334 -0.242161 -0.96921)
(-0.0739708 -0.191186 -0.978675)
(-0.0339921 -0.223822 -0.973943)
(-0.0348988 -0.554459 -0.831362)
(-0.112596 -0.727015 -0.677191)
(-0.281976 -0.653403 -0.702409)
(-0.54582 -0.366604 -0.753365)
(-0.678286 0.0629335 -0.732048)
(-0.659174 0.695045 -0.286971)
(-0.543737 0.716273 0.437364)
(-0.885336 0.364166 0.28907)
(-0.991212 0.0884685 0.0983475)
(-0.458052 -0.759472 -0.461942)
(-0.00372559 -0.563531 -0.826087)
(0.13512 -0.500113 -0.855354)
(0.4804 -0.429657 -0.764598)
(0.962937 -0.134794 -0.233626)
(0.999708 -0.00886465 -0.0214858)
(0.931819 0.023854 -0.000862535)
(-0.0618796 0.0142275 0.00619761)
(-0.0732784 0.136173 0.0735781)
(-0.0507446 0.426732 0.115267)
(0.0346182 0.719215 0.0804479)
(0.000420903 -0.970581 0.239354)
(-0.00231761 -0.970704 0.240015)
(-0.00312636 -0.970537 0.240822)
(-0.00242034 -0.976147 0.216981)
(-0.00263174 -0.99015 0.139713)
(-0.0247865 -0.883593 -0.467358)
(-0.0434808 -0.18303 -0.982078)
(-0.0298251 -0.161836 -0.986345)
(-0.0142227 -0.203439 -0.978977)
(-0.00727789 -0.380844 -0.924606)
(-0.0033254 -0.873036 -0.487638)
(-0.000417164 -0.999997 -0.00170845)
(0.00270963 -0.986929 0.161125)
(0.00739301 -0.981136 0.193167)
(0.0161765 -0.9968 0.0781707)
(0.0111556 -0.522581 -0.852452)
(-0.00983665 -0.147758 -0.988904)
(-0.0170005 -0.0902362 -0.995682)
(-0.0246925 -0.0446096 -0.998563)
(-0.0213297 -0.0198356 -0.999407)
(-0.00838499 -0.0114534 -0.999729)
(-0.0015302 -0.0400088 -0.999018)
(-0.0126272 -0.130464 -0.991178)
(-0.038614 -0.238651 -0.970142)
(-0.0579624 -0.287268 -0.955918)
(-0.0669813 -0.301951 -0.950817)
(-0.0704351 -0.301024 -0.950882)
(-0.0637902 -0.248475 -0.966427)
(-0.0670282 -0.17723 -0.981798)
(-0.126204 -0.121459 -0.984471)
(-0.241076 -0.0979726 -0.965492)
(-0.203584 -0.0778057 -0.975916)
(-0.0257486 -0.0536878 -0.998188)
(0.0719279 -0.0350033 -0.996765)
(0.0494508 -0.0365033 -0.998084)
(0.00645262 -0.0459136 -0.998903)
(-0.00587758 -0.0475769 -0.998831)
(-0.00241964 -0.0300486 -0.999528)
(0.00803417 0.00772352 -0.999921)
(0.0201647 0.0313785 -0.999287)
(0.0207474 0.0727925 -0.997113)
(-0.00076095 0.18834 -0.982079)
(-0.11025 0.549838 -0.827915)
(-0.30354 0.945561 -0.117015)
(-0.165854 0.890793 0.422968)
(0.0611658 0.600086 0.797563)
(-0.00325454 0.504246 0.863537)
(-0.290847 0.486944 0.823579)
(-0.932943 0.197364 0.301104)
(-0.981303 0.0511073 0.185558)
(-0.324087 -0.678858 -0.658877)
(0.36885 -0.685253 -0.627995)
(0.7649 -0.523483 -0.375358)
(0.972636 -0.195856 -0.124975)
(0.998552 -0.0413885 -0.0341717)
(0.998185 0.00217689 0.00177025)
(0.000730807 -0.920732 -0.390182)
(0.000730865 -0.920817 -0.389983)
(0.000730926 -0.9209 -0.389787)
(0.00073099 -0.920982 -0.389591)
(0.000731039 -0.92107 -0.389391)
(0.000730818 -0.920662 -0.390359)
(0.000353249 -0.92012 -0.391633)
(-0.00172679 -0.918792 -0.394733)
(-0.0161864 -0.910265 -0.413694)
(-0.0359142 -0.905059 -0.423755)
(-0.0473782 -0.907897 -0.416501)
(-0.0348591 -0.914606 -0.402839)
(-0.0164285 -0.917822 -0.396652)
(-0.00500737 -0.9172 -0.398396)
(0.00408797 -0.914702 -0.404109)
(0.0125367 -0.912855 -0.408091)
(0.0159252 -0.913039 -0.407562)
(0.00827984 -0.916367 -0.400252)
(0.00279038 -0.917387 -0.397985)
(0.0020198 -0.917401 -0.397958)
(0.002107 -0.917404 -0.39795)
(0.0021599 -0.917406 -0.397945)
(0.00170384 -0.917393 -0.397978)
(0.00102717 -0.917554 -0.397609)
(0.000784359 -0.918037 -0.396493)
(0.000857714 -0.919124 -0.393966)
(0.000700214 -0.920459 -0.390837)
(-0.000428227 -0.919789 -0.392408)
(-0.004859 -0.914238 -0.405136)
(-0.0073082 -0.908992 -0.416735)
(-0.00818423 -0.902487 -0.430625)
(-0.0102503 -0.898028 -0.439808)
(-0.0105987 -0.898395 -0.439052)
(-0.0081892 -0.902927 -0.42971)
(-0.00524579 -0.909503 -0.415662)
(-0.00297316 -0.91594 -0.401303)
(-0.00173424 -0.919149 -0.393905)
(-0.00124351 -0.920347 -0.391101)
(-0.00116709 -0.920537 -0.390654)
(-0.00110243 -0.920455 -0.390847)
(-0.000792004 -0.920465 -0.390823)
(-0.000325713 -0.920512 -0.390713)
(0.000305407 -0.920445 -0.390871)
(0.00148715 -0.920459 -0.390836)
(0.00362669 -0.920801 -0.390015)
(0.0063487 -0.921638 -0.387999)
(0.0073822 -0.922637 -0.385597)
(0.00454609 -0.923355 -0.383918)
(0.00139913 -0.924506 -0.381163)
(0.000735234 -0.924382 -0.381466)
(0.000734291 -0.924477 -0.381235)
(-0.0243546 -0.931815 -0.362111)
(-0.973565 -0.210463 -0.0887491)
(-0.992597 -0.0569635 0.10727)
(-0.704432 -0.709129 0.0301951)
(0.399121 -0.873395 -0.279076)
(0.659996 -0.676199 -0.327353)
(0.918462 -0.351571 -0.181178)
(0.994578 -0.091637 -0.0491087)
(0.999726 0.00147671 0.000912028)
(0.000674932 -0.973611 -0.228206)
(0.000674902 -0.97348 -0.228766)
(0.000674876 -0.973348 -0.229328)
(0.000674851 -0.973216 -0.229889)
(-0.000165737 -0.973084 -0.230447)
(-0.000295254 -0.972977 -0.2309)
(0.000273876 -0.972861 -0.23139)
(0.000559714 -0.972775 -0.23175)
(-0.000751115 -0.972844 -0.231457)
(-0.0155127 -0.97426 -0.224884)
(-0.0421068 -0.975987 -0.213707)
(-0.0452569 -0.976392 -0.211208)
(-0.026598 -0.972271 -0.23234)
(-0.0111311 -0.966606 -0.256024)
(-0.00236011 -0.963271 -0.268521)
(0.00612724 -0.962715 -0.270447)
(0.011932 -0.966287 -0.25719)
(0.0101014 -0.97106 -0.238621)
(0.00266728 -0.971923 -0.235284)
(0.000707779 -0.971617 -0.236559)
(0.000573228 -0.971225 -0.238164)
(0.000600834 -0.970815 -0.23983)
(0.000824317 -0.970484 -0.241165)
(0.00138811 -0.970266 -0.242036)
(0.00230449 -0.970148 -0.242501)
(0.00302134 -0.97008 -0.242765)
(0.00250886 -0.970007 -0.243062)
(0.00119428 -0.969947 -0.243314)
(-6.62984e-05 -0.9699 -0.243501)
(-0.0031487 -0.969776 -0.243973)
(-0.00780525 -0.967706 -0.251954)
(-0.00846731 -0.967266 -0.253617)
(-0.00937753 -0.969034 -0.246744)
(-0.00874295 -0.970472 -0.241049)
(-0.00537032 -0.970608 -0.240602)
(-0.00200741 -0.970088 -0.242743)
(-0.000327995 -0.969572 -0.244804)
(0.000197387 -0.969347 -0.245694)
(0.000304963 -0.969346 -0.245698)
(0.00036579 -0.969402 -0.245479)
(0.000460314 -0.969445 -0.245307)
(0.000496805 -0.969426 -0.245383)
(0.000758459 -0.969307 -0.245853)
(0.00146262 -0.969104 -0.246646)
(0.00233784 -0.968797 -0.247846)
(0.00287295 -0.96843 -0.24927)
(0.00238052 -0.968043 -0.250771)
(0.000938703 -0.967303 -0.25362)
(0.00029137 -0.966841 -0.255378)
(0.00099769 -0.966566 -0.256415)
(0.00365921 -0.966702 -0.255876)
(-0.0133639 -0.966881 -0.254876)
(-0.88375 -0.444713 -0.145658)
(-0.949081 -0.262312 -0.174465)
(-0.493939 -0.868093 -0.0493821)
(0.316286 -0.94754 0.0461624)
(0.576775 -0.816057 -0.0371574)
(0.89209 -0.448785 -0.0526027)
(0.994297 -0.10564 -0.0144654)
(0.999739 0.00156737 0.000299809)
(0.000240414 -0.982003 -0.188858)
(0.00024052 -0.981801 -0.189901)
(0.00024065 -0.981591 -0.19098)
(0.000240762 -0.981377 -0.192081)
(0.00024083 -0.981188 -0.193053)
(0.000240919 -0.981105 -0.193476)
(0.000192221 -0.981035 -0.193831)
(-5.7561e-05 -0.980992 -0.194045)
(-0.00300984 -0.982731 -0.185006)
(-0.389094 -0.417052 0.821275)
(-0.161344 -0.986882 0.00331347)
(-0.069476 -0.983935 -0.164448)
(-0.0394 -0.978385 -0.203001)
(-0.0162841 -0.974066 -0.225677)
(-0.00353011 -0.969933 -0.243347)
(0.0105004 -0.970594 -0.240492)
(0.0232211 -0.97227 -0.232707)
(0.0215948 -0.977802 -0.208415)
(0.00375957 -0.980231 -0.197821)
(-2.74926e-05 -0.98 -0.198995)
(-0.000315172 -0.979623 -0.200845)
(-0.000245245 -0.979121 -0.203279)
(2.68695e-05 -0.978821 -0.204719)
(0.000383665 -0.978542 -0.206046)
(0.000798678 -0.978087 -0.208196)
(0.00102735 -0.977243 -0.212118)
(0.000885169 -0.976455 -0.21572)
(0.000538655 -0.97625 -0.216646)
(-0.000173173 -0.976504 -0.215497)
(-0.00572649 -0.978059 -0.208242)
(-0.0392865 -0.9767 -0.210945)
(-0.0107283 -0.969842 -0.243444)
(0.0137954 -0.981847 -0.189125)
(0.00323764 -0.98872 -0.149712)
(5.36603e-05 -0.984795 -0.173712)
(-8.85748e-05 -0.980351 -0.197256)
(-0.000112363 -0.977563 -0.210643)
(-0.000176481 -0.975079 -0.221857)
(-0.000263746 -0.973967 -0.226691)
(-0.000223979 -0.973754 -0.227602)
(-6.2594e-05 -0.974959 -0.222384)
(9.41316e-05 -0.975212 -0.221273)
(0.000245417 -0.975076 -0.221868)
(0.000385938 -0.974707 -0.223485)
(0.000847155 -0.974178 -0.22578)
(0.00199902 -0.973941 -0.226792)
(0.00242482 -0.973684 -0.227887)
(-7.14318e-05 -0.974491 -0.224422)
(-0.0035969 -0.975105 -0.22171)
(0.00391929 -0.977836 -0.209322)
(0.0215335 -0.984971 -0.171349)
(-0.114369 -0.966424 -0.230077)
(-0.986117 -0.158386 -0.0498621)
(-0.971074 -0.200814 -0.129189)
(-0.464797 -0.748799 -0.472508)
(0.390457 -0.798744 -0.457768)
(0.634227 -0.7401 -0.223627)
(0.889095 -0.454011 -0.058167)
(0.988982 -0.147926 -0.00478263)
(0.999259 0.00440334 0.000161672)
(0.0758079 0.93368 -0.209838)
(-0.00246725 0.0537864 -0.964768)
(-0.026419 -0.81207 -0.579795)
(-0.00130757 -0.882129 -0.470668)
(0.000413177 -0.890763 -0.454406)
(-2.45174e-05 -0.892624 -0.450776)
(-0.000870358 -0.889199 -0.457489)
(-0.00759917 -0.871988 -0.489384)
(-0.0550719 -0.865948 -0.496806)
(-0.134814 -0.950219 -0.280503)
(-0.287601 -0.949605 -0.124279)
(-0.544325 -0.82131 -0.170709)
(-0.621666 -0.745801 -0.239393)
(-0.26489 -0.867611 -0.420812)
(-0.0194527 -0.859473 -0.510811)
(0.0189519 -0.837937 -0.545438)
(0.0278914 -0.821916 -0.568925)
(0.0327495 -0.80583 -0.59124)
(0.0334824 -0.809671 -0.585927)
(-0.00107384 -0.920396 -0.390965)
(-0.00870315 -0.942915 -0.332897)
(-0.0109269 -0.938994 -0.343744)
(-0.0055457 -0.934256 -0.356549)
(-0.00500945 -0.933814 -0.357711)
(-0.0142909 -0.929541 -0.368429)
(-0.0136645 -0.914024 -0.405416)
(0.0232123 -0.890548 -0.454275)
(0.125001 -0.875042 -0.467569)
(0.258842 -0.963889 0.0604765)
(-0.670188 -0.501926 0.546533)
(-0.57109 -0.0721549 0.817641)
(-0.515424 -0.512102 0.686898)
(0.106506 -0.671403 -0.733367)
(0.132002 -0.778888 -0.613089)
(0.0955512 -0.934732 -0.342215)
(0.0131889 -0.983074 -0.182632)
(-0.288076 -0.945844 -0.149517)
(-0.575404 -0.815086 -0.067092)
(-0.388884 -0.918055 -0.0766353)
(0.412945 -0.463086 -0.784204)
(0.375921 -0.541397 -0.75202)
(0.117362 -0.928518 -0.352166)
(-0.00485948 -0.98296 0.183609)
(0.0304548 -0.977432 0.208929)
(0.12133 -0.969967 0.210695)
(0.120577 -0.975273 -0.185071)
(0.0226925 -0.63597 -0.771356)
(-0.0732909 -0.653629 -0.753229)
(-0.150014 -0.790218 -0.59412)
(0.231647 -0.965245 -0.120526)
(0.489149 -0.860741 0.140182)
(-0.99668 0.072207 -0.036502)
(-0.999992 -0.0027308 -0.00284803)
(-0.993867 -0.105526 -0.0330408)
(-0.687833 -0.649859 -0.323371)
(0.541192 -0.677481 -0.498127)
(0.928919 -0.285666 -0.235595)
(0.996494 -0.0748104 -0.0374513)
(0.999653 -0.0260141 -0.00307079)
(0.998147 0.00307846 -0.000708646)
(-0.543661 0.768816 0.2048)
(-0.885145 0.424273 -0.0489035)
(-0.2203 -0.923284 0.307225)
(-0.0340303 -0.965378 0.257981)
(-0.00907753 -0.935369 0.353476)
(-0.00546412 -0.941298 0.337498)
(-0.00987309 -0.99574 0.0915195)
(-0.015383 -0.67932 -0.733653)
(-0.0154122 -0.366492 -0.93027)
(-0.0708219 -0.447198 -0.891588)
(-0.538567 -0.831478 -0.135953)
(-0.63168 -0.667587 0.394064)
(-0.578421 -0.632534 0.515098)
(-0.393482 -0.760305 0.516824)
(-0.157425 -0.931409 0.328167)
(-0.045289 -0.998666 -0.0247995)
(0.0588644 -0.95713 -0.283614)
(0.171185 -0.8178 -0.549453)
(0.330063 -0.573109 -0.750069)
(0.476658 -0.622532 -0.620681)
(0.0277929 -0.928426 0.370457)
(0.000993707 -0.914714 0.404088)
(-5.18814e-05 -0.917636 0.397412)
(-0.00291345 -0.923909 0.38259)
(-0.0163809 -0.92401 0.382007)
(-0.0298045 -0.918809 0.393561)
(-0.0100938 -0.91639 0.400136)
(0.12582 -0.906068 0.403918)
(0.549032 -0.745458 0.377499)
(0.217915 -0.733394 0.642716)
(-0.515343 -0.0955348 0.851547)
(-0.826372 -0.108668 0.552463)
(-0.422742 -0.764727 0.486214)
(0.302742 -0.905476 0.29735)
(0.300553 -0.937146 0.17717)
(0.0921636 -0.984582 0.148555)
(0.00301898 -0.986305 0.16479)
(-0.037154 -0.840799 0.540041)
(-0.271476 -0.675552 0.685495)
(-0.395867 -0.544515 0.739431)
(0.36517 -0.838677 0.403974)
(0.548675 -0.824322 0.139302)
(0.205253 -0.958854 0.196037)
(0.00821018 -0.950127 0.311687)
(-0.135896 -0.954407 0.265692)
(-0.579586 -0.72859 -0.364933)
(-0.2237 -0.282048 -0.93293)
(0.313921 -0.466408 -0.826961)
(0.358596 -0.756478 -0.546894)
(0.282687 -0.859657 -0.425445)
(0.304006 -0.952163 0.0266291)
(-0.989935 -0.0264134 -0.138737)
(-0.997225 -0.027815 -0.0690542)
(-0.963181 -0.188259 -0.19194)
(-0.591985 -0.58616 0.553146)
(0.408085 -0.493425 0.768113)
(0.867684 -0.262289 0.42229)
(0.993789 -0.0699324 0.0865647)
(0.999584 -0.024877 0.0143153)
(0.99793 0.00307047 -0.000473201)
(-0.000107425 -0.98256 0.185932)
(-0.000216685 -0.982493 0.186284)
(-0.00159051 -0.982871 0.184273)
(-0.00299147 -0.984622 0.17466)
(-0.0031035 -0.985404 0.170199)
(-0.00308225 -0.986071 0.166296)
(-0.00293627 -0.98938 0.145321)
(-0.0015963 -0.997238 0.0742471)
(0.00170231 -0.99996 0.0087594)
(0.0116804 -0.960533 -0.277917)
(0.0474106 -0.248701 -0.967413)
(-0.346997 0.717173 0.604254)
(-0.695586 0.350431 0.627173)
(-0.891434 0.0729842 0.447233)
(-0.626275 -0.689799 0.363258)
(-0.118354 -0.971302 0.206311)
(0.00845433 -0.994514 0.104261)
(0.101505 -0.99471 0.0157431)
(0.224274 -0.962126 -0.154969)
(0.249365 -0.962065 -0.110673)
(0.0250731 -0.984617 0.172918)
(-0.000501751 -0.982082 0.188454)
(-0.000844459 -0.981994 0.188909)
(-0.000480188 -0.981937 0.189207)
(-9.5867e-05 -0.981814 0.189842)
(0.000177236 -0.981489 0.191515)
(0.000615292 -0.981191 0.193036)
(0.000875039 -0.981164 0.193173)
(0.000554409 -0.981426 0.191837)
(-0.000297937 -0.982481 0.186358)
(-0.0128022 -0.997324 0.0719229)
(-0.153732 -0.956686 -0.247128)
(-0.0902304 -0.940874 0.326456)
(0.00254155 -0.946139 0.323732)
(0.00162204 -0.97913 0.203216)
(6.27469e-05 -0.981889 0.189454)
(-0.000361422 -0.981517 0.191374)
(-0.000394293 -0.981393 0.192008)
(-0.000634365 -0.981485 0.191538)
(-0.000989894 -0.980999 0.194008)
(-0.000533233 -0.981091 0.193545)
(0.000245832 -0.981875 0.18953)
(0.000775941 -0.981775 0.190046)
(0.000538963 -0.981503 0.191445)
(-0.00179376 -0.981578 0.19105)
(-0.00535664 -0.981472 0.191529)
(-0.0031952 -0.979891 0.199506)
(0.00634435 -0.981757 0.19003)
(0.0132597 -0.988372 0.151458)
(0.071383 -0.992983 0.0942258)
(0.0806753 -0.975795 0.203228)
(-0.557372 -0.814192 0.162535)
(-0.98728 -0.155557 -0.0328586)
(-0.762926 -0.529008 -0.371611)
(-0.194358 -0.822182 0.535016)
(0.30742 -0.634003 0.7096)
(0.57026 -0.588988 0.572623)
(0.882704 -0.410247 0.229195)
(0.966734 -0.249237 0.0573162)
(0.994474 0.0302122 -0.00318826)
(-0.000270255 -0.975674 0.218801)
(-0.0765335 -0.9723 0.220031)
(-0.0472723 -0.974783 0.218017)
(-0.0300413 -0.979717 0.198104)
(-0.0281848 -0.982314 0.185103)
(-0.0405354 -0.983915 0.173973)
(-0.0454581 -0.980752 0.189894)
(-0.0152296 -0.978308 0.206595)
(0.00290058 -0.977239 0.212121)
(0.0145938 -0.976992 0.212775)
(0.0195492 -0.97669 0.213761)
(0.012382 -0.976567 0.214856)
(-0.0305678 -0.979509 0.199063)
(-0.354194 -0.925201 0.136189)
(-0.708314 -0.320546 0.62892)
(-0.42743 -0.309029 0.849591)
(-0.111274 -0.863573 0.491793)
(0.0221817 -0.94591 0.323669)
(0.117303 -0.964374 0.237111)
(0.29165 -0.936566 0.194383)
(0.368753 -0.909867 0.190162)
(0.0231396 -0.97789 0.207833)
(-0.000175426 -0.977721 0.209907)
(0.000188433 -0.977327 0.211735)
(0.000777498 -0.977112 0.212723)
(0.00112134 -0.977203 0.212302)
(0.000502989 -0.978134 0.207971)
(-0.000783067 -0.981155 0.193218)
(-0.00586354 -0.987828 0.15543)
(-0.0790606 -0.995226 -0.0571062)
(-0.368836 -0.34288 -0.863904)
(-0.272252 0.616047 -0.738976)
(0.621321 0.379041 0.685681)
(0.58784 -0.367251 0.720749)
(0.0700664 -0.965558 0.250496)
(8.36956e-05 -0.949 -0.315255)
(-0.00250706 -0.994141 -0.108032)