/*--------------------------------*- C++ -*----------------------------------*\
| =========                 |                                                 |
| \\      /  F ield         | OpenFOAM: The Open Source CFD Toolbox           |
|  \\    /   O peration     | Version:  2.1.1                                 |
|   \\  /    A nd           | Web:      www.OpenFOAM.org                      |
|    \\/     M anipulation  |                                                 |
\*---------------------------------------------------------------------------*/
FoamFile
{
    version     2.0;
    format      ascii;
    class       volVectorField;
    location    "0.0013";
    object      grad1Alpha;
}
// * * * * * * * * * * * * * * * * * * * * * * * * * * * * * * * * * * * * * //

dimensions      [0 -1 0 0 0 0 0];

internalField   nonuniform List<vector> 
36520
(
(2.48592e-09 -2.03998e-09 -5.47519e-09)
(2.40274e-09 -1.37184e-09 -6.61772e-09)
(-1.6395e-10 -2.00402e-09 -7.33155e-09)
(-2.19119e-10 -2.70038e-09 -8.45896e-09)
(-2.99788e-10 -3.66431e-09 -9.81204e-09)
(-3.33041e-10 -4.71062e-09 -1.1018e-08)
(-3.49245e-10 -5.7433e-09 -1.21426e-08)
(-3.6842e-10 -6.79588e-09 -1.33015e-08)
(-4.13216e-10 -7.90649e-09 -1.46498e-08)
(-5.1508e-10 -9.20081e-09 -1.64265e-08)
(-6.80998e-10 -1.08899e-08 -1.90738e-08)
(-9.1048e-10 -1.31009e-08 -2.28455e-08)
(-1.18379e-09 -1.60365e-08 -2.81303e-08)
(-1.46895e-09 -1.96246e-08 -3.47688e-08)
(-1.74782e-09 -2.38472e-08 -4.23722e-08)
(-1.738e-09 -2.85653e-08 -4.99272e-08)
(-1.16295e-09 -3.18762e-08 -5.71772e-08)
(-5.4072e-10 -3.30586e-08 -6.43182e-08)
(-4.66391e-10 -3.32609e-08 -7.15265e-08)
(-9.50437e-10 -3.40015e-08 -7.8573e-08)
(-1.6527e-09 -3.65542e-08 -8.47674e-08)
(-2.25904e-09 -4.08035e-08 -8.97193e-08)
(-2.59234e-09 -4.62905e-08 -9.22896e-08)
(-2.60948e-09 -5.2422e-08 -9.17546e-08)
(-2.46884e-09 -5.85259e-08 -8.66422e-08)
(-2.31708e-09 -6.39484e-08 -7.72532e-08)
(-2.34101e-09 -6.85181e-08 -6.40721e-08)
(-2.77791e-09 -7.26506e-08 -4.84216e-08)
(-3.97607e-09 -7.76561e-08 -3.22851e-08)
(-6.17445e-09 -8.57727e-08 -1.75134e-08)
(-9.23073e-09 -9.96512e-08 -4.7298e-09)
(-1.25723e-08 -1.21291e-07 6.76847e-09)
(-1.5309e-08 -1.50921e-07 1.83075e-08)
(-1.64815e-08 -1.86524e-07 3.07145e-08)
(-1.53891e-08 -2.2399e-07 4.34818e-08)
(-1.18045e-08 -2.57729e-07 5.51297e-08)
(-5.96523e-09 -2.81501e-07 6.40746e-08)
(1.42331e-09 -2.88989e-07 6.92259e-08)
(9.60136e-09 -2.75469e-07 7.03205e-08)
(1.80534e-08 -2.37852e-07 6.75927e-08)
(2.58241e-08 -1.75555e-07 6.19929e-08)
(3.02684e-08 -9.35512e-08 5.83327e-08)
(2.79545e-08 -2.96415e-09 8.44247e-08)
(2.12676e-08 1.7882e-07 9.67629e-07)
(6.88753e-08 1.10304e-06 4.4307e-06)
(1.28465e-07 2.969e-06 1.24576e-05)
(9.75364e-08 5.80765e-06 2.78593e-05)
(3.31212e-08 1.02022e-05 5.33866e-05)
(-3.80233e-08 1.49942e-05 8.72961e-05)
(-1.1523e-07 1.51658e-05 0.000114016)
(-1.18296e-07 1.34055e-05 0.000118136)
(-8.80741e-08 4.07087e-06 3.56426e-05)
(-2.50995e-07 6.287e-07 5.59534e-06)
(-3.49443e-07 -4.00738e-07 4.9665e-07)
(-4.05869e-08 -1.01513e-06 -2.61731e-06)
(2.68748e-07 -7.76207e-07 -3.53375e-06)
(2.52896e-07 -3.17486e-07 -1.71346e-06)
(1.14621e-07 -1.17396e-07 -6.44646e-07)
(3.33202e-08 -1.7138e-08 -9.23807e-08)
(3.31989e-09 -1.14452e-09 -6.25595e-09)
(1.9435e-09 -1.03871e-08 -1.6086e-08)
(1.52041e-09 -1.3418e-08 -1.74018e-08)
(-1.04121e-09 -1.58637e-08 -1.8047e-08)
(-1.40114e-09 -1.92458e-08 -1.90419e-08)
(-1.51874e-09 -2.2813e-08 -1.97645e-08)
(-1.44271e-09 -2.62603e-08 -1.98298e-08)
(-1.43639e-09 -2.95375e-08 -1.94519e-08)
(-1.5622e-09 -3.28644e-08 -1.88298e-08)
(-1.90165e-09 -3.66984e-08 -1.82805e-08)
(-2.623e-09 -4.16727e-08 -1.80241e-08)
(-3.74027e-09 -4.89221e-08 -1.88154e-08)
(-5.22745e-09 -5.93036e-08 -2.08066e-08)
(-6.86767e-09 -7.36948e-08 -2.4075e-08)
(-8.25795e-09 -9.12452e-08 -2.77354e-08)
(-8.97256e-09 -1.10436e-07 -3.1177e-08)
(-8.79486e-09 -1.28991e-07 -3.36752e-08)
(-8.02637e-09 -1.4234e-07 -3.15691e-08)
(-7.38762e-09 -1.53833e-07 -2.73622e-08)
(-7.26802e-09 -1.69795e-07 -2.62563e-08)
(-7.26413e-09 -1.88468e-07 -2.47648e-08)
(-6.96098e-09 -2.09566e-07 -2.16929e-08)
(-5.8326e-09 -2.31894e-07 -1.78152e-08)
(-3.5432e-09 -2.53024e-07 -1.25504e-08)
(1.08869e-10 -2.69421e-07 -5.36718e-09)
(4.47557e-09 -2.79057e-07 7.14701e-09)
(8.4768e-09 -2.81234e-07 2.62019e-08)
(1.14392e-08 -2.80288e-07 3.37067e-08)
(1.24122e-08 -2.77453e-07 3.85449e-08)
(1.07978e-08 -2.75951e-07 4.40631e-08)
(7.00824e-09 -2.79876e-07 4.92157e-08)
(2.40464e-09 -2.89801e-07 5.73757e-08)
(-1.51303e-09 -3.02675e-07 6.91611e-08)
(-3.80008e-09 -3.13184e-07 8.43041e-08)
(-4.3778e-09 -3.16828e-07 1.01527e-07)
(-3.65072e-09 -3.11702e-07 1.18659e-07)
(-1.90741e-09 -2.97937e-07 1.33096e-07)
(7.99072e-10 -2.74981e-07 1.42229e-07)
(4.39552e-09 -2.40759e-07 1.43882e-07)
(8.75868e-09 -1.93244e-07 1.36869e-07)
(1.39579e-08 -1.32396e-07 1.21068e-07)
(2.1233e-08 -5.44317e-08 1.33477e-07)
(4.07734e-08 7.27151e-08 4.30232e-07)
(4.61527e-07 3.58574e-07 1.42891e-06)
(2.09371e-06 2.53581e-06 5.74186e-06)
(5.54806e-06 1.51817e-05 4.11763e-05)
(1.13042e-05 7.36607e-05 0.000249831)
(1.9629e-05 0.000257487 0.000947248)
(2.84176e-05 0.00072834 0.00279108)
(2.90007e-05 0.00203736 0.00834052)
(1.48811e-05 0.00443404 0.0192568)
(-3.70833e-05 0.00623436 0.0278531)
(-5.3373e-05 0.00532221 0.0256939)
(-1.68952e-05 0.00150406 0.0076439)
(-4.26235e-06 4.20139e-05 0.00021585)
(-1.96271e-06 -3.36356e-06 2.4297e-07)
(6.99321e-07 -5.21262e-06 -1.0679e-05)
(1.63047e-06 -2.48662e-06 -7.36149e-06)
(8.87628e-07 -1.08191e-06 -2.81405e-06)
(3.3772e-07 -2.18667e-07 -6.5771e-07)
(4.43839e-08 -1.85177e-08 -5.35358e-08)
(1.79075e-09 -2.88799e-08 -1.69037e-08)
(1.36691e-09 -3.0621e-08 -1.3518e-08)
(-1.0217e-09 -3.49695e-08 -1.15613e-08)
(-1.12617e-09 -4.0551e-08 -9.32062e-09)
(-7.66156e-10 -4.59182e-08 -6.75156e-09)
(-2.73973e-10 -5.16394e-08 -4.0121e-09)
(3.71354e-11 -5.76368e-08 -8.93159e-10)
(9.20576e-11 -6.34904e-08 4.03786e-09)
(-1.47077e-10 -6.96929e-08 1.22473e-08)
(-9.27066e-10 -7.74328e-08 2.23268e-08)
(-2.22538e-09 -9.04973e-08 2.89321e-08)
(-3.71801e-09 -1.08643e-07 3.47355e-08)
(-4.87249e-09 -1.32294e-07 4.27272e-08)
(-5.30029e-09 -1.58746e-07 5.2543e-08)
(-5.04099e-09 -1.84497e-07 6.35621e-08)
(-2.33413e-09 -2.06838e-07 7.45624e-08)
(1.49506e-09 -1.92134e-07 1.07843e-07)
(1.60484e-09 -1.43177e-07 1.92504e-07)
(3.04508e-10 -1.39264e-07 2.40843e-07)
(6.92422e-10 -1.50706e-07 2.73742e-07)
(1.08371e-09 -1.54659e-07 3.12397e-07)
(1.52748e-09 -1.51026e-07 3.58963e-07)
(2.84585e-09 -1.41383e-07 4.06872e-07)
(6.41049e-09 -1.1749e-07 4.80381e-07)
(1.235e-08 -1.6186e-08 8.20144e-07)
(1.02908e-08 3.7926e-07 2.22742e-06)
(3.64196e-09 9.84776e-07 4.40034e-06)
(2.29865e-09 1.55605e-06 6.51763e-06)
(1.19902e-09 2.20073e-06 8.97907e-06)
(1.6552e-10 3.0776e-06 1.23284e-05)
(2.24431e-10 4.25571e-06 1.68235e-05)
(3.01631e-10 5.79953e-06 2.27129e-05)
(3.91174e-10 7.59071e-06 2.95504e-05)
(4.71154e-10 9.18267e-06 3.56649e-05)
(5.10302e-10 9.93231e-06 3.8665e-05)
(5.07633e-10 9.82171e-06 3.84762e-05)
(4.79429e-10 9.19693e-06 3.63482e-05)
(4.28897e-10 8.14021e-06 3.25373e-05)
(5.59782e-10 6.8096e-06 2.76413e-05)
(1.84154e-08 5.25093e-06 2.19254e-05)
(1.74494e-07 3.79704e-06 1.68728e-05)
(6.49179e-07 2.54643e-06 1.35369e-05)
(2.57881e-06 2.35372e-06 1.19341e-05)
(1.90117e-05 1.1067e-05 2.01317e-05)
(0.000116301 6.55728e-05 7.76558e-05)
(0.000431171 0.000306053 0.00038962)
(0.00120857 0.0013991 0.0018208)
(0.00351393 0.00582675 0.0073991)
(0.00782208 0.0200242 0.0255921)
(0.00926675 0.0608646 0.0913694)
(0.00305246 0.174474 0.361992)
(-0.00959432 0.359528 0.907055)
(-0.0120887 0.23833 0.72296)
(-0.0036267 0.037052 0.12823)
(-0.000107575 0.000400555 0.00149993)
(-3.30585e-06 -1.65245e-05 -5.74633e-06)
(4.02232e-06 -1.09298e-05 -1.57913e-05)
(3.30942e-06 -4.1926e-06 -2.96867e-06)
(1.35058e-06 -1.37529e-06 -2.88266e-06)
(2.9116e-07 -1.34014e-07 -2.73439e-07)
(3.41204e-09 -3.73207e-08 -1.10898e-09)
(3.75033e-09 -4.63188e-08 7.08619e-09)
(5.91985e-10 -5.84458e-08 1.65736e-08)
(5.17587e-10 -7.63023e-08 2.79699e-08)
(6.499e-10 -1.00142e-07 3.15286e-08)
(9.72082e-10 -1.25179e-07 3.46276e-08)
(2.00357e-09 -1.45356e-07 4.06535e-08)
(4.25077e-09 -1.52584e-07 7.01534e-08)
(6.26243e-09 -1.60238e-07 1.00602e-07)
(4.59476e-09 -1.68222e-07 1.33533e-07)
(1.17142e-09 -1.91024e-07 1.7412e-07)
(1.21933e-11 -2.09273e-07 3.15538e-07)
(1.56721e-11 -2.26298e-07 5.71065e-07)
(2.46927e-11 -2.05267e-08 1.64255e-06)
(4.88624e-11 1.02747e-06 5.45456e-06)
(1.19603e-08 2.60277e-06 1.093e-05)
(4.93771e-08 4.43313e-06 1.70881e-05)
(5.6702e-08 8.31133e-06 2.93585e-05)
(3.08388e-08 1.38685e-05 4.7172e-05)
(2.61919e-08 1.90723e-05 6.45049e-05)
(3.34997e-08 2.61554e-05 8.82748e-05)
(3.95917e-08 3.69216e-05 0.000124113)
(5.54161e-08 5.28727e-05 0.000176961)
(1.98365e-07 7.37897e-05 0.000246069)
(8.35825e-07 9.48707e-05 0.000316217)
(1.70934e-06 0.000108645 0.000364341)
(2.04858e-06 0.00011377 0.000386083)
(2.18545e-06 0.000120097 0.00041196)
(2.76758e-06 0.000137745 0.000474276)
(3.72832e-06 0.000170847 0.000587193)
(4.9289e-06 0.000229184 0.000782328)
(6.03719e-06 0.000312666 0.00105907)
(6.14396e-06 0.000400947 0.00135119)
(4.3267e-06 0.000462925 0.00155725)
(1.34119e-06 0.000487831 0.00164022)
(-1.08821e-06 0.000431665 0.00146094)
(-2.80331e-06 0.000355931 0.0012096)
(-4.11259e-06 0.000289648 0.000983686)
(-5.01224e-06 0.000234016 0.000786455)
(-5.0833e-06 0.000179468 0.000593664)
(-3.95458e-06 0.000122212 0.000402312)
(-2.27038e-06 7.79548e-05 0.000258398)
(3.91241e-06 5.81543e-05 0.000187242)
(3.51722e-05 6.68328e-05 0.000172063)
(0.000189201 0.000254525 0.000282386)
(0.000873904 0.00160593 0.000448467)
(0.00347852 0.0076255 0.00080738)
(0.0117136 0.0265976 0.00394636)
(0.0409024 0.0758641 0.0245859)
(0.161574 0.285321 0.155294)
(0.389156 1.37728 0.768698)
(0.169768 4.23723 2.7856)
(-0.373002 4.60551 4.62457)
(-0.343384 2.27393 3.70654)
(-0.0608509 0.358723 0.91111)
(-0.000716388 0.0620308 0.195547)
(3.54273e-06 0.0117685 0.037188)
(7.18756e-06 8.60379e-05 0.000324087)
(1.72202e-06 -5.56581e-06 -8.05051e-06)
(1.29796e-06 -6.11335e-07 -9.68128e-07)
(5.11886e-09 -6.11741e-08 2.32576e-08)
(8.51707e-09 -1.17368e-07 3.68258e-08)
(7.25143e-09 -1.8521e-07 1.0897e-07)
(3.86126e-09 -2.36697e-07 3.65002e-07)
(1.94931e-11 -2.80339e-07 7.17211e-07)
(1.79519e-09 -4.02872e-07 9.4998e-07)
(1.51967e-08 -4.97878e-07 1.2675e-06)
(2.74419e-08 -5.40542e-07 1.69652e-06)
(2.91342e-08 -6.58675e-07 1.94211e-06)
(3.29408e-08 -9.02273e-07 2.5328e-06)
(8.26224e-08 -3.8571e-07 6.46901e-06)
(1.82717e-07 5.74139e-06 2.91178e-05)
(6.25335e-07 4.44015e-05 0.000152771)
(2.32518e-06 0.000185576 0.000590316)
(4.43216e-06 0.000453895 0.00141636)
(5.56039e-06 0.000734034 0.00227872)
(8.82199e-06 0.000486675 0.00154538)
(1.44001e-05 0.000238695 0.000818473)
(1.68116e-05 0.000317088 0.00102104)
(1.96506e-05 0.000433609 0.00132906)
(2.84971e-05 0.000524478 0.00162269)
(4.24017e-05 0.000648858 0.00204272)
(5.83103e-05 0.000870796 0.00276827)
(6.65811e-05 0.0012062 0.00384609)
(5.65303e-05 0.00156929 0.00501901)
(3.33527e-05 0.00186964 0.00599586)
(2.27061e-05 0.00211019 0.00676484)
(4.21105e-05 0.00231453 0.007415)
(8.37062e-05 0.00245474 0.00787622)
(0.000147175 0.00256151 0.00824354)
(0.000225473 0.00275803 0.00891499)
(0.000271835 0.00324294 0.0104817)
(0.000238077 0.00398159 0.012806)
(0.00013818 0.00475263 0.0151923)
(-4.59214e-05 0.00519552 0.016554)
(-0.000205654 0.00512012 0.0163078)
(-0.000227872 0.00456089 0.0144558)
(-0.00020193 0.0039773 0.0126605)
(-0.000186078 0.0035072 0.0112282)
(-0.000183372 0.0032627 0.0104466)
(-0.000159992 0.00315055 0.0100211)
(-0.000101825 0.00294293 0.0092814)
(-3.72959e-05 0.00274032 0.00859694)
(7.34822e-05 0.00200176 0.00640051)
(0.000318701 0.00178335 0.00548859)
(0.00102588 0.00303276 0.00749906)
(0.00400492 0.00749149 0.0145164)
(0.0176655 0.0205219 0.032911)
(0.0899484 0.0727357 0.0906714)
(0.415794 0.321921 0.3345)
(1.41076 2.56667 1.86404)
(1.93143 17.7499 5.5141)
(0.319829 38.8605 13.7957)
(-1.92874 34.6936 29.0766)
(-1.73335 17.2095 29.8814)
(-0.421365 6.43444 18.8002)
(-0.0933437 1.50541 4.59146)
(-0.0177815 0.0507722 0.154201)
(-0.000153331 -1.29397e-05 -7.30548e-06)
(3.79425e-06 -1.90859e-06 -2.38744e-06)
(6.20346e-09 1.11898e-08 3.93119e-07)
(3.62106e-08 6.42061e-07 3.23522e-06)
(1.48615e-07 1.27578e-06 7.06209e-06)
(2.85693e-07 8.50919e-07 1.00018e-05)
(2.78359e-07 -6.21037e-07 1.1965e-05)
(2.67834e-07 -3.91713e-07 2.10229e-05)
(3.72246e-07 2.15888e-06 3.81369e-05)
(3.45286e-07 1.40003e-05 8.75377e-05)
(4.23907e-07 3.84144e-05 0.00017983)
(2.21025e-06 8.55531e-05 0.000354405)
(1.293e-05 0.000234657 0.000872976)
(7.11548e-05 0.000767833 0.00245291)
(0.000272925 0.00261826 0.00653476)
(0.000614342 0.00841121 0.0142303)
(0.000820295 0.0237168 0.0246948)
(6.09694e-05 0.0402643 0.0346729)
(-0.000711981 0.0315517 0.030734)
(-0.000254755 0.00794445 0.0133697)
(0.000250373 0.0022391 0.00734327)
(0.000293681 0.00285442 0.00846292)
(0.00034634 0.00352845 0.00954896)
(0.000555641 0.00405696 0.0101672)
(0.000875183 0.00455068 0.0108765)
(0.00109265 0.00529808 0.0121553)
(0.00104454 0.00611516 0.0136814)
(0.000850309 0.00665207 0.014828)
(0.000692892 0.00718059 0.0166095)
(0.000543247 0.00856817 0.0213283)
(0.000405709 0.0105709 0.0275902)
(0.0005079 0.0123121 0.0325008)
(0.00109093 0.0139188 0.0366055)
(0.00189527 0.0153255 0.040213)
(0.00229517 0.0164943 0.0432379)
(0.00182685 0.0183149 0.0472307)
(0.00054607 0.0216436 0.052555)
(-0.0010179 0.0242166 0.0565461)
(-0.00177523 0.0270004 0.0605392)
(-0.00157505 0.0292587 0.0603672)
(-0.00108325 0.0272 0.0528677)
(-0.000591427 0.0233299 0.0419636)
(-0.000567254 0.0229495 0.0383736)
(-0.000690974 0.0261551 0.0452557)
(-0.00139314 0.0286807 0.0657814)
(-0.00146654 0.0332074 0.0929669)
(0.000765809 0.0298218 0.0862589)
(0.00540528 0.0382777 0.111639)
(0.0162204 0.0500368 0.150396)
(0.0504168 0.087444 0.278142)
(0.196161 0.188399 0.59832)
(1.124 0.323992 1.11724)
(3.82357 0.319855 1.29318)
(7.91349 7.24497 1.37926)
(11.6655 97.0444 24.0504)
(5.88241 206.912 208.636)
(-6.55247 192.065 325.599)
(-12.7532 98.4431 238.691)
(-9.08633 20.976 61.9091)
(-2.23339 0.802849 2.53197)
(-0.0750282 0.000202245 0.000752077)
(4.16433e-06 -4.39025e-06 -3.59628e-06)
(1.42234e-06 3.58747e-07 1.96212e-06)
(3.33562e-06 2.05216e-07 5.60922e-06)
(3.37981e-06 -4.46007e-06 7.10493e-06)
(2.43901e-06 -1.97552e-05 1.07781e-05)
(5.50208e-06 -4.39672e-05 7.29553e-07)
(1.30937e-05 -6.29968e-05 1.52414e-06)
(3.32975e-05 0.000469851 0.00226552)
(7.09421e-05 0.00150024 0.00661716)
(0.00013353 0.00369793 0.00747575)
(0.000346787 0.00579484 0.0100237)
(0.0010546 0.0100831 0.0181874)
(0.00288183 0.0258398 0.0413813)
(0.00618633 0.0884915 0.0763771)
(0.0102161 0.374216 0.0746955)
(0.0120653 1.286 -0.055389)
(0.00338812 2.25582 -0.212099)
(-0.0126285 2.14982 -0.190929)
(-0.0133733 1.04983 -0.0723114)
(-0.00271867 0.125015 0.0161523)
(0.00116206 0.00732266 0.0244747)
(0.000923445 0.0071571 0.0274483)
(0.00073332 0.00862269 0.0312683)
(0.00106446 0.0103687 0.0355067)
(0.0014763 0.0119079 0.0386753)
(0.00139085 0.0142373 0.0395464)
(0.00147888 0.0191928 0.0381048)
(0.00324625 0.0255888 0.036472)
(0.00552336 0.0305683 0.0387043)
(0.00569218 0.0306611 0.0463521)
(0.00469991 0.0278716 0.0576727)
(0.00412451 0.0238055 0.0723086)
(0.00361399 0.022304 0.0875211)
(0.00379149 0.0292775 0.100275)
(0.00495355 0.0899507 0.112199)
(0.00484623 0.230687 0.156882)
(0.00403284 0.263586 0.314844)
(0.0020144 0.232147 0.403074)
(-0.00380305 0.102604 0.384638)
(-0.00939664 0.0598418 0.313208)
(-0.00743192 0.0766413 0.286883)
(0.00161088 0.093251 0.290858)
(0.0134248 0.076254 0.305195)
(0.0233598 0.0603761 0.309063)
(0.0100757 0.0663436 0.288689)
(0.00969374 0.15401 0.230925)
(0.0331369 0.21396 0.199297)
(0.0869708 0.201531 0.216646)
(0.240919 0.161815 0.332527)
(0.50216 -0.046592 0.541962)
(0.706639 -0.745092 0.307634)
(1.86012 -2.45036 -1.49622)
(19.6558 -8.08502 -6.41778)
(113.783 -10.1554 -11.2895)
(149.073 247.17 150.339)
(4.825 729.826 1069.86)
(-138.694 513.34 877.977)
(-119.862 107.201 190.77)
(-31.0724 4.3496 7.53875)
(-1.26669 0.0112321 0.0272238)
(-0.000372981 -9.54806e-06 3.45248e-07)
(1.79575e-06 -4.12884e-07 -1.79855e-07)
(2.40227e-06 -4.46413e-06 -2.4121e-06)
(2.48377e-06 -2.0887e-05 -5.64192e-06)
(-3.41426e-06 -7.09333e-05 -7.93426e-06)
(-3.35175e-05 0.0772896 -0.0190603)
(0.00104246 0.436622 -0.107959)
(0.00315415 0.979162 -0.242962)
(0.00257725 1.03943 -0.231048)
(0.00188189 0.708033 -0.0999053)
(0.0059611 0.212502 0.112399)
(0.0177695 0.0747997 0.401349)
(0.03688 0.200117 1.21966)
(0.0499713 0.714778 3.43962)
(0.0472449 2.47228 6.00214)
(0.0322254 8.46034 4.72556)
(0.00754807 18.0937 0.0309123)
(-0.051475 18.7487 -3.0609)
(-0.0933599 12.3899 -2.43934)
(-0.0519359 3.2003 -0.250973)
(-0.00552999 0.25905 0.422572)
(0.00385069 0.0578418 0.38712)
(0.00496559 0.0263567 0.290824)
(0.00493943 0.00892361 0.19975)
(0.00342921 0.003189 0.160676)
(0.00133532 0.00182398 0.159209)
(0.000230771 0.00603377 0.150663)
(0.00177955 0.0183863 0.139687)
(0.00554023 0.0342409 0.139193)
(0.00928681 0.0460265 0.153158)
(0.0126874 0.0571946 0.1801)
(0.0154978 0.0662341 0.209222)
(0.0165517 0.0644719 0.25076)
(0.0213876 0.0565513 0.313276)
(0.0502088 0.0483212 0.391661)
(0.121014 0.04918 0.484655)
(0.125231 0.0478607 0.600316)
(0.0187723 0.0391417 0.72774)
(-0.06341 0.0308581 0.878725)
(-0.0526012 0.0388289 1.06167)
(-0.00816149 0.0580732 1.26345)
(0.00847185 0.0685765 1.4397)
(0.00380004 0.0471912 1.56976)
(-0.0132401 -0.0127281 1.64784)
(-0.0329233 -0.0512324 1.63156)
(-0.0309061 -0.108434 1.48534)
(0.000854835 -0.211577 1.10325)
(0.0756216 -0.377141 0.567878)
(0.192593 -0.59995 0.0742451)
(0.115762 -0.621752 -0.295221)
(-0.0676475 -0.663677 -0.88208)
(0.00580958 -0.900113 -1.54147)
(1.43077 -2.39543 -4.05145)
(106.213 -22.4694 -34.28)
(615.457 -32.0537 -116.379)
(389.816 816.539 792.506)
(-510.053 947.579 868.403)
(-492.293 336.916 241.582)
(-107.166 21.5796 13.7698)
(-4.22554 0.175143 0.144603)
(-0.0149725 -3.26528e-05 -2.65532e-05)
(-0.00391427 4.93153 2.08985)
(-0.00517476 6.51968 2.76121)
(-0.00435173 5.48278 2.32068)
(-0.00409957 5.16509 2.18492)
(-0.0093902 11.8311 5.00173)
(-0.0275541 34.7118 14.7177)
(-0.013332 34.7263 14.7807)
(0.0277735 14.7778 6.34884)
(0.0675828 3.8006 1.72729)
(0.172167 4.3387 2.03141)
(0.557082 10.6752 4.8973)
(1.60605 42.1383 18.5599)
(2.63201 147.044 63.5474)
(1.47092 269.428 117.029)
(-1.19164 266.636 117.798)
(-2.76657 201.446 90.0561)
(-2.10601 120.744 53.8975)
(-0.685712 75.8909 33.1477)
(-0.201329 66.1905 28.7151)
(-0.143482 65.1701 28.27)
(-0.149402 65.0509 28.2177)
(-0.153342 65.1311 28.252)
(-0.119578 64.384 27.9307)
(-0.0692471 61.8575 26.8051)
(-0.0478775 56.0372 24.202)
(-0.0426618 45.7163 19.5955)
(-0.0225161 29.5982 12.5677)
(0.00580953 12.4783 5.32359)
(0.0254 4.7791 2.11781)
(0.0326017 4.055 1.85905)
(0.038296 4.22296 2.015)
(0.0535899 4.69499 2.29936)
(0.0720515 6.10741 2.98473)
(0.08571 9.45024 4.49744)
(0.0936564 16.2379 7.42107)
(0.0965512 29.7445 13.032)
(0.100626 53.3317 22.8555)
(0.110097 81.4852 34.6271)
(0.122057 96.2721 40.8556)
(0.117309 97.9453 41.5899)
(0.0842907 97.9624 41.5941)
(0.0346325 97.8765 41.5438)
(-0.0319663 96.3411 40.9117)
(-0.148494 91.9097 39.0258)
(-0.331262 84.1062 35.624)
(-0.507788 73.7152 31.0333)
(-0.514636 64.3198 26.8811)
(-0.284575 57.8001 24.0325)
(-0.0787796 52.0555 21.4619)
(-0.0349572 43.9503 18.1371)
(-0.0233151 29.3539 12.1049)
(0.367746 14.0701 5.46776)
(46.5041 10.0531 4.23926)
(653.559 37.5067 -70.6301)
(624.791 628.957 -26.7814)
(-457.115 1000.3 319.627)
(-660.755 676.977 327.729)
(-197.201 75.4852 38.9005)
(-11.2334 1.035 0.554663)
(-0.0997963 -0.00014741 -9.1042e-05)
(-0.00901642 13.0065 3.04861)
(-0.0123266 17.7799 4.17824)
(-0.0165318 23.8431 5.61761)
(-0.0186173 26.8483 6.342)
(0.00627125 36.8201 8.71976)
(0.0223148 73.5358 17.451)
(-0.028847 102.47 24.372)
(-0.0508657 88.4038 21.061)
(0.0330462 42.8015 10.1832)
(0.181234 11.3822 2.6273)
(0.434775 10.0776 2.20664)
(0.9393 20.2648 4.38358)
(2.00605 73.3297 17.5233)
(2.52011 218.842 57.9644)
(0.787097 321.252 89.552)
(-1.94401 305.443 85.8052)
(-2.89753 234.651 62.4555)
(-1.63455 157.131 38.6123)
(-0.377639 137.607 33.3121)
(-0.102711 140.999 34.329)
(-0.0930827 157.711 38.6739)
(-0.109104 176.287 43.55)
(-0.150625 177.333 44.0672)
(-0.244379 170.817 42.6108)
(-0.378352 159.279 39.8139)
(-0.453246 145.526 36.4184)
(-0.324377 125.415 31.4261)
(-0.115888 94.1197 23.6102)
(0.00377143 55.1734 13.8517)
(0.0792867 24.4197 6.14344)
(0.117115 14.52 3.78047)
(0.12686 14.4919 3.79977)
(0.155212 16.039 4.084)
(0.19204 21.3165 5.29466)
(0.196562 35.5258 8.80641)
(0.144995 70.0695 17.5333)
(0.0454435 134.334 33.9175)
(-0.0378575 185.914 47.1225)
(-0.0596586 189.629 48.0648)
(-0.0693521 183.794 46.5417)
(-0.0858202 180.742 45.7347)
(-0.0936252 182.693 46.2435)
(-0.149853 191.511 48.5746)
(-0.302369 200.343 50.9892)
(-0.474895 196.796 50.346)
(-0.513467 173.082 44.5505)
(-0.322843 131.285 34.0093)
(-0.109271 112.6 29.523)
(-0.034093 113.129 29.8816)
(-0.111436 107.959 28.6399)
(-0.296243 78.2624 20.7153)
(0.467438 33.8192 8.91496)
(56.1836 28.2722 9.26008)
(561.617 155.223 103.239)
(495.056 870.055 49.4937)
(-397.304 1190.26 -57.9872)
(-541.657 766.369 34.8949)
(-165.526 83.2714 9.76036)
(-10.4641 1.11178 0.152236)
(-0.1044 -0.000163677 -3.13082e-05)
(-0.0039813 16.2621 3.12752)
(-0.00277131 11.3125 2.18807)
(-0.00209284 8.53654 1.66089)
(-0.00292802 11.935 2.33599)
(-0.00971778 39.5921 7.7899)
(-0.0258743 105.369 20.779)
(-0.0220435 112.503 22.2282)
(0.00401126 68.3624 13.5224)
(0.0401967 13.1245 2.47078)
(0.11718 0.1256 -0.247336)
(0.416806 2.54946 -0.00855983)
(1.78903 25.3366 4.23459)
(5.9388 147.473 30.5986)
(8.22718 492.125 114.019)
(2.45712 675.119 169.381)
(-6.41895 593.328 147.014)
(-8.53519 357.368 85.5341)
(-3.89879 176.535 37.6279)
(-0.492419 128.388 25.9102)
(0.00357826 127.551 25.9)
(0.045454 141.281 28.9659)
(0.0412912 164.852 34.2256)
(-0.00465152 169.449 35.44)
(-0.0647164 165.06 34.7558)
(-0.126813 155.299 33.057)
(-0.150469 143.13 31.0674)
(-0.114872 126.718 27.9948)
(-0.0541949 98.222 21.797)
(0.0101647 57.3175 12.649)
(0.113417 19.3711 4.12437)
(0.133052 3.3078 0.714408)
(0.0216479 1.95698 0.491229)
(-0.0403693 2.87317 0.553433)
(-0.0232336 7.09515 1.07435)
(-0.00103005 18.9039 3.33454)
(0.00403177 44.6239 8.97876)
(0.010241 89.097 19.1984)
(0.0242754 134.124 30.5169)
(0.0397668 146.851 34.1797)
(0.0333864 145.148 33.9264)
(0.00909033 141.59 32.2962)
(-0.0135694 140.58 31.8974)
(-0.0354395 140.806 32.039)
(-0.0552852 139.626 32.0139)
(-0.113852 130.924 30.3435)
(-0.219407 106.897 24.8921)
(-0.174351 70.0105 16.3857)
(0.0027218 37.1315 8.55124)
(0.0708786 19.2149 4.36889)
(-0.0431658 10.7696 2.30541)
(-0.140278 6.41648 1.11623)
(0.722976 6.10921 1.45442)
(78.6831 12.6377 3.97853)
(631.1 130.509 83.9597)
(470.94 758.696 478.754)
(-501.621 1026.15 588.097)
(-543.949 634.752 191.795)
(-130.504 66.6411 8.53792)
(-6.05697 0.905966 0.0292909)
(-0.0371006 -0.000163488 -6.00257e-06)
(-5.14487e-05 -0.000633663 0.000142411)
(1.98726e-06 -4.33225e-05 0.000777077)
(0.000389554 0.0119741 0.00854919)
(0.000223114 0.15052 0.0803114)
(-0.000402529 0.867807 0.442695)
(5.68479e-05 2.0697 1.0452)
(0.00170553 1.74246 0.896485)
(0.00504065 0.578404 0.324616)
(0.0105235 0.165471 0.0949326)
(0.0323808 0.228232 0.0673737)
(0.171312 0.56564 0.0740276)
(1.56031 2.35429 0.489339)
(9.12703 10.9495 3.51466)
(17.4808 57.2562 27.7706)
(6.48761 286.64 170.359)
(-11.4026 504.152 328.167)
(-14.6471 431.626 298.769)
(-7.66751 188.666 138.425)
(-1.14093 27.59 19.9658)
(0.0037163 3.18526 1.35303)
(0.0300817 3.2591 1.15063)
(0.0535946 4.6056 1.68601)
(0.03526 5.94007 2.26697)
(0.0325377 6.06538 2.32343)
(0.0867549 5.64293 2.2366)
(0.065423 4.37618 1.94105)
(-0.0655008 2.51296 1.28188)
(-0.121163 0.84818 0.453215)
(-0.0536374 0.199738 -0.012532)
(0.164949 0.123536 -0.134515)
(0.273609 0.0345694 -0.391731)
(0.107473 0.10678 -0.143228)
(-0.123404 0.777927 0.849722)
(-0.229848 1.35623 1.06753)
(-0.147654 1.44443 0.528818)
(-0.0194575 1.45032 0.269436)
(0.428486 1.40686 0.222392)
(0.707083 1.00162 0.0824458)
(0.299006 0.705875 0.0589234)
(-0.427718 0.479652 0.812258)
(-0.536341 0.772433 1.07294)
(-0.108717 0.860119 0.326224)
(0.00487169 0.98543 -0.18407)
(-0.0343387 1.10208 -0.235574)
(-0.129517 1.03542 -0.224913)
(-0.123581 0.999565 0.189681)
(-0.0334342 0.937011 1.13648)
(0.0937887 0.836435 0.963891)
(0.113038 0.595444 0.447681)
(-0.109371 0.455736 0.0569057)
(-0.128481 0.226084 -0.0368206)
(0.65755 -0.0476379 0.0240818)
(80.3261 0.219357 0.228773)
(769.923 81.7481 25.5958)
(696.477 658.027 327.435)
(-573.497 717.922 527.862)
(-769.622 236.678 195.194)
(-197.217 14.8058 7.41201)
(-7.29406 0.189814 0.0224063)
(-0.0146752 -4.52609e-05 1.04188e-05)
(0.000406153 -0.00057436 -0.000153)
(0.00139751 -0.000669864 7.72114e-05)
(0.00258407 0.0108299 -0.00360367)
(0.00556054 0.157742 -0.042154)
(0.00865065 0.891382 -0.336853)
(0.0124163 2.13895 -0.766909)
(0.0190883 1.92513 -0.176941)
(0.0204858 0.904661 0.977018)
(0.0189281 0.450097 1.14248)
(0.055169 0.348359 0.694531)
(0.274539 0.423854 0.0693034)
(1.6355 1.72847 -1.02028)
(8.1296 8.89013 -7.2396)
(28.0384 54.1771 -36.8274)
(48.9808 289.796 -102.105)
(24.6945 544.536 13.5222)
(-30.5116 496.116 147.008)
(-50.5175 241.337 162.146)
(-26.7535 46.4537 60.7973)
(-3.87068 5.05524 5.04021)
(-0.0983839 3.28653 -1.31138)
(-0.00504182 4.64103 -2.05024)
(0.000341028 6.03183 -2.61228)
(0.0195525 6.20047 -2.56761)
(0.103037 5.81208 -2.40285)
(0.147668 4.55228 -1.94992)
(0.0286345 2.59964 -1.13512)
(-0.112651 0.811237 -0.361643)
(-0.0850275 0.115448 -0.0584625)
(-0.00757071 0.0254793 -0.022329)
(0.172138 0.0319112 -0.284439)
(0.521029 0.0685152 -0.348329)
(0.293697 0.531288 -0.337793)
(-0.37422 1.11926 -0.367555)
(-0.454472 1.41708 -0.267902)
(-0.140058 1.49623 -0.225753)
(-0.00447252 1.46118 -0.244131)
(0.0631231 1.42848 -0.917507)
(0.555995 1.38356 -1.40392)
(0.644139 0.886013 -1.20317)
(-0.257103 0.590483 -0.284424)
(-0.676657 1.0166 -0.171795)
(-0.2849 1.33093 -0.272107)
(-0.0107101 1.23943 -0.406591)
(0.157298 1.10471 -0.307534)
(0.524788 0.659705 0.33043)
(0.251921 0.317631 1.05063)
(-0.322111 0.478576 0.848535)
(-0.34465 0.727057 0.525624)
(-0.208392 0.633725 0.313631)
(-0.0644679 0.201917 -0.005647)
(0.651358 0.0173795 0.0912865)
(78.3906 2.1865 5.42827)
(740.681 144.77 147.601)
(646.879 640.514 -604.438)
(-554.1 669.975 -1042.95)
(-718.235 217.112 -349.556)
(-187.264 13.1777 -16.3118)
(-7.05095 0.175479 -0.100979)
(-0.0131264 -4.03877e-05 6.22429e-06)
(0.00104298 9.53963 -1.80521)
(0.00186826 8.47105 -1.60614)
(0.0144583 8.93466 -1.67511)
(0.0380029 12.5084 -2.21884)
(0.0932992 29.6238 -5.11662)
(0.249827 79.9246 -13.4789)
(0.427371 144.004 -21.1514)
(0.235833 147.329 -10.9691)
(-0.175484 103.082 -0.902972)
(-0.348206 28.6346 8.28501)
(-0.19521 1.02401 3.98326)
(0.141918 -0.293315 -0.247133)
(3.20861 -1.61647 -2.89303)
(29.3659 -2.40427 -14.7329)
(112.931 124.385 -65.5032)
(120.446 988.475 -209.958)
(-12.3962 1458.22 -152.874)
(-119.618 1172.22 -18.5525)
(-100.976 433.181 69.7724)
(-30.1367 116.269 13.3753)
(-2.58668 101.579 -17.8392)
(0.0622654 121.873 -23.3864)
(0.128744 149.712 -28.8006)
(0.0780217 159.547 -30.7426)
(0.0157248 161.045 -31.1393)
(-0.0288786 159.923 -31.2052)
(-0.094419 150.568 -29.6221)
(-0.109034 122.258 -24.0703)
(-0.0433854 76.8017 -15.0123)
(0.00954179 31.4651 -5.96835)
(0.0772345 6.01677 -0.433905)
(0.182383 1.13498 0.293184)
(0.117979 1.23022 -0.426852)
(-0.0112519 4.18874 -1.43322)
(-0.0219257 13.2352 -2.74694)
(-0.00201988 31.6079 -6.0987)
(0.0224088 60.8557 -11.8655)
(0.036793 91.5776 -17.9171)
(0.0674776 104.401 -20.3739)
(0.106284 105.329 -20.8305)
(0.0576146 106.005 -20.9122)
(-0.026762 106.889 -20.6327)
(-0.0852848 107.908 -20.8882)
(-0.0586482 106.804 -20.8325)
(0.180441 98.7404 -19.2184)
(0.419732 76.9054 -15.0077)
(0.153514 47.079 -9.58527)
(-0.152823 23.6487 -4.57746)
(-0.150742 11.2363 -1.72185)
(-0.379738 5.28241 -0.501256)
(-0.294546 3.56263 -0.741986)
(3.08908 4.51243 -0.900806)
(151.823 23.9214 5.05296)
(536.934 372.307 261.533)
(225.27 952.946 -620.108)
(-465.886 960.811 -1075.38)
(-374.539 386.839 -376.09)
(-74.1102 34.4435 -19.2428)
(-2.53111 0.652553 -0.150066)
(-0.00533786 -0.000162164 1.7113e-05)
(7.90885e-05 0.285525 -0.0640307)
(0.0114923 0.146001 -0.0330401)
(0.0784843 1.61839 -0.361965)
(0.242733 7.9161 -1.60068)
(0.762203 26.5647 -5.00574)
(2.76509 67.117 -11.8675)
(7.37228 159.056 -30.7965)
(6.03958 387.967 -81.9292)
(-1.49028 502.093 -108.985)
(-6.80424 455.515 -99.2046)
(-6.34682 317.091 -69.3994)
(-1.79223 141.353 -31.0991)
(1.05126 33.6864 -6.84599)
(6.98618 18.2488 -2.68622)
(34.2254 15.4887 -30.3891)
(91.8487 66.406 -182.565)
(79.084 613.753 -349.524)
(-25.1887 1074.14 -367.547)
(-97.3868 800.637 -196.853)
(-72.7973 233.771 -48.5188)
(-16.7909 41.4302 -8.6589)
(-0.75158 31.7621 -6.75047)
(0.00697495 38.8743 -8.34592)
(-0.00941302 48.8215 -10.577)
(-0.0399654 50.226 -10.9345)
(-0.056031 48.8285 -10.6082)
(-0.0227494 44.2395 -9.4062)
(0.0272638 34.1606 -6.7272)
(0.104791 17.6541 -2.77778)
(0.343031 4.31812 0.247774)
(0.315957 0.293722 0.740047)
(0.0530122 -0.119955 0.143891)
(-0.257662 -0.157188 -0.284352)
(-0.34774 0.217249 -0.426364)
(-0.0937972 1.29258 -0.335337)
(-0.000355773 4.03401 1.34008)
(0.0188365 7.46935 0.811688)
(0.12955 8.90205 0.0427873)
(0.497566 8.56985 -1.42258)
(0.555096 7.8892 -1.40025)
(-0.0122834 6.70998 -1.16283)
(-0.461295 4.66276 -0.989533)
(-0.353581 3.69082 -1.07613)
(-0.0428586 3.90552 -0.665723)
(0.1375 5.55434 -0.464665)
(0.199519 9.29447 -1.51468)
(0.121471 10.3904 -2.1512)
(0.0252982 9.71972 -1.93428)
(-0.0981409 8.17825 -1.98495)
(-0.412329 6.24718 -1.79348)
(-0.260605 5.00646 -1.22614)
(6.10007 1.67373 -1.32665)
(233.255 -35.6157 -1.54944)
(480.263 315.367 205.385)
(32.5101 1162.87 -30.8215)
(-449.055 1171.94 -323.468)
(-264.763 363.27 -136.917)
(-37.2021 23.5578 -7.80779)
(-0.925271 0.360707 -0.0767895)
(-0.00382391 -7.91915e-05 1.17055e-05)