/*--------------------------------*- C++ -*----------------------------------*\
| =========                 |                                                 |
| \\      /  F ield         | OpenFOAM: The Open Source CFD Toolbox           |
|  \\    /   O peration     | Version:  2.1.1                                 |
|   \\  /    A nd           | Web:      www.OpenFOAM.org                      |
|    \\/     M anipulation  |                                                 |
\*---------------------------------------------------------------------------*/
FoamFile
{
    version     2.0;
    format      ascii;
    class       volScalarField;
    location    "0.0013";
    object      k;
}
// * * * * * * * * * * * * * * * * * * * * * * * * * * * * * * * * * * * * * //

dimensions      [0 2 -2 0 0 0 0];

internalField   nonuniform List<scalar> 
36520
(
0.114751
0.21578
0.406621
0.503087
0.586996
0.646935
0.69659
0.73662
0.772094
0.803848
0.827883
0.841045
0.836346
0.813276
0.772174
0.718878
0.665451
0.61805
0.579706
0.546713
0.514502
0.482306
0.449339
0.416232
0.383524
0.352248
0.322071
0.2934
0.266254
0.240753
0.216646
0.193986
0.172728
0.153195
0.135666
0.120403
0.10751
0.0969526
0.0885544
0.0823091
0.0785432
0.0781149
0.0825392
0.0930201
0.108663
0.125699
0.13895
0.136486
0.114729
0.0867729
0.0594562
0.0371622
0.0214926
0.0113791
0.00541816
0.00232279
0.000993308
0.000481783
0.00038598
0.0004692
0.0738036
0.10589
0.134392
0.133929
0.135566
0.132876
0.132875
0.132315
0.133919
0.132884
0.127127
0.113676
0.0934709
0.0711731
0.0538816
0.04701
0.0447351
0.042575
0.040603
0.0386318
0.0365046
0.0343472
0.0322395
0.0303196
0.0285151
0.0269529
0.0255944
0.0242588
0.0226514
0.0207282
0.0185053
0.0161443
0.0139047
0.0120715
0.0108371
0.0102248
0.0101491
0.0104942
0.0111915
0.0122741
0.0139182
0.016516
0.0207061
0.0270992
0.0357267
0.0456778
0.0558756
0.0622346
0.0637412
0.0627763
0.0607546
0.0569987
0.0476858
0.0322893
0.0183473
0.00907119
0.00350785
0.000756973
0.000111244
0.000169179
0.0365534
0.0333787
0.0355686
0.0304847
0.0278286
0.0245512
0.0231605
0.021946
0.0218297
0.0211633
0.0194151
0.0162389
0.0125894
0.0102199
0.010427
0.0135684
0.0133282
0.0077451
0.00442465
0.0035277
0.00327174
0.00315607
0.00309549
0.00308253
0.0030827
0.00310082
0.00314105
0.00320522
0.00323499
0.0032177
0.00316913
0.00312885
0.00315165
0.00328711
0.00355377
0.0039507
0.00448046
0.00516333
0.0060429
0.00721068
0.00885167
0.0113054
0.015151
0.0212185
0.0305394
0.0443927
0.0649458
0.0961558
0.134553
0.170612
0.198554
0.199032
0.15351
0.0986332
0.0562278
0.0301385
0.013394
0.00361996
0.000408056
0.000172135
0.0185986
0.0107094
0.00944474
0.00713166
0.00612697
0.0053669
0.00546707
0.00603098
0.0074489
0.00967802
0.0133892
0.01985
0.0315341
0.0512667
0.080755
0.122336
0.120001
0.061437
0.0196795
0.00684342
0.00426489
0.00389313
0.00404025
0.00433446
0.00459615
0.00470533
0.00470754
0.00492986
0.00551213
0.00620572
0.00700474
0.00789443
0.0087949
0.00956447
0.0100597
0.0102944
0.0104547
0.0108074
0.0115251
0.0125893
0.014133
0.0163582
0.0196458
0.0247886
0.0329165
0.0455977
0.0655764
0.0990977
0.166314
0.270161
0.397315
0.457486
0.385635
0.236328
0.138006
0.0770463
0.0383995
0.012498
0.00167882
0.000263611
0.0107148
0.00383142
0.00332936
0.00342751
0.00490224
0.00794085
0.0133313
0.0220952
0.0359461
0.0585888
0.0973208
0.165036
0.281605
0.464047
0.704693
0.987081
0.949055
0.55994
0.22317
0.0862188
0.0496922
0.0435255
0.0460977
0.0513893
0.0558007
0.0567783
0.0542274
0.0536808
0.058674
0.070434
0.0853133
0.103273
0.122438
0.138679
0.147116
0.146594
0.141189
0.119934
0.0959391
0.0706546
0.0502099
0.0410687
0.0400296
0.0419012
0.0475039
0.0570635
0.0731516
0.0997355
0.146081
0.218992
0.339202
0.441513
0.487078
0.455323
0.298907
0.17324
0.0925077
0.0332162
0.00553685
0.000587731
0.00818274
0.00400382
0.00750353
0.0149195
0.0286101
0.0528679
0.0922955
0.154333
0.249406
0.404717
0.668787
1.12594
1.87811
2.96917
4.19259
5.20814
4.95997
3.43953
1.83162
0.955947
0.636817
0.556001
0.558316
0.593402
0.622318
0.628622
0.609742
0.600038
0.617937
0.68564
0.819764
1.00152
1.2189
1.4284
1.56058
1.57143
1.50066
1.32791
1.13293
0.920038
0.682867
0.493757
0.299702
0.168044
0.152877
0.152976
0.159097
0.17088
0.194941
0.254348
0.337029
0.417344
0.468346
0.472745
0.431171
0.343343
0.209672
0.0751456
0.014897
0.00149375
0.0169113
0.0224225
0.0496104
0.0994344
0.183439
0.323192
0.529113
0.818606
1.20697
1.79647
2.73598
4.27065
6.58746
9.54597
12.3458
13.8385
13.8282
12.0514
8.88226
6.24774
4.91394
4.32404
4.02175
3.82526
3.65053
3.47288
3.28582
3.14367
3.05054
3.06832
3.24003
3.588
4.09362
4.66706
5.21417
5.58079
5.66486
5.36136
4.82256
4.2242
3.50797
2.87593
2.22661
1.47336
1.00445
0.766274
0.590642
0.441345
0.380789
0.367845
0.38025
0.397638
0.401879
0.391714
0.360601
0.316418
0.270115
0.150782
0.0345949
0.003622
0.069013
0.10447
0.224404
0.447896
0.804536
1.38751
2.1126
3.04145
3.91388
4.76321
6.17786
8.17848
10.5467
12.9649
15.2912
17.2128
18.3689
18.5517
17.934
17.02
16.0107
15.0042
13.869
12.5044
10.9889
9.66409
8.78527
8.22553
7.86269
7.62072
7.54129
7.6277
7.86469
8.21984
8.62267
8.9682
9.15051
9.0048
8.4926
7.76923
6.86343
5.87434
4.93856
3.95252
3.05727
2.39681
1.89707
1.44458
1.05455
0.850965
0.712812
0.637485
0.557784
0.462968
0.370648
0.297686
0.250071
0.175845
0.0636781
0.00807414
0.120982
0.255243
0.670788
1.21156
1.74031
2.32951
2.69127
3.06499
3.52664
4.11327
4.87654
5.81092
6.93444
8.2042
9.38722
10.4131
11.2675
12
12.6372
13.1892
13.6554
13.9229
13.9942
13.9037
13.6255
13.0433
12.1023
11.0644
10.1991
9.52251
8.99221
8.57988
8.28207
8.07787
7.92965
7.80823
7.68819
7.5485
7.31561
6.95458
6.46197
5.83071
5.10286
4.34163
3.56293
2.85649
2.32739
1.9636
1.663
1.42288
1.28208
1.07256
0.82832
0.617144
0.435981
0.310018
0.235569
0.17487
0.085803
0.0174327
0.0936057
0.182331
0.554138
0.871966
1.20461
1.51586
1.7664
1.94794
2.10266
2.32955
2.69257
3.19083
3.81723
4.54655
5.3182
6.02316
6.62089
7.03337
7.25084
7.40723
7.68352
8.16148
8.75355
9.37065
10.003
10.6683
11.2968
11.5247
11.0322
10.0232
8.94579
8.04187
7.38141
6.952
6.71105
6.60232
6.55853
6.49016
6.33045
6.04592
5.62026
5.08931
4.47497
3.8108
3.1237
2.43227
1.78396
1.25067
0.905169
0.726783
0.605656
0.507419
0.428293
0.348044
0.268022
0.214543
0.185999
0.156001
0.0866831
0.0193026
0.0696277
0.160809
0.620845
1.22984
1.55861
1.92947
2.14958
2.2486
2.32373
2.52362
2.91442
3.63453
4.79429
6.16623
7.47114
8.65718
9.65951
10.363
10.7069
10.8271
10.9544
11.197
11.6298
12.2332
12.9945
13.8843
14.8026
15.4992
15.4998
14.4842
12.9759
11.683
10.8013
10.3781
10.3157
10.4852
10.751
10.9469
10.922
10.6122
10.0113
9.19805
8.21836
7.05953
5.7578
4.36089
3.01371
1.91796
1.21903
0.869036
0.697897
0.58243
0.492273
0.400851
0.312912
0.252374
0.217419
0.172031
0.0895739
0.0203331
0.0768197
0.147541
0.367312
0.77628
1.27962
1.89828
2.25755
2.48351
2.51428
2.79638
3.39971
4.44435
5.97213
7.68811
9.21502
10.6717
12.2501
13.6085
14.1302
14.5212
15.2773
15.9415
16.4984
17.1439
17.91
18.6457
19.1379
19.0989
18.2235
16.5944
14.6601
13.058
12.2174
12.0891
12.4574
13.056
13.6773
14.1172
14.1901
13.8556
13.073
11.9151
10.434
8.62717
6.61293
4.61475
2.89129
1.61592
0.937996
0.724712
0.730703
0.717595
0.644915
0.571454
0.468552
0.37497
0.309265
0.229191
0.0958393
0.016062
0.0855199
0.152438
0.305858
0.597048
0.97357
1.66621
2.27104
2.58466
2.67322
2.88203
3.38918
4.13294
4.89701
5.53179
6.20934
7.27004
8.95629
11.485
14.0593
15.5797
16.502
17.2333
17.6566
18.1064
18.6172
19.0848
19.4082
19.366
18.5363
16.8597
14.7534
12.9074
12.0027
11.952
12.3958
13.0714
13.7735
14.2193
14.1504
13.6336
12.783
11.5884
10.0679
8.1211
5.80676
3.58749
2.04281
1.15089
0.760922
0.728416
0.88247
0.920616
0.855188
0.735565
0.58027
0.445005
0.351105
0.249623
0.0990813
0.0158665
0.0785949
0.20576
0.783468
1.24977
1.64437
2.43467
3.41589
4.06193
4.06153
3.54421
3.02161
2.86187
3.05713
3.42791
3.90611
4.53037
5.47749
7.05433
9.42636
11.7516
13.165
13.9082
14.5148
14.9775
15.3061
15.555
15.8466
16.2294
16.3022
15.2054
13.2283
11.6118
10.5855
10.1124
10.0544
10.2106
10.3963
10.4512
10.2662
9.83122
9.16907
8.33766
7.39835
6.33047
5.0824
3.50876
2.07097
1.18508
0.758216
0.627942
0.607561
0.575528
0.527719
0.452715
0.378511
0.319801
0.282264
0.205763
0.0894789
0.0189919
0.0801693
0.078943
0.42662
0.723288
0.911943
1.07661
1.18359
1.37327
1.72008
2.17064
2.60952
3.03745
3.60777
4.12128
4.42766
4.72018
5.17779
6.31022
8.56656
11.4759
13.5227
14.2653
14.4513
14.7901
15.321
15.7138
15.6454
14.8141
13.2561
11.5731
10.2332
9.34419
8.87444
8.73116
8.79926
8.90933
8.89562
8.62899
8.04016
7.14914
6.18345
5.31558
4.52324
3.76082
2.98914
2.18944
1.46689
0.955642
0.659348
0.516443
0.440178
0.383374
0.338946
0.30179
0.271304
0.253308
0.240323
0.164516
0.0633521
0.0129493
0.084411
0.121138
0.402063
0.767121
1.24485
1.95013
2.90481
3.92364
4.65037
4.95859
5.39965
6.22502
7.42546
8.71223
9.98316
11.5647
13.5717
15.884
18.3051
19.0849
17.5259
15.8626
15.06
14.7378
14.5852
14.2876
13.4187
12.0144
10.6213
9.59242
8.95724
8.55742
8.31486
8.11493
7.7921
7.3388
6.81333
6.20712
5.50969
4.77968
4.08096
3.46647
2.92658
2.42001
1.953
1.51259
1.12583
0.823324
0.625299
0.525832
0.481567
0.438043
0.382999
0.332065
0.288175
0.261451
0.242091
0.156256
0.0555334
0.0105723
0.0630046
0.104901
0.264983
0.610717
1.2737
2.00447
2.59604
3.14517
3.76085
4.6189
5.94222
7.93447
10.7216
14.1105
17.0477
18.3916
18.2678
17.3516
16.1034
14.6158
13.3146
12.8176
12.787
12.6907
12.1969
11.2411
9.97781
8.76875
7.90195
7.45554
7.32476
7.37196
7.5757
7.84739
8.09694
8.13947
7.85038
7.25659
6.46497
5.57932
4.65074
3.7251
2.87818
2.19202
1.68492
1.33326
1.07749
0.918878
0.900014
1.02887
1.09127
0.963163
0.741432
0.542068
0.400025
0.310981
0.25685
0.155602
0.0455623
0.0059018
0.0152187
0.016113
0.0376834
0.0786853
0.153218
0.272617
0.437639
0.660755
0.874006
1.17794
1.64483
2.39803
3.50975
4.80523
5.8348
6.40905
6.63237
6.66058
6.27292
5.47882
4.73459
4.52799
4.60949
4.59939
4.32357
3.77401
3.08673
2.47444
2.05147
1.84993
1.782
1.81593
1.88337
1.98462
2.1213
2.28928
2.39313
2.34163
2.17677
1.92119
1.64268
1.45438
1.29716
1.20568
1.19509
1.27435
1.44364
1.712
1.93678
1.94299
1.70329
1.33853
0.990972
0.721028
0.523074
0.382149
0.28481
0.147325
0.0314385
0.00306564
0.0114489
0.00310365
0.00553864
0.0110961
0.0213829
0.0378316
0.0605249
0.0881025
0.119969
0.159903
0.217225
0.302093
0.421286
0.571085
0.737664
0.919902
1.11669
1.21641
1.1161
0.858841
0.65023
0.606048
0.643269
0.665223
0.614704
0.492752
0.338464
0.20891
0.132513
0.111094
0.114126
0.1178
0.122492
0.128851
0.135917
0.141584
0.145253
0.146834
0.148778
0.154058
0.167562
0.19538
0.240756
0.314231
0.431477
0.598088
0.841122
1.1009
1.31805
1.51023
1.53703
1.393
1.21382
1.00118
0.737555
0.493963
0.301202
0.108204
0.0172352
0.00154906
0.0168369
0.003411
0.00210552
0.00190754
0.0027529
0.00435602
0.00667302
0.00939926
0.0125066
0.0162096
0.0212317
0.0280991
0.0375279
0.0499744
0.0663243
0.0876147
0.116134
0.129091
0.108734
0.0726439
0.0516475
0.0501874
0.056749
0.0614006
0.0567315
0.0436076
0.0287495
0.0190526
0.0153302
0.0152764
0.0161636
0.0172397
0.0186011
0.0203739
0.0226873
0.0256821
0.0296444
0.0348333
0.0417414
0.0511301
0.0644977
0.0849714
0.117356
0.169744
0.257433
0.39912
0.607361
0.874663
1.1596
1.25733
1.16962
0.969401
0.765826
0.62794
0.492593
0.33128
0.175547
0.0599843
0.00904637
0.000798034
0.0274154
0.0104931
0.00660282
0.00390047
0.00299803
0.00243544
0.00239231
0.0024976
0.00273652
0.00287091
0.00295807
0.00308665
0.0034563
0.00418849
0.00537169
0.00705321
0.00928929
0.00972149
0.00785844
0.00575041
0.00509356
0.0054811
0.00618328
0.00667381
0.00652509
0.00589751
0.00529539
0.00507112
0.00518217
0.00553473
0.00602934
0.0066519
0.00744682
0.00847893
0.00982898
0.0116161
0.0140425
0.0174174
0.0222657
0.0295093
0.0409
0.0595693
0.0907102
0.142552
0.225618
0.345773
0.498848
0.676575
0.802713
0.800088
0.672083
0.500153
0.370254
0.302107
0.252563
0.179859
0.0981871
0.0332896
0.00462912
0.000451974
0.0420839
0.0329487
0.0272815
0.0193253
0.0161026
0.0132466
0.0123809
0.0118164
0.0116982
0.0108417
0.00920273
0.00696708
0.00475571
0.00314345
0.0023008
0.00213159
0.00225774
0.0023135
0.00231981
0.00236463
0.0024797
0.00263294
0.00279778
0.00295909
0.00310592
0.00325766
0.0034358
0.00366004
0.00393487
0.00425383
0.00457162
0.00491946
0.00534651
0.00593704
0.00678757
0.00802817
0.00987029
0.0126684
0.0170045
0.0238726
0.0350707
0.0537934
0.0855573
0.139616
0.231381
0.379915
0.579696
0.726009
0.727415
0.607093
0.43843
0.278865
0.169236
0.110423
0.0784813
0.0568276
0.0314505
0.0100552
0.00107162
0.000200427
0.084188
0.105796
0.116036
0.104346
0.100364
0.0943875
0.093557
0.0925331
0.0922623
0.0891021
0.0820274
0.0712269
0.0584513
0.0464908
0.0375909
0.0329834
0.0308531
0.0292175
0.0278585
0.0266495
0.0254457
0.0242303
0.0230266
0.0219369
0.021
0.0202844
0.0197523
0.0193592
0.0190369
0.0185342
0.0177637
0.0168364
0.0158671
0.0150315
0.0145026
0.0144404
0.0150014
0.0163408
0.0185579
0.0218361
0.026521
0.0332618
0.043191
0.0579801
0.0810103
0.107026
0.129517
0.135809
0.119411
0.0894852
0.0609382
0.0397535
0.0269257
0.0192489
0.0145045
0.0108856
0.00617608
0.00164881
0.000161725
0.000158504
0.165846
0.256656
0.420986
0.49317
0.554512
0.596103
0.630633
0.658917
0.683217
0.702718
0.71502
0.718144
0.710582
0.692776
0.665722
0.632182
0.595645
0.559949
0.524906
0.490368
0.456168
0.422209
0.388255
0.355825
0.325118
0.297356
0.272101
0.248993
0.227088
0.206512
0.187479
0.170168
0.154457
0.140365
0.127901
0.117265
0.108608
0.102196
0.0981989
0.0966246
0.0974265
0.100305
0.104544
0.107914
0.106816
0.0970249
0.0831513
0.0676175
0.0520415
0.0380536
0.0265635
0.0175944
0.0112073
0.00681505
0.0039962
0.00222348
0.00115341
0.000485895
0.00034138
0.000399653
0.136265
0.235633
0.393551
0.468145
0.534614
0.575672
0.611999
0.637553
0.656931
0.671515
0.678912
0.682187
0.677236
0.667516
0.649804
0.627565
0.599505
0.56809
0.533595
0.496534
0.458765
0.4218
0.385974
0.351932
0.319597
0.289592
0.261692
0.236207
0.2129
0.191781
0.17247
0.154879
0.13896
0.1249
0.11275
0.102504
0.0942183
0.0880786
0.084311
0.0831283
0.084794
0.089394
0.0963189
0.103393
0.104274
0.0949536
0.0800449
0.0638992
0.0488771
0.036173
0.0260404
0.018191
0.0123965
0.0081718
0.00523013
0.00327191
0.00183155
0.000647094
0.000343408
0.000409436
0.0688896
0.0821918
0.0950123
0.0856061
0.080336
0.073245
0.0708068
0.0670137
0.0655646
0.0639248
0.062969
0.0609183
0.0588006
0.0548524
0.0507677
0.046102
0.0417642
0.0380808
0.0347969
0.0320371
0.0295496
0.0273574
0.025416
0.0235947
0.0219797
0.0205707
0.0193745
0.0184252
0.0176297
0.0168904
0.0161095
0.0152983
0.0145578
0.014019
0.0137407
0.0137716
0.0143006
0.0154573
0.0173593
0.0202013
0.0243092
0.0301177
0.0380893
0.0488702
0.0582895
0.0627751
0.0620508
0.0573249
0.0509159
0.0442529
0.0380604
0.0325155
0.0277186
0.0234689
0.0195099
0.0155735
0.0096059
0.00276951
0.000239135
0.000164378
0.0313251
0.0217984
0.0185268
0.0126662
0.00976303
0.00732223
0.00636911
0.00539788
0.00508372
0.0048337
0.00477556
0.00465182
0.00450434
0.00414018
0.00378777
0.00341218
0.00312017
0.00294323
0.00283885
0.00280867
0.00282316
0.00287168
0.00294811
0.00304034
0.00315607
0.00328981
0.00344499
0.00364777
0.00390365
0.00420324
0.00454397
0.00494977
0.00546151
0.00613579
0.00703545
0.00825392
0.00992741
0.0122576
0.0155534
0.0203105
0.0274893
0.0387734
0.0572469
0.0879042
0.138579
0.223681
0.301575
0.32999
0.313374
0.269111
0.216227
0.170181
0.134711
0.108343
0.0858543
0.0652398
0.0391501
0.0128947
0.00132277
0.000201551
0.0181062
0.00622393
0.00376333
0.00196014
0.00131754
0.000895772
0.000777957
0.000695282
0.000725905
0.000784917
0.000899817
0.0010452
0.00123286
0.00145835
0.00175006
0.00210957
0.00253276
0.00300581
0.00351934
0.00407331
0.00466289
0.00525482
0.00582958
0.00639031
0.00694773
0.00752632
0.00804182
0.00845243
0.00889711
0.0093918
0.00998481
0.0108039
0.0120189
0.0138509
0.0165627
0.0205051
0.0261608
0.0343396
0.0462631
0.0639317
0.0917524
0.13786
0.219208
0.367869
0.640619
1.1111
1.8865
2.58114
2.79745
2.46976
1.81049
1.16513
0.71634
0.464156
0.322991
0.218241
0.12206
0.0408688
0.0056948
0.000451358
0.011105
0.00202303
0.000952977
0.000527599
0.000491476
0.000563419
0.000749644
0.00103497
0.00147563
0.00212564
0.00311651
0.00461842
0.00693721
0.0104144
0.015394
0.0220362
0.0301282
0.0389
0.0476588
0.0563836
0.0655091
0.0733946
0.0774084
0.0787277
0.0792758
0.0779519
0.0736247
0.0660072
0.0583275
0.0540173
0.0502304
0.0465147
0.0433597
0.0416914
0.0423679
0.0459549
0.0532028
0.063609
0.0782071
0.0985963
0.132134
0.186374
0.276489
0.432991
0.707486
1.19083
2.17373
4.12413
5.5211
5.54985
4.5226
2.79786
1.43963
0.895728
0.699751
0.507485
0.293705
0.0992419
0.0172165
0.00122406
0.00760394
0.000947738
0.000725839
0.000923888
0.00137659
0.00209297
0.00321597
0.00502266
0.00801892
0.0129994
0.0214804
0.0361115
0.0619057
0.106227
0.178138
0.284026
0.42178
0.576295
0.723802
0.851259
0.965025
1.05368
1.08539
1.08177
1.05623
1.00339
0.910084
0.779032
0.658019
0.604747
0.573087
0.542458
0.499017
0.441732
0.377332
0.308892
0.248157
0.207926
0.206394
0.174843
0.172046
0.206952
0.277434
0.399059
0.60808
0.976064
1.72165
3.47585
5.67505
7.06035
6.64605
4.62895
2.50302
1.48688
1.03759
0.690333
0.405318
0.179203
0.0365177
0.00231389
0.00699051
0.00233747
0.00412362
0.00686991
0.0101046
0.0147254
0.0221557
0.0352444
0.0590947
0.101873
0.175625
0.304109
0.529086
0.90763
1.48396
2.25619
3.17461
4.17405
5.12179
5.89436
6.56596
7.00499
7.2266
7.32347
7.30171
7.13988
6.79025
6.24448
5.63868
5.31442
5.28041
5.42197
5.61258
5.74618
5.76665
5.50275
4.93852
4.12971
3.42942
2.52914
1.78073
1.11019
0.741736
0.723121
0.824057
1.0162
1.44303
2.35182
3.66377
4.79431
4.87899
4.15202
2.92452
1.91073
1.20364
0.714845
0.408761
0.195355
0.0481122
0.00375386
0.0159881
0.0192301
0.0423718
0.077503
0.116518
0.167169
0.244952
0.368043
0.597968
0.988304
1.52608
2.21886
3.21828
4.73429
6.84373
9.25538
11.6053
13.8735
16.0029
17.6172
18.7462
19.471
19.8359
20.0023
19.9462
19.6377
19.1438
18.4522
17.5039
16.5037
16.0113
16.1502
16.8128
17.7853
18.9927
20.0754
20.6411
20.1903
18.7956
16.3523
13.3306
10.2877
7.41959
5.20558
3.80016
3
2.59354
2.4986
2.6822
3.00356
2.93395
2.49214
1.91564
1.3003
0.832702
0.522762
0.338149
0.185499
0.0523661
0.00562313
0.105076
0.228686
0.579089
1.02497
1.62921
2.2946
2.8865
3.26914
3.98118
5.31936
6.26412
7.26918
8.68924
10.5003
12.6988
15.1999
17.6982
19.889
21.7238
23.16
24.1366
24.7406
25.0119
25.0292
24.8053
24.4071
23.8493
23.1359
22.3636
21.5544
20.6795
20.0234
19.7574
19.7601
19.8472
19.8223
19.4306
18.4919
17.0442
15.4431
13.7899
12.157
10.449
8.55673
6.56998
4.8557
3.57703
2.70223
2.14312
1.81232
1.64246
1.41898
1.11177
0.798191
0.552062
0.386065
0.291364
0.176336
0.0550547
0.0079465
0.159645
0.483397
1.34481
2.63302
4.33107
5.87519
7.83
10.5479
13.1308
13.883
12.8703
11.5705
10.7254
10.3796
10.4668
10.861
11.4903
12.2741
13.1419
14.0098
14.7331
15.2372
15.5117
15.602
15.6071
15.607
15.6574
15.6725
15.4326
14.88
14.292
13.7291
13.1322
12.521
11.8912
11.2277
10.5097
9.73601
8.83913
7.84956
6.81052
5.76799
4.74341
3.77098
2.87034
2.08805
1.49022
1.082
0.845472
0.720552
0.636589
0.558567
0.461723
0.363312
0.284865
0.234876
0.212304
0.161899
0.0728558
0.0140654
0.11766
0.274316
1.87638
4.19101
6.2478
7.29579
7.74139
8.37194
9.21781
10.0536
11.1172
11.9164
11.3884
10.3784
9.90347
9.8122
9.75678
9.60157
9.48076
9.55183
9.77372
9.97969
10.0484
9.93927
9.66697
9.27858
8.82995
8.36408
7.88848
7.43691
7.00767
6.57259
6.14277
5.76728
5.48105
5.32743
5.27167
5.21951
5.11737
4.94607
4.62921
4.11178
3.4614
2.77872
2.1332
1.54288
1.05004
0.70327
0.501488
0.394212
0.324501
0.274996
0.240858
0.213958
0.195369
0.189501
0.194363
0.156462
0.0733303
0.0153338
0.0906938
0.150559
0.652041
1.01614
1.12948
1.13055
1.19038
1.39068
1.80002
2.5843
4.28559
7.306
10.432
11.8802
12.1362
12.4694
12.815
13.0203
13.3031
13.6547
13.8452
13.6988
13.2405
12.5984
11.8212
10.9178
9.94018
8.9877
8.11936
7.3775
6.76354
6.30263
6.01952
5.90402
5.94147
6.08785
6.26534
6.38968
6.4083
6.24274
5.76747
4.94873
3.88903
2.77882
1.81112
1.10842
0.667868
0.427194
0.312309
0.25601
0.22181
0.202261
0.196788
0.194804
0.194687
0.201621
0.204624
0.152325
0.0694841
0.0160191
0.0939211
0.196591
0.979063
1.79562
2.27111
2.56635
2.70608
2.83234
3.09691
3.77708
5.16508
6.96982
8.2747
9.05715
10.2372
11.9258
13.5298
14.2097
13.9283
13.5866
13.52
13.5739
13.5548
13.3846
12.9659
12.2482
11.2879
10.215
9.17275
8.28848
7.58806
7.0755
6.77137
6.65624
6.71854
6.91284
7.15967
7.35395
7.39964
7.22285
6.6968
5.73106
4.40321
3.07624
2.00373
1.2369
0.740288
0.447887
0.308647
0.248468
0.213557
0.195952
0.194729
0.195391
0.19444
0.199321
0.204209
0.158312
0.0736992
0.0167789
0.0949646
0.227672
0.737908
1.50679
2.06946
2.67743
3.08248
3.39622
3.62814
3.94444
4.53208
5.39969
6.12169
6.70283
7.45335
8.27827
8.82457
9.01742
9.2075
9.55376
10.0007
10.4808
10.9199
11.2879
11.5771
11.7132
11.4737
10.7371
9.77334
8.8892
8.1707
7.65152
7.38151
7.32835
7.45834
7.72057
8.02139
8.22987
8.21995
7.92663
7.287
6.32564
5.12253
3.86057
2.73987
1.81454
1.1359
0.734068
0.527156
0.416195
0.350853
0.310403
0.284363
0.260188
0.233471
0.214238
0.207072
0.178879
0.0931367
0.0199209
0.15781
0.40682
0.757563
1.10195
1.37492
1.8954
2.37951
2.94941
3.56137
4.15358
4.96757
6.27653
7.94455
9.65508
11.3736
12.7564
13.2021
13.1649
13.2806
13.6788
14.2621
14.8428
15.3282
15.7311
16.1215
16.5624
16.7435
16.3628
15.451
14.3129
13.3856
12.7836
12.509
12.5463
12.8887
13.4074
13.8131
13.8046
13.1759
12.0268
10.3914
8.34564
6.19595
4.32815
2.89435
1.86168
1.16912
0.74734
0.503389
0.375941
0.349049
0.377295
0.372523
0.331404
0.288573
0.251598
0.225943
0.192597
0.104207
0.0219677
0.185536
0.235733
0.318834
0.485382
0.737889
1.07367
1.50853
2.13888
3.09621
4.33567
6.09052
8.49338
11.3149
13.9959
15.861
16.5992
16.8945
17.4929
18.4451
19.6326
20.8021
21.5933
21.9418
21.9435
21.6921
21.0653
19.8258
18.1201
16.3737
14.942
13.962
13.4447
13.5737
14.2299
14.9712
15.4218
15.3309
14.3924
12.6641
10.5252
8.06347
5.65587
3.74055
2.38501
1.52744
1.00528
0.673185
0.475117
0.385127
0.407388
0.568806
0.708101
0.699764
0.602286
0.483046
0.379614
0.304786
0.230034
0.100833
0.014593
0.0885929
0.164396
0.36193
0.679513
1.08225
1.65118
2.34491
3.30178
4.71743
6.93069
9.75305
12.9233
15.9498
18.4231
19.9357
20.3917
20.4776
20.8757
21.7119
22.953
24.1341
24.8519
25.0928
24.8697
24.1526
23.0503
21.6304
19.9457
18.2091
16.8171
16.0293
15.8371
16.0979
16.5045
16.7529
16.6422
16.0375
14.8345
13.1434
11.0623
8.57198
5.88226
3.55941
1.99096
1.13144
0.753994
0.589777
0.549178
0.617389
0.809063
1.02935
1.096
1.00897
0.831675
0.645753
0.492134
0.374317
0.261049
0.104068
0.0138
0.0344293
0.0464654
0.108304
0.219854
0.396632
0.658907
1.0381
1.61028
2.46616
3.78804
5.62235
7.69855
9.27869
10.132
10.3606
10.2996
10.4554
11.1483
12.1376
12.9289
13.4735
13.8099
13.9181
13.7908
13.5398
13.1739
12.5947
11.9558
11.4889
11.2748
11.2964
11.462
11.7195
11.9434
11.9357
11.3951
10.3038
8.70878
6.99465
5.30235
3.82711
2.57495
1.68382
1.13427
0.866895
0.777796
0.799352
0.941182
1.20402
1.45939
1.48542
1.33891
1.09018
0.826993
0.62463
0.474783
0.35251
0.181173
0.0457514
0.00552846
0.0143213
0.00419092
0.0079676
0.0157864
0.0295253
0.0526816
0.092259
0.160765
0.276938
0.464642
0.73336
1.05578
1.40402
1.53983
1.46964
1.32449
1.28345
1.45101
1.66038
1.87209
2.09137
2.33095
2.57415
2.81295
2.94208
2.9524
2.84495
2.71672
2.59824
2.52857
2.54494
2.62827
2.7102
2.78886
2.87603
2.88503
2.64858
2.24303
1.81682
1.36406
1.05441
0.829624
0.718297
0.72939
0.891719
1.10375
1.4063
1.9011
2.43454
2.70103
2.69308
2.41384
1.93968
1.44985
0.989731
0.586782
0.26529
0.0917009
0.0200427
0.00228088
0.0207766
0.00328422
0.00182008
0.00162438
0.00211263
0.00298729
0.00442491
0.00669112
0.0103544
0.0160667
0.0240894
0.033909
0.045775
0.0589244
0.0536214
0.0421176
0.0401014
0.0491747
0.0589104
0.0700843
0.0832123
0.0987436
0.115354
0.132027
0.149373
0.153415
0.144281
0.133574
0.128089
0.134981
0.143139
0.151132
0.160462
0.173814
0.193564
0.222776
0.244109
0.230576
0.200053
0.161391
0.152621
0.165257
0.210392
0.288017
0.415121
0.623795
1.01692
1.69352
2.30943
2.30651
2.0136
1.61541
1.23684
0.883788
0.556381
0.302357
0.136181
0.0469377
0.00841004
0.000926657
0.026806
0.00951465
0.00550857
0.00312482
0.00227012
0.00169826
0.00151485
0.00135596
0.00133061
0.00133474
0.00141362
0.001538
0.00170064
0.00193058
0.0021303
0.00223576
0.00252817
0.00289708
0.00324757
0.00361274
0.00400114
0.00443505
0.00488648
0.00534551
0.0058065
0.00628409
0.00682461
0.00745879
0.00815901
0.00891457
0.00971146
0.0105852
0.0116367
0.012964
0.0146409
0.016712
0.0191647
0.0223268
0.0266488
0.0330651
0.0437056
0.0614635
0.0932425
0.153051
0.266002
0.473544
0.828135
1.31089
1.47617
1.31289
0.991626
0.686992
0.48208
0.3424
0.235074
0.139381
0.0650557
0.0212903
0.00290562
0.000374071
0.0410531
0.0309253
0.0243252
0.0169406
0.0136328
0.0108471
0.0096175
0.00819912
0.00724886
0.00610142
0.00520441
0.00460511
0.00426678
0.00420467
0.00431028
0.00446615
0.00458422
0.00460833
0.00447407
0.0042618
0.0040092
0.00379531
0.0036345
0.00353759
0.00348645
0.00349014
0.0035346
0.00361215
0.00371947
0.00385634
0.00403957
0.00427532
0.00457598
0.00497516
0.00551859
0.00625778
0.00726676
0.00866472
0.0106855
0.0137842
0.0188841
0.0277657
0.0442438
0.0759702
0.137635
0.257273
0.489541
0.689653
0.738228
0.617021
0.411954
0.245104
0.153182
0.109188
0.0799352
0.0502785
0.0241063
0.00686742
0.000698822
0.000188325
0.0846727
0.102302
0.111476
0.099058
0.0940133
0.0873372
0.0844116
0.079624
0.0757072
0.0699119
0.0645669
0.0598067
0.0560635
0.0535696
0.0519714
0.0506372
0.0489686
0.0469634
0.0441971
0.0410425
0.0376756
0.0344893
0.0315605
0.0289662
0.0265638
0.024401
0.0223854
0.0204666
0.0186685
0.0170222
0.0155774
0.0142966
0.0131417
0.0121926
0.0115608
0.0113118
0.0115021
0.0121543
0.0132937
0.0150217
0.017595
0.0216454
0.0284245
0.0401452
0.0611129
0.10178
0.153431
0.185075
0.17581
0.130716
0.079206
0.0460622
0.0307715
0.0230987
0.0186055
0.0122146
0.00592154
0.00133388
0.000138411
0.00016184
0.152591
0.259018
0.424337
0.500715
0.566788
0.611925
0.649985
0.678035
0.698507
0.711715
0.715807
0.713172
0.702548
0.685976
0.663253
0.63686
0.606989
0.575277
0.542126
0.508454
0.474362
0.440779
0.407421
0.37538
0.343955
0.313892
0.284946
0.257581
0.231781
0.207976
0.186091
0.166275
0.148365
0.132322
0.118194
0.106118
0.0961263
0.088168
0.0822851
0.078647
0.0776063
0.079711
0.0856945
0.0949507
0.104349
0.109775
0.102178
0.0861142
0.0660128
0.0462838
0.0303846
0.019239
0.01203
0.00731322
0.00449969
0.00246374
0.00120013
0.000474916
0.000341444
0.000412751
0.14696
0.229172
0.386712
0.459403
0.519352
0.560182
0.592588
0.61944
0.642175
0.660285
0.671273
0.673465
0.665494
0.648025
0.622132
0.590591
0.555847
0.521678
0.488048
0.455767
0.424316
0.39362
0.363161
0.334653
0.308098
0.284573
0.263634
0.245133
0.228357
0.21294
0.198788
0.186024
0.174462
0.164095
0.155006
0.147585
0.142309
0.139595
0.139503
0.141532
0.144613
0.147432
0.149498
0.148982
0.141705
0.128947
0.112597
0.0936148
0.073888
0.0556573
0.0403618
0.0279875
0.0187181
0.0119173
0.00724197
0.0039849
0.00193233
0.000600125
0.000296229
0.000341948
0.111486
0.191784
0.331441
0.39644
0.447668
0.483567
0.510447
0.5329
0.551252
0.565314
0.572898
0.572821
0.564213
0.547959
0.525088
0.498034
0.468242
0.438482
0.410635
0.385638
0.361979
0.339652
0.318102
0.298636
0.281108
0.266112
0.25343
0.24255
0.232297
0.22211
0.211808
0.201594
0.191352
0.181068
0.171216
0.163015
0.157221
0.153663
0.15172
0.152087
0.155252
0.161124
0.169135
0.177921
0.182839
0.178633
0.162587
0.136425
0.10646
0.0791444
0.0579696
0.0416984
0.0296582
0.0204653
0.013618
0.0081389
0.00396543
0.00102153
0.000276878
0.000288483
0.10521
0.165139
0.264298
0.309921
0.348746
0.377724
0.398341
0.415725
0.429462
0.439383
0.443923
0.442412
0.434465
0.420807
0.402232
0.380504
0.357757
0.336197
0.316233
0.298462
0.281863
0.266441
0.251843
0.238207
0.225405
0.213947
0.203732
0.194177
0.184603
0.175156
0.166791
0.159956
0.154137
0.150235
0.148533
0.146725
0.145413
0.148482
0.159198
0.182095
0.217997
0.260067
0.298019
0.338529
0.374509
0.387841
0.362019
0.298096
0.2204
0.15013
0.101085
0.0682144
0.0483122
0.0353063
0.025886
0.0171137
0.00883201
0.00231113
0.000345934
0.000246647
0.100595
0.135887
0.191139
0.211582
0.235856
0.25651
0.272512
0.287574
0.299915
0.308342
0.31121
0.308495
0.300753
0.289348
0.275565
0.260845
0.245613
0.230768
0.216174
0.202093
0.188535
0.176244
0.165778
0.157938
0.153116
0.151337
0.152135
0.156963
0.168396
0.192417
0.227771
0.261012
0.282909
0.3122
0.348791
0.366414
0.370506
0.384754
0.408412
0.458035
0.537406
0.615576
0.66045
0.728155
0.813461
0.888959
0.900945
0.793184
0.613911
0.413136
0.263914
0.158075
0.0968818
0.0647215
0.0477902
0.0336887
0.0184992
0.00534464
0.00064881
0.000231663
0.0952899
0.0921241
0.110886
0.12466
0.138593
0.152561
0.162439
0.172606
0.180765
0.186677
0.18878
0.187133
0.181946
0.174184
0.164854
0.155128
0.145756
0.137727
0.131036
0.126177
0.123496
0.122792
0.126194
0.134701
0.147313
0.164717
0.186666
0.21214
0.246964
0.293645
0.344566
0.396742
0.451275
0.515605
0.58693
0.656377
0.716861
0.771863
0.816078
0.866811
0.943549
1.0129
1.01227
0.995462
0.984697
0.96798
0.919124
0.818407
0.652853
0.444617
0.272359
0.174935
0.120426
0.0956126
0.0753522
0.0523116
0.03015
0.0100084
0.00134206
0.000257137
0.0834106
0.0630621
0.0776114
0.0892458
0.102976
0.11232
0.122484
0.130667
0.138522
0.143952
0.146648
0.146405
0.143879
0.139351
0.133476
0.127139
0.12141
0.117511
0.115376
0.11515
0.117657
0.122585
0.130232
0.140233
0.150385
0.159864
0.170172
0.181043
0.196082
0.220084
0.255933
0.304809
0.362244
0.429027
0.497808
0.573491
0.650209
0.721448
0.769251
0.80934
0.854789
0.888182
0.887541
0.862753
0.848543
0.8454
0.846107
0.833708
0.775731
0.658096
0.507174
0.362901
0.24615
0.166305
0.112131
0.0650116
0.0311972
0.0093427
0.00123125
0.000238712
0.0875189
0.0901003
0.116605
0.12893
0.144534
0.155337
0.16841
0.178893