/*--------------------------------*- C++ -*----------------------------------*\
| =========                 |                                                 |
| \\      /  F ield         | OpenFOAM: The Open Source CFD Toolbox           |
|  \\    /   O peration     | Version:  2.1.1                                 |
|   \\  /    A nd           | Web:      www.OpenFOAM.org                      |
|    \\/     M anipulation  |                                                 |
\*---------------------------------------------------------------------------*/
FoamFile
{
    version     2.0;
    format      ascii;
    class       volScalarField;
    location    "0.0013";
    object      Lzero;
}
// * * * * * * * * * * * * * * * * * * * * * * * * * * * * * * * * * * * * * //

dimensions      [0 1 0 0 0 0 0];

internalField   nonuniform List<scalar> 
36520
(
9.25332e-05
9.2417e-05
9.24902e-05
9.25255e-05
9.25525e-05
9.25761e-05
9.2584e-05
9.25773e-05
9.25674e-05
9.25804e-05
9.26394e-05
9.27541e-05
9.29108e-05
9.30858e-05
9.32479e-05
9.33546e-05
9.331e-05
9.32046e-05
9.30681e-05
9.30123e-05
9.3015e-05
9.30336e-05
9.30622e-05
9.30823e-05
9.30955e-05
9.31106e-05
9.31329e-05
9.31507e-05
9.31746e-05
9.3207e-05
9.32467e-05
9.3291e-05
9.33362e-05
9.3379e-05
9.34162e-05
9.34454e-05
9.34664e-05
9.34802e-05
9.3493e-05
9.35166e-05
9.35659e-05
9.36534e-05
9.37722e-05
9.38906e-05
9.3997e-05
9.41217e-05
9.42782e-05
9.46654e-05
9.49761e-05
9.52964e-05
9.55374e-05
9.57477e-05
9.59286e-05
9.63504e-05
9.6973e-05
9.81659e-05
9.89306e-05
9.6885e-05
9.45308e-05
9.40837e-05
0.000194705
6.65372e-05
6.44134e-05
5.9965e-05
5.70478e-05
5.45431e-05
5.27589e-05
5.10611e-05
4.96201e-05
4.80132e-05
4.61894e-05
4.39635e-05
4.16001e-05
3.98026e-05
3.95126e-05
3.92559e-05
3.92463e-05
4.05671e-05
4.15355e-05
4.20956e-05
4.23854e-05
4.245e-05
4.23336e-05
4.20842e-05
4.1768e-05
4.14129e-05
4.09686e-05
4.0413e-05
3.98115e-05
3.91202e-05
3.83061e-05
3.7405e-05
3.6546e-05
3.59024e-05
3.55966e-05
3.56119e-05
3.58482e-05
3.61994e-05
3.65743e-05
3.69237e-05
3.72931e-05
3.78559e-05
3.88028e-05
3.99493e-05
4.05361e-05
3.95749e-05
3.65842e-05
3.2093e-05
2.74635e-05
2.39744e-05
2.17897e-05
2.04287e-05
1.88833e-05
1.59721e-05
1.25423e-05
9.266e-06
6.50102e-06
3.94395e-06
3.63671e-06
0.000196492
0.000194821
4.24895e-05
3.86871e-05
3.3746e-05
3.06416e-05
2.78207e-05
2.59567e-05
2.41739e-05
2.27917e-05
2.1135e-05
1.8924e-05
1.57296e-05
1.15694e-05
7.76543e-06
5.90989e-06
5.77937e-06
5.84426e-06
6.09159e-06
9.44709e-06
1.52544e-05
1.74854e-05
1.78244e-05
1.76689e-05
1.74177e-05
1.71667e-05
1.69685e-05
1.67742e-05
1.64877e-05
1.6061e-05
1.54907e-05
1.47805e-05
1.40143e-05
1.33644e-05
1.30121e-05
1.30175e-05
1.33125e-05
1.37932e-05
1.43923e-05
1.50791e-05
1.58704e-05
1.68162e-05
1.79984e-05
1.94734e-05
2.11551e-05
2.2804e-05
2.41753e-05
2.52981e-05
2.65017e-05
2.80851e-05
2.98029e-05
3.15266e-05
3.20192e-05
3.01794e-05
2.71632e-05
2.2463e-05
1.76136e-05
1.2887e-05
8.27173e-06
4.18418e-06
0.000203451
0.000194946
2.66198e-05
2.17848e-05
1.68124e-05
1.33571e-05
1.02192e-05
8.37481e-06
7.16562e-06
6.73342e-06
6.57026e-06
6.70609e-06
7.24424e-06
8.35087e-06
9.9563e-06
1.17512e-05
1.37352e-05
1.35206e-05
1.05257e-05
7.19436e-06
5.93236e-06
6.71596e-06
7.66577e-06
8.27987e-06
8.74476e-06
9.1804e-06
9.65439e-06
1.01567e-05
1.05214e-05
1.07243e-05
1.09308e-05
1.11734e-05
1.14603e-05
1.1784e-05
1.21275e-05
1.24966e-05
1.29635e-05
1.36202e-05
1.44451e-05
1.52628e-05
1.60524e-05
1.68062e-05
1.75987e-05
1.85906e-05
1.98849e-05
2.14715e-05
2.3265e-05
2.52374e-05
2.76286e-05
3.10617e-05
3.61823e-05
4.13326e-05
4.37151e-05
4.20355e-05
3.78831e-05
3.38015e-05
2.89336e-05
2.21036e-05
1.50489e-05
7.97006e-06
0.000219388
0.000195018
1.21314e-05
7.70377e-06
5.43289e-06
5.2909e-06
5.94364e-06
7.13567e-06
8.67057e-06
1.04719e-05
1.26198e-05
1.53856e-05
1.90266e-05
2.36807e-05
2.89389e-05
3.37715e-05
3.7199e-05
3.58345e-05
2.9461e-05
2.13615e-05
1.59479e-05
1.47411e-05
1.56961e-05
1.7069e-05
1.84198e-05
1.95915e-05
2.03972e-05
2.09068e-05
2.15597e-05
2.24877e-05
2.37972e-05
2.52484e-05
2.67645e-05
2.8082e-05
2.88163e-05
2.86502e-05
2.76377e-05
2.61507e-05
2.39029e-05
2.17235e-05
1.98743e-05
1.93709e-05
2.0333e-05
2.11127e-05
2.1971e-05
2.31825e-05
2.48577e-05
2.69686e-05
2.95526e-05
3.29334e-05
3.79696e-05
4.47973e-05
4.97747e-05
5.16707e-05
5.02946e-05
4.5221e-05
3.99815e-05
3.35737e-05
2.43742e-05
1.42082e-05
0.00023364
0.000195423
5.32834e-06
6.2858e-06
8.2385e-06
1.08485e-05
1.4065e-05
1.77219e-05
2.17397e-05
2.60633e-05
3.11418e-05
3.74367e-05
4.54447e-05
5.50624e-05
6.51298e-05
7.3116e-05
7.67479e-05
7.44307e-05
6.66227e-05
5.55104e-05
4.64725e-05
4.32951e-05
4.42802e-05
4.65911e-05
4.91562e-05
5.13882e-05
5.28788e-05
5.36231e-05
5.47863e-05
5.66147e-05
5.9256e-05
6.30525e-05
6.74923e-05
7.18914e-05
7.50125e-05
7.56366e-05
7.35223e-05
6.97911e-05
6.44865e-05
5.87345e-05
5.24893e-05
4.56987e-05
3.96567e-05
3.31525e-05
2.93778e-05
2.91088e-05
2.99303e-05
3.18511e-05
3.47157e-05
3.84226e-05
4.38653e-05
4.98799e-05
5.473e-05
5.74887e-05
5.83579e-05
5.68333e-05
5.24506e-05
4.49619e-05
3.50674e-05
2.28458e-05
0.00023721
0.000195488
1.05758e-05
1.48116e-05
1.98751e-05
2.54701e-05
3.1854e-05
3.8299e-05
4.48931e-05
5.13529e-05
5.86523e-05
6.75144e-05
7.86715e-05
9.16345e-05
0.000104748
0.000114943
0.000118985
0.000118366
0.00011449
0.00010828
0.000102645
0.000100224
9.99902e-05
0.000100423
0.000101061
0.000101674
0.000101872
0.000101179
0.000100762
0.000101079
0.00010267
0.000105564
0.000109879
0.000115028
0.000119858
0.000123243
0.000124102
0.000121774
0.000116384
0.000109083
0.000100857
9.16577e-05
8.289e-05
7.33102e-05
6.18812e-05
5.38101e-05
4.90946e-05
4.56489e-05
4.39985e-05
4.59813e-05
5.02298e-05
5.48736e-05
5.83317e-05
6.0528e-05
6.1331e-05
6.04219e-05
5.78731e-05
5.32958e-05
4.50161e-05
3.26785e-05
0.000234339
0.000194533
2.16679e-05
2.86368e-05
3.71565e-05
4.56797e-05
5.51028e-05
6.27646e-05
6.98967e-05
7.64162e-05
8.32901e-05
9.13771e-05
0.000101568
0.000112909
0.000124271
0.000134664
0.000143
0.000149094
0.00015306
0.000154596
0.000154096
0.000152673
0.000151229
0.000149552
0.000147369
0.000144917
0.000142725
0.000140737
0.000138894
0.000137128
0.000135819
0.00013549
0.000136345
0.000138222
0.000140734
0.000143205
0.000144901
0.000145063
0.000142956
0.000138617
0.000132376
0.000124521
0.000115736
0.000106356
9.65267e-05
8.76128e-05
7.98156e-05
7.2458e-05
6.48868e-05
5.83764e-05
5.63075e-05
5.69469e-05
5.93471e-05
6.05978e-05
6.03112e-05
5.93179e-05
5.81069e-05
5.62105e-05
5.15806e-05
4.26256e-05
0.000229025
0.000194779
2.5919e-05
3.60896e-05
4.51089e-05
5.30942e-05
6.0574e-05
6.56082e-05
7.03569e-05
7.52304e-05
8.04303e-05
8.63527e-05
9.32135e-05
0.000101098
0.000109529
0.00011734
0.000124065
0.000129986
0.000135105
0.000139187
0.000142291
0.000144763
0.000146708
0.00014824
0.000149437
0.000150279
0.000150701
0.000150765
0.00015022
0.000148427
0.000145608
0.000142744
0.000140658
0.000139795
0.000139997
0.000140848
0.000141872
0.000142559
0.000142416
0.000140968
0.000137948
0.000133311
0.000127076
0.000119663
0.00011157
0.000102853
9.40045e-05
8.58534e-05
7.89691e-05
7.36964e-05
7.06764e-05
7.02475e-05
6.88122e-05
6.58919e-05
6.23256e-05
5.87416e-05
5.70514e-05
5.79637e-05
5.93666e-05
5.75457e-05
0.000223697
0.000194612
2.29396e-05
3.34431e-05
3.96312e-05
4.76932e-05
5.35622e-05
5.82955e-05
6.22412e-05
6.60419e-05
7.04938e-05
7.6596e-05
8.47968e-05
9.48358e-05
0.000105063
0.000113756
0.000121049
0.000127468
0.000132868
0.000136981
0.000140158
0.000143319
0.000147103
0.000151684
0.000156709
0.000161908
0.000166664
0.000169682
0.000170119
0.000167874
0.000163874
0.000159654
0.000156289
0.000154401
0.000154116
0.000155105
0.000156819
0.000158635
0.000159887
0.000159839
0.000158004
0.000154236
0.000148432
0.000140462
0.000130553
0.00011871
0.000105529
9.23684e-05
8.08331e-05
7.29773e-05
6.84142e-05
6.54415e-05
6.39723e-05
6.24888e-05
6.08585e-05
6.00998e-05
6.18638e-05
6.55999e-05
6.86781e-05
6.64576e-05
0.000222841
0.000194512
2.2666e-05
3.53421e-05
4.56084e-05
5.13184e-05
5.67343e-05
6.13146e-05
6.57294e-05
7.0415e-05
7.60663e-05
8.34446e-05
9.35832e-05
0.000105999
0.000117838
0.000127486
0.00013546
0.000142559
0.000149024
0.000154628
0.000159444
0.000163867
0.000168155
0.000172359
0.000176554
0.000180545
0.000183968
0.000186341
0.000187026
0.000185555
0.00018172
0.000176595
0.000172385
0.000169984
0.000169669
0.000170961
0.0001731
0.000175273
0.000176776
0.000177031
0.000175565
0.000172505
0.000167721
0.000160818
0.000151349
0.000138652
0.000122432
0.000103819
8.58377e-05
7.30234e-05
6.71615e-05
6.53029e-05
6.41218e-05
6.28362e-05
6.1264e-05
6.00931e-05
6.02964e-05
6.15049e-05
6.2137e-05
6.07468e-05
0.000222521
0.000194971
2.4141e-05
3.24497e-05
4.14674e-05
4.87788e-05
5.66045e-05
6.19264e-05
6.68156e-05
7.275e-05
7.94847e-05
8.81146e-05
9.87558e-05
0.000110094
0.000120023
0.000128023
0.00013555
0.000143531
0.000152087
0.000160308
0.000167562
0.000173222
0.000177234
0.000180349
0.000183217
0.000186013
0.000188626
0.000190753
0.000191844
0.000191092
0.000187769
0.000181598
0.000175215
0.000171233
0.000170121
0.000171401
0.000173866
0.000176497
0.000178312
0.000178651
0.000176833
0.000172939
0.000167192
0.000159054
0.000148174
0.000133562
0.000114795
9.33886e-05
7.26543e-05
5.94543e-05
5.72081e-05
6.16454e-05
6.48862e-05
6.59785e-05
6.66178e-05
6.55658e-05
6.34047e-05
6.01e-05
5.4766e-05
4.77774e-05
0.000224706
0.000195085
2.46448e-05
2.96095e-05
3.70271e-05
4.42477e-05
5.36268e-05
6.16099e-05
6.84079e-05
7.40819e-05
8.05598e-05
8.83807e-05
9.7325e-05
0.000106451
0.000114539
0.000121619
0.000129314
0.000137915
0.000147514
0.000157798
0.000167346
0.000174893
0.000180037
0.000183504
0.000186266
0.000188676
0.000190711
0.000192021
0.000192098
0.000190298
0.000186114
0.000179457
0.000172949
0.000169719
0.000169236
0.000170635
0.000172965
0.000175139
0.000175904
0.000174788
0.000171839
0.000167143
0.000160523
0.000150935
0.000137429
0.000119174
9.7798e-05
7.80509e-05
6.30646e-05
5.642e-05
5.98894e-05
6.82767e-05
7.2667e-05
7.43207e-05
7.38577e-05
7.11295e-05
6.72391e-05
6.223e-05
5.51585e-05
4.66269e-05
0.000225049
0.000194492
2.59922e-05
3.35451e-05
4.07522e-05
4.74136e-05
5.62605e-05
6.40143e-05
6.87335e-05
7.11775e-05
7.27371e-05
7.52425e-05
7.99031e-05
8.62501e-05
9.40328e-05
0.000102926
0.000112439
0.000122795
0.000134314
0.000147109
0.000160256
0.000171827
0.000180079
0.00018532
0.000188912
0.00019149
0.000193017
0.000193073
0.000191347
0.000187848
0.000182231
0.00017564
0.000171243
0.000169456
0.000169861
0.000171611
0.000173795
0.000175504
0.000175961
0.0001747
0.000171307
0.000165841
0.000158604
0.000149338
0.000137316
0.000121325
0.000100903
8.04758e-05
6.53176e-05
5.80554e-05
5.8937e-05
6.33382e-05
6.67873e-05
6.84585e-05
6.8563e-05
6.80863e-05
6.73355e-05
6.57201e-05
6.19598e-05
5.70685e-05
0.000223911
0.000194561
1.85357e-05
2.94328e-05
3.55833e-05
4.04572e-05
4.46154e-05
4.77671e-05
5.16308e-05
5.65284e-05
6.16986e-05
6.64777e-05
7.14994e-05
7.8015e-05
8.49446e-05
9.15364e-05
9.88534e-05
0.000107759
0.000119146
0.000132592
0.000147411
0.000161246
0.000171699
0.000177802
0.000181283
0.000182872
0.000182199
0.00017962
0.000175405
0.000169876
0.00016437
0.000159944
0.000157229
0.000156301
0.000156694
0.000157716
0.000158367
0.000157859
0.000155554
0.00015106
0.000144592
0.000137314
0.000129346
0.000120296
0.000109972
9.79332e-05
8.45444e-05
7.17047e-05
6.193e-05
5.69141e-05
5.62785e-05
5.76186e-05
5.91599e-05
6.08645e-05
6.29912e-05
6.54146e-05
6.74072e-05
6.72754e-05
6.34834e-05
5.66987e-05
0.000225765
0.000195087
2.00469e-05
3.06089e-05
3.86659e-05
4.60523e-05
5.20433e-05
5.78918e-05
6.42561e-05
7.02865e-05
7.54738e-05
8.14558e-05
8.88958e-05
9.71666e-05
0.000105086
0.000112891
0.000122004
0.000131463
0.000139566
0.000147199
0.000155193
0.000161967
0.00016625
0.000168627
0.000169798
0.000169651
0.000167756
0.000163961
0.000159114
0.000154494
0.000150871
0.000148386
0.00014689
0.000146407
0.000146341
0.000145848
0.000144488
0.000141848
0.000137585
0.00013168
0.000124724
0.000117367
0.000109854
0.000102074
9.39677e-05
8.54469e-05
7.67068e-05
6.87244e-05
6.26232e-05
5.94727e-05
5.94258e-05
6.10903e-05
6.24177e-05
6.36232e-05
6.4956e-05
6.64065e-05
6.76583e-05
6.70187e-05
6.23387e-05
5.35016e-05
0.00022689
0.000195227
2.00039e-05
2.80132e-05
3.79358e-05
4.95049e-05
5.93255e-05
6.60371e-05
7.06845e-05
7.49144e-05
7.93089e-05
8.59114e-05
9.57433e-05
0.000107983
0.00012029
0.000129662
0.000135575
0.000139699
0.000143421
0.000147191
0.000151241
0.000154592
0.000156783
0.000158353
0.000158714
0.000156977
0.000153376
0.000148526
0.000143711
0.000140136
0.00013823
0.000137713
0.000138301
0.000140155
0.000142661
0.000144533
0.000144265
0.000141531
0.000136641
0.000130053
0.000122217
0.000113203
0.000103353
9.35603e-05
8.48013e-05
7.73822e-05
7.12899e-05
6.64478e-05
6.3477e-05
6.30793e-05
6.49637e-05
6.7132e-05
6.6898e-05
6.48647e-05
6.24671e-05
6.08736e-05
6.00829e-05
5.79945e-05
5.1444e-05
3.89605e-05
0.000230463
0.000195652
9.51065e-06
1.36439e-05
1.87541e-05
2.48798e-05
3.14342e-05
3.73821e-05
4.25155e-05
4.63378e-05
5.06009e-05
5.64532e-05
6.45524e-05
7.44201e-05
8.4341e-05
9.23395e-05
9.80712e-05
0.000102211
0.000105826
0.000107862
0.0001074
0.000105645
0.000105907
0.000107134
0.000106884
0.000104122
9.87499e-05
9.15631e-05
8.43284e-05
7.85919e-05
7.53636e-05
7.38653e-05
7.40547e-05
7.49237e-05
7.62926e-05
7.80566e-05
8.02857e-05
8.1454e-05
8.01541e-05
7.70061e-05
7.23114e-05
6.71907e-05
6.34317e-05
5.98129e-05
5.72045e-05
5.58941e-05
5.59974e-05
5.76677e-05
6.0837e-05
6.46316e-05
6.71276e-05
6.74524e-05
6.59572e-05
6.36412e-05
6.11566e-05
5.83059e-05
5.53067e-05
5.1011e-05
4.27461e-05
2.9155e-05
0.000233848
0.000195174
5.65348e-06
6.14801e-06
8.13634e-06
1.07581e-05
1.36929e-05
1.6741e-05
1.92382e-05
2.12941e-05
2.3469e-05
2.63118e-05
2.99906e-05
3.43572e-05
3.89514e-05
4.33043e-05
4.73081e-05
5.08731e-05
5.30543e-05
5.23378e-05
4.86016e-05
4.52317e-05
4.52148e-05
4.65743e-05
4.68382e-05
4.48008e-05
4.04493e-05
3.44567e-05
2.85095e-05
2.45055e-05
2.33615e-05
2.34491e-05
2.36727e-05
2.41149e-05
2.4802e-05
2.56135e-05
2.6376e-05
2.69885e-05
2.73863e-05
2.76655e-05
2.79535e-05
2.84666e-05
2.94174e-05
3.08616e-05
3.30391e-05
3.61294e-05
3.99763e-05
4.46044e-05
4.90168e-05
5.28386e-05
5.64405e-05
5.80457e-05
5.77173e-05
5.70824e-05
5.57352e-05
5.25506e-05
4.82783e-05
4.28711e-05
3.42402e-05
2.22855e-05
0.000236188
0.000194804
1.43265e-05
7.52456e-06
4.74099e-06
4.63569e-06
5.2603e-06
6.17448e-06
6.96169e-06
7.67314e-06
8.39158e-06
9.284e-06
1.03786e-05
1.16974e-05
1.31869e-05
1.48836e-05
1.67313e-05
1.86737e-05
1.94858e-05
1.83897e-05
1.62147e-05
1.50718e-05
1.54746e-05
1.63248e-05
1.67056e-05
1.60946e-05
1.46997e-05
1.33814e-05
1.34076e-05
1.45778e-05
1.51989e-05
1.55862e-05
1.60873e-05
1.6683e-05
1.73355e-05
1.79961e-05
1.86207e-05
1.91803e-05
1.96716e-05
2.0148e-05
2.07039e-05
2.14736e-05
2.26228e-05
2.42832e-05
2.66173e-05
2.98601e-05
3.39439e-05
3.83802e-05
4.26598e-05
4.62656e-05
4.69542e-05
4.58996e-05
4.45482e-05
4.46392e-05
4.51771e-05
4.40378e-05
4.04301e-05
3.48002e-05
2.75542e-05
1.57272e-05
0.000235579
0.000194602
2.70857e-05
1.95926e-05
1.42193e-05
1.11915e-05
8.67735e-06
7.38492e-06
6.62937e-06
6.26546e-06
5.75756e-06
5.17032e-06
4.6577e-06
4.44905e-06
4.58374e-06
4.99028e-06
5.55329e-06
6.1895e-06
6.44701e-06
6.40359e-06
6.68813e-06
7.42924e-06
7.9492e-06
8.29433e-06
8.61962e-06
9.08531e-06
1.00131e-05
1.15629e-05
1.29274e-05
1.3501e-05
1.37038e-05
1.38491e-05
1.39883e-05
1.41188e-05
1.42473e-05
1.43792e-05
1.45285e-05
1.47265e-05
1.50126e-05
1.54469e-05
1.61138e-05
1.71369e-05
1.86473e-05
2.07587e-05
2.35429e-05
2.69472e-05
3.05475e-05
3.37919e-05
3.6389e-05
3.73279e-05
3.6395e-05
3.43587e-05
3.26118e-05
3.25811e-05
3.35504e-05
3.36925e-05
3.15223e-05
2.75287e-05
2.03741e-05
1.1109e-05
0.000230692
0.000194656
4.28929e-05
3.54558e-05
2.90965e-05
2.57935e-05
2.30891e-05
2.16587e-05
2.04793e-05
1.96403e-05
1.84925e-05
1.70292e-05
1.52548e-05
1.34017e-05
1.17004e-05
1.01874e-05
9.18885e-06
8.91378e-06
9.64563e-06
1.13812e-05
1.32533e-05
1.41934e-05
1.45533e-05
1.47763e-05
1.51494e-05
1.57867e-05
1.65121e-05
1.70213e-05
1.72326e-05
1.72451e-05
1.70889e-05
1.67004e-05
1.61231e-05
1.54276e-05
1.47419e-05
1.4156e-05
1.37242e-05
1.34998e-05
1.35446e-05
1.39065e-05
1.46178e-05
1.57242e-05
1.72966e-05
1.94347e-05
2.22493e-05
2.58172e-05
2.99742e-05
3.37865e-05
3.53014e-05
3.39354e-05
3.06417e-05
2.66403e-05
2.29725e-05
2.05936e-05
1.95874e-05
1.92112e-05
1.82619e-05
1.52586e-05
1.12112e-05
5.43142e-06
0.000211369
0.000194813
6.79396e-05
6.25435e-05
5.69172e-05
5.37411e-05
5.1076e-05
4.94053e-05
4.77977e-05
4.63739e-05
4.47285e-05
4.28215e-05
4.07386e-05
3.88256e-05
3.76301e-05
3.7476e-05
3.76664e-05
3.77087e-05
3.80348e-05
3.85414e-05
3.91452e-05
3.97573e-05
4.03368e-05
4.08702e-05
4.13624e-05
4.18186e-05
4.22274e-05
4.25429e-05
4.27038e-05
4.26504e-05
4.24462e-05
4.21507e-05
4.16495e-05
4.0822e-05
3.95994e-05
3.79747e-05
3.60496e-05
3.40485e-05
3.2183e-05
3.04274e-05
2.86911e-05
2.69161e-05
2.51061e-05
2.34067e-05
2.19121e-05
2.08132e-05
2.01683e-05
1.97112e-05
1.88702e-05
1.73671e-05
1.55321e-05
1.38642e-05
1.25401e-05
1.13937e-05
1.0038e-05
8.72729e-06
7.73162e-06
6.65863e-06
4.70781e-06
2.83549e-06
0.000197365
9.68098e-05
9.67904e-05
9.6821e-05
9.68583e-05
9.68777e-05
9.68889e-05
9.68891e-05
9.689e-05
9.69042e-05
9.6945e-05
9.7015e-05
9.71074e-05
9.72109e-05
9.73111e-05
9.73993e-05
9.74691e-05
9.7469e-05
9.74613e-05
9.74599e-05
9.74525e-05
9.74483e-05
9.74623e-05
9.74808e-05
9.74931e-05
9.74979e-05
9.75001e-05
9.75045e-05
9.75165e-05
9.75429e-05
9.75648e-05
9.75978e-05
9.76391e-05
9.76836e-05
9.77263e-05
9.77632e-05
9.77935e-05
9.78192e-05
9.78458e-05
9.78783e-05
9.79251e-05
9.79939e-05
9.80868e-05
9.81949e-05
9.83066e-05
9.84618e-05
9.86872e-05
9.89145e-05
9.91749e-05
9.94611e-05
9.97854e-05
0.00010013
0.000100511
0.000100895
0.000101272
0.000101548
0.000101839
0.000103566
0.000102935
9.88335e-05
9.84291e-05
9.7218e-05
9.72043e-05
9.72286e-05
9.72685e-05
9.72827e-05
9.72949e-05
9.73059e-05
9.73197e-05
9.73402e-05
9.73661e-05
9.74003e-05
9.74406e-05
9.74895e-05
9.75421e-05
9.75988e-05
9.76547e-05
9.771e-05
9.77651e-05
9.78204e-05
9.78741e-05
9.78809e-05
9.78865e-05
9.7893e-05
9.78994e-05
9.79058e-05
9.79106e-05
9.79153e-05
9.79223e-05
9.79354e-05
9.79576e-05
9.7988e-05
9.80238e-05
9.80614e-05
9.8097e-05
9.81265e-05
9.81451e-05
9.81551e-05
9.81632e-05
9.81791e-05
9.82146e-05
9.82801e-05
9.83793e-05
9.85068e-05
9.86323e-05
9.87873e-05
9.89705e-05
9.91362e-05
9.93296e-05
9.95471e-05
9.97966e-05
0.000100067
0.000100374
0.000100709
0.000101038
0.000101324
0.000101742
0.000104126
0.000106417
9.99083e-05
9.88338e-05
0.000194757
6.54117e-05
6.12647e-05
5.59094e-05
5.2509e-05
4.98801e-05
4.83034e-05
4.69391e-05
4.59928e-05
4.51041e-05
4.43297e-05
4.34946e-05
4.27517e-05
4.19606e-05
4.13179e-05
4.0785e-05
4.04707e-05
4.03629e-05
4.04132e-05
4.05637e-05
4.07649e-05
4.09537e-05
4.10876e-05
4.11569e-05
4.11659e-05
4.11352e-05
4.1069e-05
4.09879e-05
4.08965e-05
4.07766e-05
4.05596e-05
4.01703e-05
3.95745e-05
3.87828e-05
3.77897e-05
3.66057e-05
3.54537e-05
3.44447e-05
3.34973e-05
3.24983e-05
3.13075e-05
2.97731e-05
2.77573e-05
2.52428e-05
2.29024e-05
2.07313e-05
1.87995e-05
1.71588e-05
1.58267e-05
1.47619e-05
1.38556e-05
1.2999e-05
1.21063e-05
1.11121e-05
9.88977e-06
8.66167e-06
7.29339e-06
5.05004e-06
2.64454e-06
0.00019813
0.000194757
3.9281e-05
3.28493e-05
2.69044e-05
2.34284e-05
2.07223e-05
1.9322e-05
1.81274e-05
1.75392e-05
1.70608e-05
1.67716e-05
1.64881e-05
1.62544e-05
1.59734e-05
1.57852e-05
1.56521e-05
1.56059e-05
1.56112e-05
1.56012e-05
1.55458e-05
1.5418e-05
1.52142e-05
1.49551e-05
1.46466e-05
1.42979e-05
1.40268e-05
1.38828e-05
1.38164e-05
1.37279e-05
1.36181e-05
1.346e-05
1.32606e-05
1.3061e-05
1.29087e-05
1.28272e-05
1.28476e-05
1.29923e-05
1.32838e-05
1.37227e-05
1.43042e-05
1.50554e-05
1.60174e-05
1.72774e-05
1.89295e-05
2.10448e-05
2.38074e-05
2.55976e-05
2.5846e-05
2.50604e-05
2.37547e-05
2.24218e-05
2.1413e-05
2.07352e-05
2.01595e-05
1.93415e-05
1.79167e-05
1.49417e-05
1.08039e-05
5.24648e-06
0.000212061
0.000194958
2.40532e-05
1.74329e-05
1.27965e-05
1.05032e-05
8.79066e-06
7.939e-06
7.15359e-06
6.7664e-06
6.43649e-06
6.26554e-06
6.12083e-06
6.01315e-06
5.92514e-06
5.94728e-06
6.07631e-06
6.30836e-06
6.63053e-06
7.01047e-06
7.41883e-06
7.83979e-06
8.26447e-06
8.68026e-06
9.07464e-06
9.43775e-06
9.77455e-06
1.0093e-05
1.04126e-05
1.07233e-05
1.10511e-05
1.14317e-05
1.18884e-05
1.2407e-05
1.29563e-05
1.35228e-05
1.41316e-05
1.48281e-05
1.56805e-05
1.67343e-05
1.80352e-05
1.97398e-05
2.20293e-05
2.5202e-05
2.95931e-05
3.54938e-05
4.27523e-05
5.12059e-05
5.6344e-05
5.65195e-05
5.22362e-05
4.568e-05
3.94949e-05
3.50939e-05
3.26276e-05
3.09452e-05
2.8859e-05
2.55619e-05
1.96676e-05
1.08342e-05
0.000231504
0.000195097
1.47694e-05
8.74059e-06
5.24702e-06
4.03971e-06
3.58511e-06
3.65056e-06
3.87234e-06
4.24735e-06
4.71683e-06
5.32486e-06
6.08693e-06
7.06087e-06
8.25962e-06
9.67342e-06
1.12396e-05
1.28611e-05
1.44091e-05
1.58426e-05
1.71893e-05
1.84675e-05
1.94966e-05
2.00858e-05
2.03533e-05
2.04459e-05
2.02664e-05
1.97516e-05
1.8925e-05
1.80551e-05
1.74044e-05
1.68264e-05
1.63868e-05
1.62312e-05
1.64784e-05
1.70967e-05
1.78902e-05
1.86861e-05
1.94851e-05
2.04193e-05
2.16355e-05
2.32715e-05
2.55294e-05
2.86731e-05
3.30679e-05
3.90193e-05
4.68199e-05
5.79069e-05
7.14237e-05
7.75566e-05
7.53516e-05
6.78682e-05
5.66676e-05
4.67323e-05
4.32557e-05
4.26685e-05
4.02321e-05
3.53182e-05
2.83637e-05
1.86108e-05
0.000237005
0.00019514
5.74087e-06
3.08653e-06
2.87617e-06
3.33679e-06
3.98992e-06
4.80355e-06
5.8019e-06
7.08082e-06
8.66491e-06
1.07325e-05
1.34636e-05
1.71218e-05
2.18564e-05
2.76235e-05
3.40617e-05
4.05833e-05
4.65037e-05
5.13558e-05
5.51768e-05
5.82636e-05
6.03881e-05
6.11562e-05
6.10267e-05
6.02013e-05
5.85224e-05
5.57183e-05
5.18737e-05
4.80869e-05
4.56669e-05
4.37919e-05
4.19202e-05
3.96817e-05
3.70635e-05
3.42356e-05
3.12122e-05
2.83606e-05
2.62535e-05
2.54074e-05
2.43519e-05
2.49185e-05
2.64197e-05
2.87379e-05
3.21502e-05
3.69953e-05
4.3824e-05
5.42297e-05
6.92405e-05
8.06471e-05
8.35723e-05
7.85515e-05
6.83201e-05
5.68893e-05
5.08804e-05
4.81771e-05
4.47463e-05
4.01753e-05
3.37748e-05
2.33086e-05
0.000234798
0.000195364
3.6161e-06
4.21624e-06
5.19479e-06
6.39776e-06
7.98553e-06
1.01294e-05
1.29564e-05
1.65746e-05
2.12113e-05
2.70789e-05
3.45361e-05
4.39577e-05
5.53766e-05
6.81148e-05
8.10201e-05
9.31818e-05
0.000104035
0.00011285
0.000119416
0.00012446
0.000127559
0.000129267
0.000130067
0.000129935
0.000128607
0.000125752
0.000121244
0.000116004
0.00011211
0.000110251
0.000109699
0.000109458
0.000108815
0.000107297
0.000103584
9.71286e-05
8.79616e-05
7.80855e-05
6.60152e-05
5.5152e-05
4.48119e-05
3.86524e-05
3.79366e-05
3.97282e-05
4.34602e-05
5.09111e-05
6.19231e-05
7.27061e-05
7.9342e-05
7.90125e-05
7.50563e-05
6.82863e-05
6.17828e-05
5.5707e-05
4.9501e-05
4.40128e-05
3.78011e-05
2.69087e-05
0.000230987
0.000195908
7.90013e-06
1.06141e-05
1.37539e-05
1.69858e-05
2.09769e-05
2.65312e-05
3.38023e-05
4.27546e-05
5.31569e-05
6.37735e-05
7.50275e-05
8.75359e-05
0.000101682
0.000116465
0.000129907
0.000141416
0.000151677
0.000160305
0.000166626
0.0001711
0.000174107
0.000176057
0.000177384
0.000178077
0.000177761
0.000176514
0.000173935
0.000169714
0.000164763
0.000161385
0.000160042
0.000160261
0.000161419
0.000162991
0.000163917
0.000163154
0.000159618
0.000152826
0.000142034
0.000128534
0.000112958
9.63358e-05
8.12519e-05
6.93219e-05
6.11047e-05
5.78253e-05
6.03385e-05
6.64591e-05
7.27359e-05
7.50752e-05
7.36099e-05
7.0052e-05
6.47221e-05
5.8701e-05
5.33596e-05
4.92701e-05
4.42477e-05
3.34071e-05
0.000227764
0.000195419
2.25578e-05
3.1428e-05
3.97889e-05
4.72601e-05
5.38203e-05
6.09717e-05
6.97567e-05
8.0129e-05
9.13224e-05
9.97791e-05
0.000108662
0.000117719
0.000126896
0.000136244
0.000145316
0.00015376
0.000161449
0.000168329
0.000174195
0.000178885
0.000182424
0.000184945
0.000186632
0.000187585
0.000188084
0.000188253
0.000188029
0.000187286
0.000185818
0.000183658
0.000182015
0.000181429
0.000181734
0.0001825
0.000183076
0.00018261
0.000180376
0.000175999
0.000169556
0.000161435
0.000151672
0.000140103
0.000126438
0.000111181
9.64244e-05
8.39337e-05
7.4965e-05
7.00649e-05
6.91911e-05
7.08428e-05
7.0857e-05
6.84552e-05
6.43387e-05
5.97846e-05
5.63985e-05
5.44168e-05
5.13835e-05
4.34152e-05
0.000225866
0.000195214
2.87646e-05
4.1421e-05
5.42926e-05
6.64644e-05
7.52893e-05
8.45113e-05
9.47638e-05
0.000104137
0.000109815
0.00011268
0.000115666
0.000119366
0.00012352
0.000128348
0.000133557
0.000138822
0.000144095
0.00014948
0.000154814
0.000159659
0.000163705
0.000166806
0.000168963
0.000170272
0.000170915
0.000171203
0.000171279
0.00017103
0.000170246
0.000169366
0.000168609
0.000168021
0.000167746
0.000167637
0.000167334
0.00016641
0.000164178
0.000160094
0.000154197
0.000146608
0.000137292
0.000126486
0.000114513
0.000101585
8.87098e-05
7.76776e-05
6.94858e-05
6.4954e-05
6.36656e-05
6.36958e-05
6.3008e-05
6.17546e-05
6.06605e-05
6.07646e-05
6.32322e-05
6.72303e-05
6.9251e-05
6.34607e-05
0.00022435
0.000194459
2.51018e-05
4.4148e-05
5.75124e-05
6.7842e-05
7.52355e-05
8.19747e-05
8.9366e-05
9.67053e-05
0.000103267
0.000110221
0.000117087
0.000121956
0.000126019
0.00013014
0.000134304
0.000137949
0.000140894
0.000143734
0.000147016
0.000150421
0.000153289
0.000155152
0.000155871
0.000155494
0.000154186
0.000152168
0.000149653
0.00014681
0.000144052
0.000141762
0.00014004
0.000139068
0.000139097
0.000140058
0.00014172
0.000143425
0.000144131
0.000143172
0.000140268
0.000135019
0.000127038
0.000116829
0.000105219
9.27578e-05
8.00169e-05
6.83764e-05
5.95524e-05
5.45765e-05
5.26338e-05
5.21644e-05
5.27545e-05
5.44299e-05
5.7691e-05
6.297e-05
6.98241e-05
7.58787e-05
7.75336e-05
6.98612e-05
0.000224941
0.000194168
2.34809e-05
3.07515e-05
3.57448e-05
3.8515e-05
4.10165e-05
4.47976e-05
5.04273e-05
5.82348e-05
6.86191e-05
8.22415e-05
9.86394e-05
0.000114331
0.000126079
0.000133666
0.000139454
0.000144444
0.000148447
0.000151673
0.000154417
0.000156712
0.000158217
0.000158776
0.000158308
0.000156683
0.000153938
0.000150282
0.000146137
0.000142086
0.000138594
0.000135894
0.000134239
0.000133876
0.000134739
0.000136585
0.000139011
0.000141347
0.000142843
0.000142684
0.000140019
0.000133868
0.000123598
0.000109721
9.38605e-05
7.79254e-05
6.40925e-05
5.37422e-05
4.7719e-05
4.56425e-05
4.55702e-05
4.64941e-05
4.86862e-05
5.25591e-05
5.78254e-05
6.41105e-05
7.03779e-05
7.45125e-05
7.43545e-05
6.71677e-05
0.000225904
0.00019459
2.31021e-05
3.57298e-05
4.3899e-05
4.96532e-05
5.42131e-05
5.79303e-05
6.16802e-05
6.65306e-05
7.4516e-05
8.61338e-05
9.93703e-05
0.000110992
0.00011992
0.000127995
0.000135701
0.000142408
0.000147757
0.000151624
0.000154636
0.000157382
0.000159771
0.000161524
0.000162379
0.000162088
0.000160473
0.000157382
0.000153051
0.000148363
0.000144317
0.000141392
0.000139836
0.000139752
0.000140951
0.000143122
0.000145711
0.000148016
0.000149224
0.000148431
0.000144815
0.000137694
0.000126353
0.000111281
9.48325e-05
7.88602e-05
6.46156e-05
5.31254e-05
4.55345e-05
4.27949e-05
4.29307e-05
4.31293e-05
4.56807e-05
5.01136e-05
5.56472e-05
6.18056e-05
6.78215e-05
7.16705e-05
7.11147e-05
6.46134e-05
0.000225475
0.000194571
2.35586e-05
3.74845e-05
4.74115e-05
5.39532e-05
5.98291e-05
6.428e-05
6.84997e-05
7.26003e-05
7.78412e-05
8.60113e-05
9.67764e-05
0.000106017
0.000113176
0.000120306
0.000127839
0.000135071
0.000141685
0.000147908
0.000153799
0.000159462
0.000164741
0.000169202
0.000172515
0.000174495
0.000174973
0.000173646
0.000170529
0.000166752
0.00016331
0.000160404
0.000158443
0.000158031
0.000158996
0.00016092
0.000163144
0.000164868
0.000165247
0.00016355
0.00015911
0.00015156
0.00014059
0.000126535
0.000110619
9.4013e-05
7.76367e-05
6.35151e-05
5.41218e-05
4.97849e-05
4.89288e-05
4.99862e-05
5.1828e-05
5.43101e-05
5.74341e-05
6.09914e-05
6.49391e-05
6.80099e-05
6.80397e-05
6.25482e-05
0.000224085
0.000194737
3.58132e-05
4.33761e-05
4.9482e-05
5.55533e-05
6.26048e-05
6.85015e-05
7.40768e-05
7.95418e-05
8.52538e-05
9.34122e-05
0.000104335
0.000115399
0.000125369
0.000135133
0.000144963
0.000154348
0.000163205
0.000171362
0.000178574
0.000184639
0.000189493
0.00019324
0.000195856
0.000197231
0.000197296
0.000195914
0.000193122
0.00018918
0.000184678
0.000180576
0.000177485
0.000176124
0.000176344
0.000177288
0.000177876
0.000177195
0.000174363
0.000168838
0.000160623
0.000149618
0.000135714
0.000119679
0.000103015
8.67995e-05
7.18883e-05
5.95407e-05
5.11916e-05
4.77325e-05
4.94543e-05
5.56992e-05
6.23283e-05
6.55297e-05
6.63977e-05
6.65113e-05
6.61019e-05
6.47391e-05
6.13413e-05
5.42028e-05
0.000223004
0.000194376
3.76979e-05
4.08661e-05
4.7096e-05
5.46661e-05
6.25788e-05
7.08281e-05
7.93357e-05
8.90031e-05
9.91231e-05
0.000111196
0.000124771
0.000138503
0.00015128
0.000162029
0.000170933
0.00017889
0.000185576
0.000191173
0.000196661
0.000201902
0.000206017
0.0002089
0.000210776
0.000211573
0.000211076
0.000209058
0.000205268
0.000199754
0.000192935
0.000186786
0.000182974
0.000182244
0.000183411
0.000184797
0.000185052
0.000182903
0.000177079
0.000167409
0.000154119
0.000137099
0.000117501
9.80893e-05
8.09173e-05
6.7282e-05
5.70873e-05
4.99407e-05
4.66089e-05
4.83786e-05
5.6187e-05
6.73013e-05
7.51698e-05
7.74862e-05
7.64523e-05
7.33531e-05
6.90474e-05
6.34051e-05
5.53203e-05
4.29113e-05
0.00022778
0.000194779
3.10734e-05
4.18886e-05
5.31405e-05
6.30622e-05
7.38547e-05
8.38846e-05
9.45421e-05
0.000106417
0.000120251
0.000133435
0.000145294
0.000155674
0.0001648
0.000172316
0.000178055
0.000182659
0.000186699
0.000190973
0.000195762
0.000200383
0.00020428
0.000207552
0.000210142
0.000211707
0.000212015
0.000210609
0.000207113
0.000201653
0.000195995
0.000192347
0.000190825
0.000190643
0.00019098
0.000191012
0.000189865
0.000186966
0.000181725
0.000173485
0.00016138
0.000144625
0.000122946
9.90259e-05
7.75658e-05
6.20125e-05
5.39449e-05
5.11619e-05
5.2823e-05
5.87312e-05
6.73058e-05