/*--------------------------------*- C++ -*----------------------------------*\
| =========                 |                                                 |
| \\      /  F ield         | OpenFOAM: The Open Source CFD Toolbox           |
|  \\    /   O peration     | Version:  2.1.1                                 |
|   \\  /    A nd           | Web:      www.OpenFOAM.org                      |
|    \\/     M anipulation  |                                                 |
\*---------------------------------------------------------------------------*/
FoamFile
{
    version     2.0;
    format      ascii;
    class       volScalarField;
    location    "0.0013";
    object      nut;
}
// * * * * * * * * * * * * * * * * * * * * * * * * * * * * * * * * * * * * * //

dimensions      [0 2 -1 0 0 0 0];

internalField   nonuniform List<scalar> 
36520
(
9.08387e-06
1.24409e-05
1.70917e-05
1.90186e-05
2.05495e-05
2.15786e-05
2.23934e-05
2.30261e-05
2.35716e-05
2.40548e-05
2.44273e-05
2.46512e-05
2.46238e-05
2.43275e-05
2.37461e-05
2.29382e-05
2.20588e-05
2.12346e-05
2.05352e-05
1.99304e-05
1.93349e-05
1.87239e-05
1.80782e-05
1.74032e-05
1.67078e-05
1.60147e-05
1.5317e-05
1.46222e-05
1.39329e-05
1.32535e-05
1.25778e-05
1.19075e-05
1.12416e-05
1.05917e-05
9.97133e-06
9.39661e-06
8.88128e-06
8.43518e-06
8.06268e-06
7.77514e-06
7.59919e-06
7.58552e-06
7.80727e-06
8.29862e-06
8.97945e-06
9.67055e-06
1.01844e-05
1.01352e-05
9.32279e-06
8.13512e-06
6.75099e-06
5.34902e-06
4.07556e-06
2.97854e-06
2.06858e-06
1.37107e-06
9.03583e-07
6.16279e-07
5.38209e-07
5.90593e-07
1.53289e-05
6.27461e-06
6.84319e-06
6.35961e-06
6.0871e-06
5.76179e-06
5.57329e-06
5.38257e-06
5.26228e-06
5.07215e-06
4.77263e-06
4.29558e-06
3.68577e-06
3.07726e-06
2.65798e-06
2.46658e-06
2.40557e-06
2.42575e-06
2.42546e-06
2.39775e-06
2.34685e-06
2.27991e-06
2.2028e-06
2.12362e-06
2.04398e-06
1.9703e-06
1.89941e-06
1.82411e-06
1.73641e-06
1.63222e-06
1.51012e-06
1.37732e-06
1.24887e-06
1.14314e-06
1.07389e-06
1.04356e-06
1.04659e-06
1.07466e-06
1.12128e-06
1.18548e-06
1.27502e-06
1.40987e-06
1.61811e-06
1.90583e-06
2.22041e-06
2.45113e-06
2.50611e-06
2.32018e-06
2.00938e-06
1.74077e-06
1.55645e-06
1.41341e-06
1.195e-06
8.31738e-07
4.92331e-07
2.55752e-07
1.11583e-07
3.14461e-08
1.11158e-08
7.40652e-07
1.07943e-05
2.24964e-06
2.11444e-06
1.70749e-06
1.48133e-06
1.26328e-06
1.14477e-06
1.03781e-06
9.75881e-07
8.91025e-07
7.6415e-07
5.80884e-07
3.76189e-07
2.27502e-07
1.74886e-07
1.95092e-07
1.95528e-07
1.5536e-07
1.8211e-07
2.62564e-07
2.8984e-07
2.90191e-07
2.84885e-07
2.80246e-07
2.76216e-07
2.73828e-07
2.72442e-07
2.70511e-07
2.64731e-07
2.54648e-07
2.41131e-07
2.27174e-07
2.17428e-07
2.16198e-07
2.24889e-07
2.42489e-07
2.6756e-07
2.99703e-07
3.39698e-07
3.90544e-07
4.58496e-07
5.54587e-07
6.94636e-07
8.93033e-07
1.15488e-06
1.47612e-06
1.86835e-06
2.38154e-06
2.9855e-06
3.56745e-06
4.0711e-06
4.13969e-06
3.42669e-06
2.47222e-06
1.54362e-06
8.86145e-07
4.32217e-07
1.44226e-07
2.44943e-08
7.73552e-07
7.70459e-06
7.9833e-07
6.13543e-07
4.11454e-07
3.02992e-07
2.16957e-07
1.79452e-07
1.61266e-07
1.68414e-07
1.87314e-07
2.24876e-07
2.95779e-07
4.29751e-07
6.53297e-07
9.67748e-07
1.39221e-06
1.35733e-06
7.56069e-07
2.92479e-07
1.4222e-07
1.27103e-07
1.38612e-07
1.52519e-07
1.66844e-07
1.80366e-07
1.91918e-07
2.0195e-07
2.14084e-07
2.3074e-07
2.49542e-07
2.71004e-07
2.95087e-07
3.2026e-07
3.43714e-07
3.63228e-07
3.8117e-07
4.03583e-07
4.35188e-07
4.74845e-07
5.21959e-07
5.79005e-07
6.52293e-07
7.55131e-07
9.07288e-07
1.12893e-06
1.43969e-06
1.87289e-06
2.5205e-06
3.671e-06
5.45008e-06
7.55014e-06
8.56871e-06
7.56485e-06
5.33701e-06
3.63898e-06
2.32742e-06
1.25522e-06
4.8755e-07
9.46366e-08
1.03226e-06
5.85008e-06
2.17613e-07
1.28819e-07
9.21755e-08
1.07355e-07
1.5349e-07
2.38762e-07
3.73501e-07
5.75366e-07
8.85229e-07
1.39096e-06
2.23998e-06
3.64175e-06
5.71292e-06
8.21573e-06
1.07103e-05
1.01168e-05
6.38871e-06
2.92445e-06
1.35707e-06
9.5229e-07
9.48985e-07
1.06204e-06
1.21008e-06
1.34117e-06
1.4085e-06
1.41089e-06
1.4476e-06
1.57857e-06
1.83026e-06
2.13716e-06
2.49257e-06
2.84762e-06
3.10984e-06
3.18458e-06
3.06659e-06
2.8476e-06
2.39892e-06
1.94995e-06
1.53094e-06
1.25788e-06
1.19413e-06
1.22413e-06
1.30334e-06
1.46427e-06
1.72082e-06
2.11381e-06
2.70468e-06
3.64778e-06
5.14927e-06
7.56095e-06
9.58462e-06
1.04505e-05
9.83504e-06
7.16479e-06
4.82258e-06
2.95926e-06
1.28736e-06
3.06384e-07
1.64146e-06
5.12295e-06
9.77067e-08
1.57793e-07
2.91622e-07
5.3177e-07
9.37197e-07
1.56026e-06
2.47502e-06
3.77205e-06
5.74136e-06
8.87231e-06
1.39745e-05
2.18681e-05
3.25231e-05
4.33859e-05
5.07578e-05
4.80382e-05
3.58069e-05
2.17714e-05
1.31676e-05
1.00125e-05
9.56847e-06
1.00888e-05
1.09736e-05
1.1748e-05
1.21499e-05
1.21345e-05
1.22986e-05
1.28972e-05
1.42192e-05
1.65441e-05
1.9574e-05
2.30015e-05
2.59808e-05
2.73823e-05
2.67093e-05
2.47763e-05
2.15352e-05
1.81171e-05
1.45905e-05
1.09438e-05
8.07549e-06
5.25964e-06
3.49e-06
3.2983e-06
3.39248e-06
3.68171e-06
4.15879e-06
4.91625e-06
6.41107e-06
8.39178e-06
1.02463e-05
1.14015e-05
1.16281e-05
1.08149e-05
8.90654e-06
5.96637e-06
2.78581e-06
8.08074e-07
2.65685e-06
7.36722e-06
4.58936e-07
9.5606e-07
1.81624e-06
3.16135e-06
5.24795e-06
8.07341e-06
1.1771e-05
1.63496e-05
2.27819e-05
3.23629e-05
4.7115e-05
6.81574e-05
9.37887e-05
0.00011704
0.000128272
0.000127557
0.000115181
9.35202e-05
7.43523e-05
6.43845e-05
6.02556e-05
5.83631e-05
5.72807e-05
5.62965e-05
5.50169e-05
5.31506e-05
5.17739e-05
5.11619e-05
5.21183e-05
5.50665e-05
6.03163e-05
6.74454e-05
7.50385e-05
8.15552e-05
8.49611e-05
8.39932e-05
7.80957e-05
6.94213e-05
6.00722e-05
4.97498e-05
4.07368e-05
3.17016e-05
2.17675e-05
1.56287e-05
1.24543e-05
1.01669e-05
8.47076e-06
8.22277e-06
8.82854e-06
9.80603e-06
1.06597e-05
1.11199e-05
1.1124e-05
1.05148e-05
9.43414e-06
8.02716e-06
5.06567e-06
1.76142e-06
4.08709e-06
1.48099e-05
2.02959e-06
3.93129e-06
7.2064e-06
1.18739e-05
1.88099e-05
2.64374e-05
3.53258e-05
4.38111e-05
5.26791e-05
6.58191e-05
8.41756e-05
0.000106263
0.000129673
0.000152604
0.000171932
0.000185181
0.000191051
0.000189728
0.000184232
0.000177036
0.000169761
0.000161402
0.000151019
0.000139217
0.00012858
0.000120887
0.000115441
0.000111431
0.000108656
0.000107826
0.000109127
0.000112334
0.00011693
0.000121863
0.000125753
0.000127167
0.000124318
0.000117066
0.000106928
9.45387e-05
8.12908e-05
6.84949e-05
5.56134e-05
4.43945e-05
3.58096e-05
2.89217e-05
2.26007e-05
1.73726e-05
1.50528e-05
1.39333e-05
1.37319e-05
1.31155e-05
1.18924e-05
1.04655e-05
9.18759e-06
8.14601e-06
6.26825e-06
3.11717e-06
5.96384e-06
1.96334e-05
3.79481e-06
8.56585e-06
1.4389e-05
2.02981e-05
2.67925e-05
3.11912e-05
3.56957e-05
4.0942e-05
4.72725e-05
5.52621e-05
6.51173e-05
7.7151e-05
9.09163e-05
0.000104186
0.000116021
0.000126446
0.00013563
0.00014339
0.000149755
0.000155026
0.00015864
0.000160708
0.00016148
0.000160757
0.000157726
0.000151996
0.000144806
0.000137369
0.000130213
0.000124047
0.000119399
0.000116589
0.000115309
0.00011494
0.000114886
0.000114552
0.000113393
0.000110494
0.000105425
9.82074e-05
8.8924e-05
7.8336e-05
6.73701e-05
5.62621e-05
4.60427e-05
3.79565e-05
3.20685e-05
2.75415e-05
2.44317e-05
2.30507e-05
2.06525e-05
1.73791e-05
1.41891e-05
1.12402e-05
9.20567e-06
8.15287e-06
7.19441e-06
4.88494e-06
8.55931e-06
1.72551e-05
2.83864e-06
7.21458e-06
1.07246e-05
1.51697e-05
1.9111e-05
2.2453e-05
2.51745e-05
2.77523e-05
3.11805e-05
3.64238e-05
4.38962e-05
5.3696e-05
6.49208e-05
7.60243e-05
8.60929e-05
9.50504e-05
0.000102117
0.000106893
0.000110546
0.000115127
0.000121787
0.000130055
0.000139019
0.000148398
0.000157756
0.000165276
0.000167365
0.000161588
0.000150351
0.000138383
0.00012844
0.000121567
0.00011776
0.000116444
0.000116773
0.000117733
0.000118041
0.000116545
0.000112588
0.000105964
9.70406e-05
8.61092e-05
7.38567e-05
6.0802e-05
4.7695e-05
3.57529e-05
2.61972e-05
2.01209e-05
1.69022e-05
1.47591e-05
1.3206e-05
1.18514e-05
1.04048e-05
9.01682e-06
8.30403e-06
8.19887e-06
7.86099e-06
5.67031e-06
8.97218e-06
1.48741e-05
2.63406e-06
8.0701e-06
1.46576e-05
1.85668e-05
2.28381e-05
2.60517e-05
2.85635e-05
3.11066e-05
3.50186e-05
4.12829e-05
5.17032e-05
6.72606e-05
8.47993e-05
0.000100984
0.000115503
0.000128401
0.000139026
0.000146628
0.00015204
0.000157174
0.000163064
0.00017034
0.000178955
0.000188608
0.000198655
0.000207765
0.00021338
0.000211705
0.000200422
0.00018435
0.000170755
0.000161898
0.000158401
0.000159127
0.000162436
0.000166546
0.000169498
0.000169549
0.000165743
0.000158177
0.000147411
0.000133605
0.000116536
9.64165e-05
7.40934e-05
5.22303e-05
3.44503e-05
2.3365e-05
1.81441e-05
1.58097e-05
1.41815e-05
1.27764e-05
1.12407e-05
9.74163e-06
8.77827e-06
8.31101e-06
7.46877e-06
5.26877e-06
9.19533e-06
1.56604e-05
2.68724e-06
5.69934e-06
1.05879e-05
1.59907e-05
2.26009e-05
2.69643e-05
3.05145e-05
3.34299e-05
3.85192e-05
4.7083e-05
6.0334e-05
7.79692e-05
9.64424e-05
0.000112624
0.000128325
0.000145583
0.00016259
0.000174632
0.000185043
0.00019621
0.000205072
0.00021229
0.000219845
0.000228132
0.00023604
0.000241832
0.000242967
0.000236403
0.000221667
0.0002015
0.000183487
0.000173449
0.000171416
0.000175317
0.000182061
0.000189162
0.000194155
0.000195026
0.000190753
0.000181207
0.000167247
0.00014889
0.000126125
9.95345e-05
7.14646e-05
4.60188e-05
2.6765e-05
1.6687e-05
1.41135e-05
1.5271e-05
1.5929e-05
1.5355e-05
1.45941e-05
1.30062e-05
1.12516e-05
9.6858e-06
7.5981e-06
4.28637e-06
8.25294e-06
1.6533e-05
2.78848e-06
4.74554e-06
8.29123e-06
1.26523e-05
2.00605e-05
2.69066e-05
3.18716e-05
3.51014e-05
3.96335e-05
4.7152e-05
5.73388e-05
6.82667e-05
7.80692e-05
8.78254e-05
0.000101044
0.000119611
0.000144875
0.000171466
0.000191421
0.00020589
0.000216592
0.000223457
0.000229692
0.000235922
0.000241443
0.000245153
0.000244984
0.000237433
0.000221462
0.000199757
0.000180066
0.000170398
0.000169555
0.000174101
0.000181224
0.000188364
0.000192225
0.000190542
0.000183875
0.000173182
0.00015836
0.000138789
0.000113496
8.32234e-05
5.3681e-05
3.23286e-05
1.96064e-05
1.42626e-05
1.48127e-05
1.85874e-05
2.02056e-05
1.99175e-05
1.8357e-05
1.57022e-05
1.29987e-05
1.0686e-05
7.98638e-06
4.25332e-06
8.21511e-06
1.58014e-05
3.41679e-06
8.60469e-06
1.32026e-05
1.76197e-05
2.54401e-05
3.42866e-05
4.01449e-05
4.15702e-05
3.96836e-05
3.79034e-05
3.91727e-05
4.37031e-05
5.04533e-05
5.89514e-05
6.93555e-05
8.32847e-05
0.000103382
0.00013089
0.000159206
0.000180675
0.000194623
0.000204609
0.000211873
0.000217107
0.00022061
0.000222733
0.000223392
0.000219798
0.000205928
0.000185127
0.000169106
0.000159774
0.000156537
0.000157695
0.000160938
0.000163992
0.000164852
0.000162215
0.000155659
0.000145529
0.000132719
0.000117715
0.000100123
7.92645e-05
5.47742e-05
3.35619e-05
2.06063e-05
1.46499e-05
1.35345e-05
1.43072e-05
1.46833e-05
1.4412e-05
1.3369e-05
1.21393e-05
1.10352e-05
1.01186e-05
8.14496e-06
4.94712e-06
8.94241e-06
1.59645e-05
1.50925e-06
5.57118e-06
8.76995e-06
1.11963e-05
1.34155e-05
1.506e-05
1.7534e-05
2.1485e-05
2.63429e-05
3.11208e-05
3.61121e-05
4.2943e-05
4.99743e-05
5.58182e-05
6.22395e-05
7.10595e-05
8.67355e-05
0.000112465
0.000144716
0.000171837
0.000187933
0.000195877
0.00020204
0.000207437
0.000209306
0.000205893
0.000195648
0.00017924
0.000162048
0.000148275
0.000139283
0.000134936
0.000134178
0.000135579
0.000136988
0.000136444
0.000132421
0.00012413
0.000112039
9.89523e-05
8.64217e-05
7.41432e-05
6.18042e-05
4.9068e-05
3.62532e-05
2.51676e-05
1.75446e-05
1.33928e-05
1.17206e-05
1.10783e-05
1.06154e-05
1.02689e-05
1.00283e-05
9.87412e-06
9.83165e-06
9.55761e-06
7.46207e-06
4.13569e-06
7.44517e-06
1.64256e-05
2.022e-06
5.62457e-06
9.81422e-06
1.48903e-05
2.10616e-05
2.85938e-05
3.68854e-05
4.39249e-05
4.87047e-05
5.48529e-05
6.42757e-05
7.67315e-05
8.98886e-05
0.000103368
0.000120236
0.00014035
0.000161197
0.00018251
0.000196477
0.0001965
0.000191887
0.000189643
0.000188905
0.000187763
0.000183761
0.000174057
0.000159829
0.000145914
0.000135415
0.000128699
0.000124526
0.000122344
0.00012081
0.000117984
0.000113433
0.0001073
9.9337e-05
8.95732e-05
7.90216e-05
6.87106e-05
5.92726e-05
5.06049e-05
4.23626e-05
3.46053e-05
2.73395e-05
2.11321e-05
1.64671e-05
1.36288e-05
1.2488e-05
1.22856e-05
1.19718e-05
1.14106e-05
1.08474e-05
1.03308e-05
1.00256e-05
9.55609e-06
7.1412e-06
3.65375e-06
6.76076e-06
1.42011e-05
1.87758e-06
4.17894e-06
8.59141e-06
1.61911e-05
2.43409e-05
3.08347e-05
3.6328e-05
4.2102e-05
4.93954e-05
6.06905e-05
7.81561e-05
0.000102466
0.000130948
0.000155146
0.000168494
0.000173034
0.000173132
0.000171174
0.000167562
0.000163473
0.000162667
0.000164099
0.000163852
0.000158875
0.000149025
0.000135962
0.000123326
0.000114159
0.00010938
0.000108011
0.000108821
0.000111793
0.000115815
0.000119185
0.000119276
0.000114919
0.00010667
9.58296e-05
8.36598e-05
7.07478e-05
5.78082e-05
4.59987e-05
3.63848e-05
2.91089e-05
2.3855e-05
1.99886e-05
1.76336e-05
1.73423e-05
1.90961e-05
2.03232e-05
1.90265e-05
1.6186e-05
1.33283e-05
1.11575e-05
9.70986e-06
8.51767e-06
5.88082e-06
2.41003e-06
5.13085e-06
6.99467e-06
3.49859e-07
7.67551e-07
1.52454e-06
2.82226e-06
4.75635e-06
7.16666e-06
1.00153e-05
1.25542e-05
1.59153e-05
2.09819e-05
2.89691e-05
4.0404e-05
5.35786e-05
6.46391e-05
7.19505e-05
7.62829e-05
7.91488e-05
7.82882e-05
7.28522e-05
6.6617e-05
6.53088e-05
6.66574e-05
6.64287e-05
6.27424e-05
5.55947e-05
4.66192e-05
3.84421e-05
3.26217e-05
2.97053e-05
2.85752e-05
2.89199e-05
2.97977e-05
3.1147e-05
3.29463e-05
3.52033e-05
3.65167e-05
3.55451e-05
3.29251e-05
2.9046e-05
2.49564e-05
2.21687e-05
1.97418e-05
1.82029e-05
1.77077e-05
1.83192e-05
2.00797e-05
2.30682e-05
2.60664e-05
2.71164e-05
2.55115e-05
2.21142e-05
1.83596e-05
1.50492e-05
1.22205e-05
9.90809e-06
7.88926e-06
4.75477e-06
1.49809e-06
3.75222e-06
6.05199e-06
9.12741e-08
1.32596e-07
2.48376e-07
4.55896e-07
7.71822e-07
1.19356e-06
1.65483e-06
2.13742e-06
2.71968e-06
3.55386e-06
4.77694e-06
6.4625e-06
8.53039e-06
1.07784e-05
1.31493e-05
1.55794e-05
1.69573e-05
1.60237e-05
1.30527e-05
1.05699e-05
1.02007e-05
1.08252e-05
1.10708e-05
1.01792e-05
8.22849e-06
5.80932e-06
3.77628e-06
2.58516e-06
2.25653e-06
2.2957e-06
2.35459e-06
2.44588e-06
2.58003e-06
2.73653e-06
2.87616e-06
2.98083e-06
3.04117e-06
3.09246e-06
3.17961e-06
3.3769e-06
3.76825e-06
4.38835e-06
5.3672e-06
6.87756e-06
8.95943e-06
1.1855e-05
1.49044e-05
1.75798e-05
2.01005e-05
2.08548e-05
1.97414e-05
1.82253e-05
1.61614e-05
1.30789e-05
9.8332e-06
6.81849e-06
3.26403e-06
8.47863e-07
2.69393e-06
7.32527e-06
2.42479e-07
1.00059e-07
6.00068e-08
7.04863e-08
1.00612e-07
1.4617e-07
1.95594e-07
2.48678e-07
3.09618e-07
3.92034e-07
5.04175e-07
6.56694e-07
8.54304e-07
1.11081e-06
1.4352e-06
1.84419e-06
2.0289e-06
1.75733e-06
1.2665e-06
9.92626e-07
1.00464e-06
1.127e-06
1.19962e-06
1.11093e-06
8.8958e-07
6.57522e-07
5.36319e-07
5.2307e-07
5.44402e-07
5.74254e-07
6.12129e-07
6.59385e-07
7.17082e-07
7.85534e-07
8.64783e-07
9.57021e-07
1.06397e-06
1.19292e-06
1.3567e-06
1.58042e-06
1.91108e-06
2.41076e-06
3.17802e-06
4.39055e-06
6.21453e-06
8.66814e-06
1.1562e-05
1.4438e-05
1.52579e-05
1.43855e-05
1.27109e-05
1.13208e-05
1.03746e-05
8.95706e-06
6.74368e-06
4.22545e-06
1.9557e-06
4.33495e-07
1.9286e-06
9.33771e-06
8.04058e-07
4.61374e-07
2.57354e-07
1.77584e-07
1.241e-07
1.04677e-07
9.60128e-08
9.49835e-08
8.94013e-08
8.14924e-08
7.49911e-08
7.57999e-08
8.59694e-08
1.05993e-07
1.35157e-07
1.72879e-07
1.84213e-07
1.64508e-07
1.46977e-07
1.53656e-07
1.7055e-07
1.8901e-07
2.04066e-07
2.12681e-07
2.22843e-07
2.43844e-07
2.66782e-07
2.81655e-07
2.9545e-07
3.11639e-07
3.30623e-07
3.53084e-07
3.80188e-07
4.13127e-07
4.53782e-07
5.05728e-07
5.74174e-07
6.67969e-07
8.02182e-07
1.00436e-06
1.31893e-06
1.81185e-06
2.57598e-06
3.70934e-06
5.20555e-06
6.91658e-06
8.67408e-06
9.6919e-06
9.43422e-06
8.16287e-06
6.68377e-06
5.74527e-06
5.34408e-06
4.90697e-06
3.87417e-06
2.49982e-06
1.07728e-06
2.19038e-07
1.4213e-06
1.15723e-05
2.25632e-06
1.69714e-06
1.17219e-06
9.48535e-07
7.70112e-07
6.98401e-07
6.45138e-07
6.15605e-07
5.58009e-07
4.73421e-07
3.69001e-07
2.67833e-07
1.90108e-07
1.41612e-07
1.22944e-07
1.22742e-07
1.3445e-07
1.58858e-07
1.86767e-07
2.04824e-07
2.1641e-07
2.265e-07
2.38819e-07
2.54966e-07
2.73117e-07
2.89136e-07
3.02126e-07
3.13492e-07
3.22998e-07
3.27233e-07
3.2772e-07
3.26911e-07
3.29179e-07
3.37982e-07
3.56362e-07
3.88676e-07
4.41796e-07
5.25527e-07
6.54526e-07
8.53368e-07
1.16257e-06
1.64741e-06
2.40923e-06
3.59888e-06
5.35409e-06
7.45484e-06
8.71683e-06
8.38764e-06
6.91887e-06
5.11191e-06
3.51561e-06
2.45512e-06
1.88626e-06
1.55967e-06
1.2616e-06
7.84194e-07
3.25792e-07
5.15262e-08
8.6719e-07
1.63809e-05
6.40404e-06
6.17409e-06
5.32816e-06
4.9339e-06
4.54747e-06
4.37932e-06
4.21358e-06
4.08208e-06
3.86922e-06
3.55416e-06
3.15082e-06
2.72026e-06
2.35133e-06
2.10567e-06
1.98242e-06
1.91949e-06
1.88407e-06
1.86424e-06
1.8519e-06
1.83789e-06
1.8196e-06
1.79728e-06
1.77537e-06
1.7562e-06
1.74289e-06
1.73273e-06
1.72189e-06
1.70536e-06
1.67464e-06
1.62805e-06
1.56614e-06
1.49018e-06
1.40697e-06
1.3253e-06
1.25541e-06
1.20854e-06
1.19223e-06
1.20122e-06
1.22866e-06
1.27029e-06
1.32693e-06
1.40972e-06
1.52904e-06
1.71674e-06
1.91209e-06
2.05575e-06
2.01528e-06
1.73918e-06
1.34648e-06
9.91825e-07
7.24579e-07
5.41804e-07
4.03594e-07
3.04597e-07
2.33772e-07
1.51648e-07
5.53987e-08
1.04499e-08
7.20087e-07
1.14253e-05
1.42103e-05
1.82053e-05
1.9712e-05
2.09062e-05
2.16785e-05
2.22976e-05
2.27924e-05
2.32123e-05
2.35511e-05
2.37735e-05
2.38481e-05
2.37475e-05
2.34722e-05
2.30302e-05
2.24586e-05
2.17999e-05
2.1135e-05
2.04626e-05
1.97765e-05
1.90736e-05
1.83525e-05
1.76024e-05
1.68534e-05
1.61106e-05
1.54077e-05
1.47396e-05
1.41016e-05
1.34706e-05
1.28487e-05
1.22465e-05
1.16723e-05
1.11255e-05
1.06105e-05
1.01323e-05
9.70488e-06
9.34224e-06
9.0647e-06
8.88864e-06
8.82131e-06
8.86407e-06
9.00259e-06
9.20097e-06
9.35875e-06
9.32569e-06
8.90836e-06
8.26589e-06
7.47354e-06
6.57542e-06
5.64105e-06
4.72938e-06
3.86366e-06
3.0954e-06
2.42281e-06
1.86033e-06
1.39164e-06
1.0193e-06
6.57549e-07
5.29198e-07
5.70244e-07
1.04e-05
1.36741e-05
1.76762e-05
1.92867e-05
2.06135e-05
2.13931e-05
2.20602e-05
2.25192e-05
2.28637e-05
2.31223e-05
2.32575e-05
2.33231e-05
2.325e-05
2.3095e-05
2.27998e-05
2.24191e-05
2.19246e-05
2.13544e-05
2.07076e-05
1.99865e-05
1.92127e-05
1.84235e-05
1.76249e-05
1.68308e-05
1.604e-05
1.52693e-05
1.45158e-05
1.37919e-05
1.30955e-05
1.24319e-05
1.1793e-05
1.11795e-05
1.05935e-05
1.00469e-05
9.54861e-06
9.10614e-06
8.73124e-06
8.44266e-06
8.26145e-06
8.20627e-06
8.29361e-06
8.52419e-06
8.85966e-06
9.19093e-06
9.24452e-06
8.83805e-06
8.1282e-06
7.27648e-06
6.37788e-06
5.50051e-06
4.6796e-06
3.92323e-06
3.24948e-06
2.6469e-06
2.12356e-06
1.68654e-06
1.29141e-06
7.84496e-07
5.3654e-07
5.79554e-07
1.48138e-05
5.43456e-06
5.47262e-06
4.74059e-06
4.31305e-06
3.91211e-06
3.72486e-06
3.52137e-06
3.41287e-06
3.3048e-06
3.22369e-06
3.11103e-06
3.00427e-06
2.84797e-06
2.6979e-06
2.53779e-06
2.39683e-06
2.2826e-06
2.18469e-06
2.10406e-06
2.03075e-06
1.96303e-06
1.89828e-06
1.83208e-06
1.76866e-06
1.70976e-06
1.65662e-06
1.61235e-06
1.57364e-06
1.53577e-06
1.49187e-06
1.43986e-06
1.38375e-06
1.33074e-06
1.28373e-06
1.2449e-06
1.22867e-06
1.24104e-06
1.279e-06
1.33858e-06
1.41458e-06
1.49737e-06
1.56991e-06
1.61717e-06
1.6024e-06
1.50528e-06
1.35711e-06
1.19057e-06
1.03494e-06
8.9993e-07
7.8335e-07
6.79284e-07
5.84109e-07
4.93332e-07
4.00322e-07
3.13249e-07
2.07154e-07
7.70179e-08
1.18513e-08
7.36152e-07
9.98928e-06
1.6807e-06
1.29575e-06
8.77487e-07
6.70857e-07
5.13871e-07
4.46875e-07
3.8596e-07
3.62407e-07
3.43744e-07
3.35878e-07
3.25894e-07
3.16141e-07
2.97853e-07
2.81538e-07
2.64961e-07
2.52624e-07
2.45438e-07
2.40893e-07
2.38758e-07
2.37406e-07
2.36272e-07
2.35319e-07
2.34042e-07
2.32777e-07
2.33152e-07
2.36139e-07
2.41826e-07
2.48563e-07
2.55861e-07
2.62941e-07
2.70364e-07
2.79723e-07
2.93032e-07
3.11799e-07
3.38258e-07
3.75146e-07
4.26209e-07
4.95963e-07
5.90773e-07
7.23384e-07
9.14019e-07
1.19798e-06
1.62645e-06
2.27033e-06
3.26304e-06
4.07373e-06
4.30268e-06
4.06552e-06
3.57117e-06
3.02149e-06
2.55994e-06
2.20549e-06
1.92298e-06
1.64235e-06
1.3262e-06
8.56762e-07
3.55535e-07
5.52975e-08
8.72465e-07
7.60237e-06
5.49922e-07
3.09921e-07
1.64183e-07
1.10484e-07
7.62457e-08
6.4171e-08
5.46638e-08
5.28315e-08
5.22584e-08
5.44666e-08
5.73462e-08
6.11862e-08
6.55729e-08
7.21007e-08
8.08783e-08
9.20045e-08
1.05347e-07
1.20524e-07
1.37216e-07
1.55141e-07
1.73616e-07
1.92064e-07
2.10226e-07
2.27974e-07
2.45744e-07
2.62298e-07
2.77424e-07
2.93121e-07
3.10365e-07
3.31037e-07
3.58104e-07
3.94181e-07
4.4189e-07
5.04345e-07
5.8643e-07
6.95034e-07
8.42077e-07
1.04309e-06
1.32152e-06
1.73279e-06
2.37037e-06
3.41947e-06
5.20154e-06
8.23281e-06
1.30597e-05
2.03819e-05
2.6233e-05
2.73952e-05
2.379e-05
1.78123e-05
1.23544e-05
8.6077e-06
6.44187e-06
5.09664e-06
3.90701e-06
2.58806e-06
1.15224e-06
2.36936e-07
1.42533e-06
5.95805e-06
1.92512e-07
7.81947e-08
3.49269e-08
2.59535e-08
2.46611e-08
2.89656e-08
3.61021e-08
4.72826e-08
6.30217e-08
8.61465e-08
1.19878e-07
1.7043e-07
2.44271e-07
3.47817e-07
4.83519e-07
6.46934e-07
8.23584e-07
1.00229e-06
1.18285e-06
1.36979e-06
1.53068e-06
1.61949e-06
1.65499e-06
1.66829e-06
1.63978e-06
1.55314e-06
1.40905e-06
1.26367e-06
1.17225e-06
1.09287e-06
1.0242e-06
9.79464e-07
9.75064e-07
1.01983e-06
1.11142e-06
1.24905e-06
1.42416e-06
1.65485e-06
1.96876e-06
2.45147e-06
3.19395e-06
4.36927e-06
6.30582e-06
9.51116e-06
1.48064e-05
2.47416e-05
4.20343e-05
5.28113e-05
5.14432e-05
4.18269e-05
2.7469e-05
1.62494e-05
1.18639e-05
1.03437e-05
8.30576e-06
5.54689e-06
2.58944e-06
7.07674e-07
2.403e-06
4.9313e-06
5.12174e-08
2.40983e-08
2.53349e-08
3.58779e-08
5.28982e-08
7.8943e-08
1.19161e-07
1.83754e-07
2.86299e-07
4.55847e-07
7.41442e-07
1.23456e-06
2.06439e-06
3.37872e-06
5.26067e-06
7.6381e-06
1.02307e-05
1.26618e-05
1.47531e-05
1.65868e-05
1.79639e-05
1.84641e-05
1.83942e-05
1.793e-05
1.69884e-05
1.5404e-05
1.32684e-05
1.13042e-05
1.02916e-05
9.60725e-06
8.9475e-06
8.12349e-06
7.13873e-06
6.09446e-06
5.02716e-06
4.09424e-06
3.46926e-06
3.34506e-06
2.95089e-06
2.9953e-06
3.48303e-06
4.38663e-06
5.88569e-06
8.36031e-06
1.25472e-05
2.06208e-05
3.74099e-05
5.56761e-05
6.43533e-05
5.86856e-05
4.25976e-05
2.6083e-05
1.79798e-05
1.42216e-05
1.07741e-05
7.41228e-06
4.14344e-06
1.29081e-06
3.27312e-06
4.73363e-06
5.06651e-08
7.84621e-08
1.24778e-07
1.86373e-07
2.80823e-07
4.3694e-07
7.04894e-07
1.16765e-06
1.96197e-06
3.28866e-06
5.51928e-06
9.26602e-06
1.52889e-05
2.40463e-05
3.52676e-05
4.8114e-05
6.15963e-05
7.40128e-05
8.40188e-05
9.24219e-05
9.78389e-05
0.000100705
0.000102005
0.00010175
9.95876e-05
9.49623e-05
8.78018e-05
7.98286e-05
7.48974e-05
7.34196e-05
7.40246e-05
7.51492e-05
7.55919e-05
7.46698e-05
7.04171e-05
6.25519e-05
5.18022e-05
4.1906e-05
3.04247e-05
2.13283e-05
1.36832e-05
9.64709e-06
9.34885e-06
1.04513e-05
1.26963e-05
1.77233e-05
2.75201e-05
4.03302e-05
5.03456e-05
5.05773e-05
4.43212e-05
3.3842e-05
2.47493e-05
1.77114e-05
1.21287e-05
8.15472e-06
4.84186e-06
1.71047e-06
4.10131e-06
7.17868e-06
3.17483e-07
6.33166e-07
1.10964e-06
1.68026e-06
2.48551e-06
3.80533e-06
5.9428e-06
9.58113e-06
1.53144e-05
2.2831e-05
3.23877e-05
4.55086e-05
6.41162e-05
8.82952e-05
0.000114531
0.000139612
0.000163723
0.000185842
0.000202678
0.000214685
0.000222641
0.000227234
0.000229906
0.000230479
0.000228285
0.000223815
0.000216524
0.00020577
0.000193975
0.000187142
0.000186388
0.000190433
0.000197278
0.000205851
0.000212839
0.000214812
0.00020785
0.000192009
0.000166448
0.000135999
0.000104996
7.60454e-05
5.37234e-05
3.91621e-05
3.06712e-05
2.69873e-05
2.764e-05
3.15424e-05
3.6531e-05
3.72664e-05
3.36758e-05
2.80978e-05
2.1388e-05
1.55234e-05
1.11805e-05
8.30295e-06
5.52277e-06
2.21543e-06
4.94959e-06
1.83575e-05
3.12616e-06
6.93081e-06
1.16738e-05
1.74815e-05
2.36262e-05
3.00199e-05
3.65509e-05
4.63331e-05
6.10383e-05
7.23711e-05
8.49012e-05
0.000100561
0.000119164
0.0001407
0.000164183
0.000187457
0.000208659
0.000227365
0.000242941
0.000254687
0.000262955
0.000268047
0.000270586
0.000270748
0.00026928
0.000266425
0.000262098
0.000256669
0.000250006
0.000242033
0.000236032
0.000233704
0.000234114
0.000235617
0.000236212
0.000233272
0.000224783
0.000210569
0.000193097
0.000173729
0.000153255
0.000131244
0.000107184
8.25864e-05
6.15755e-05
4.60037e-05
3.57121e-05
2.97248e-05
2.69937e-05
2.63111e-05
2.44605e-05
2.09175e-05
1.66579e-05
1.2873e-05
1.01553e-05
8.51229e-06
6.25301e-06
2.95212e-06
5.83491e-06
2.2604e-05
5.7957e-06
1.39202e-05
2.55307e-05
4.0085e-05
5.28859e-05
6.85316e-05
8.91911e-05
0.000109356
0.000118576
0.000117148
0.000114019
0.000113287
0.000115325
0.000120335
0.000127554
0.00013637
0.000146298
0.000157039
0.000167927
0.000177597
0.000185187
0.000190387
0.000193408
0.000194939
0.000195674
0.000196321
0.000196503
0.000194709
0.000190316
0.000185552
0.000181049
0.000176452
0.000172015
0.000167525
0.00016249
0.00015634
0.000148457
0.000137935
0.000125197
0.000110878
9.55548e-05
7.98334e-05
6.44432e-05
4.98758e-05
3.71481e-05
2.748e-05
2.09462e-05
1.73082e-05
1.56615e-05
1.47277e-05
1.36467e-05
1.21606e-05
1.0596e-05
9.39865e-06
8.88082e-06
8.97716e-06
8.07502e-06
4.96401e-06
7.71077e-06
1.93303e-05
3.81001e-06
1.75254e-05
3.41205e-05
4.91425e-05
5.88918e-05
6.60974e-05
7.49343e-05
8.50863e-05
9.48892e-05
0.000106502
0.000117132
0.000119269
0.000117651
0.000118686
0.000121918
0.000124873
0.00012652
0.000128256
0.000131675
0.000136281
0.000140335
0.000142528
0.000142409
0.000140105
0.000136107
0.000131039
0.000125427
0.000119494
0.000113844
0.000108753
0.000104043
9.9886e-05
9.68051e-05
9.50247e-05
9.47949e-05
9.54321e-05
9.5426e-05
9.38589e-05
9.04034e-05
8.41864e-05
7.46523e-05
6.299e-05
5.0829e-05
3.9261e-05
2.88033e-05
2.03051e-05
1.44729e-05
1.12003e-05
9.5769e-06
8.61148e-06
8.01712e-06
7.74129e-06
7.73334e-06
8.06597e-06
8.80858e-06
9.69443e-06
8.88771e-06
5.48243e-06
8.07213e-06
1.69458e-05
2.64036e-06
7.19613e-06
1.04421e-05
1.18622e-05
1.26386e-05
1.41642e-05
1.72336e-05
2.26421e-05
3.19678e-05
4.93391e-05
7.72655e-05
0.000107015
0.000125936
0.000134945
0.000142708
0.000149849
0.00015523
0.000160317
0.000165361
0.000168984
0.000169703
0.00016743
0.000162838
0.000156116
0.000147404
0.000137309
0.000126964
0.000117329
0.000109093
0.00010242
9.76643e-05
9.51875e-05
9.48774e-05
9.64815e-05
9.93979e-05
0.00010253
0.000104639
0.000104675
0.000101384
9.31674e-05
7.96806e-05
6.27053e-05
4.53428e-05
3.03912e-05
1.95548e-05
1.27279e-05
9.03856e-06
7.39192e-06
6.68196e-06
6.34576e-06
6.34537e-06
6.75682e-06
7.39627e-06
8.19771e-06
9.15797e-06
9.76795e-06
8.40985e-06
5.13096e-06
8.28587e-06
1.72821e-05
2.96845e-06
1.02454e-05
1.70473e-05
2.16851e-05
2.51685e-05
2.76167e-05
3.00825e-05
3.39298e-05
4.19685e-05
5.67293e-05
7.60261e-05
9.25258e-05
0.000104588
0.00011868
0.000135807
0.000151801
0.000161412
0.000163989
0.000165181
0.000167702
0.000170587
0.000172337
0.000172158
0.00016914
0.000162755
0.000153234
0.000141759
0.000130218
0.000120406
0.000112872
0.000107793
0.000105388
0.000105385
0.000107508
0.000111024
0.000114776
0.000117272
0.000117011
0.000112788
0.000103263
8.76594e-05
6.76705e-05
4.82017e-05
3.23499e-05
2.08257e-05
1.32464e-05
8.8312e-06
6.88998e-06
6.20152e-06
5.77596e-06
5.86006e-06
6.40864e-06
7.12839e-06
7.89797e-06
8.77484e-06
9.38584e-06
8.19994e-06
5.08334e-06
8.464e-06
1.73762e-05
3.25761e-06
9.33142e-06
1.68657e-05
2.24927e-05
2.83705e-05
3.27055e-05
3.65832e-05
4.00752e-05
4.4802e-05
5.30639e-05
6.51702e-05
7.60164e-05
8.49142e-05
9.51831e-05
0.000106593
0.00011628
0.000123299
0.000130064
0.000137764
0.00014614
0.000154559
0.000162036
0.000167969
0.000172059
0.000173542
0.000170456
0.000161934
0.000151074
0.000141104
0.000132874
0.000127011
0.000124426
0.000124734
0.000127358
0.000131368
0.000135318
0.000137381
0.000135887
0.000129819
0.000118565
0.000102471
8.29943e-05
6.29871e-05
4.50971e-05
3.03072e-05
1.96174e-05
1.3438e-05
1.04752e-05
9.14763e-06
8.58041e-06
8.36801e-06
8.3929e-06
8.49002e-06
8.54043e-06
8.71063e-06
8.96867e-06
8.33944e-06
5.53185e-06
9.16563e-06
2.24187e-05
6.61972e-06
1.0941e-05
1.5053e-05
1.88774e-05
2.49777e-05
3.06224e-05
3.68676e-05
4.35009e-05
5.03524e-05
6.03352e-05
7.57505e-05
9.42613e-05
0.000112892
0.00013207
0.000150043
0.000162524
0.000171608
0.000180975
0.000191399
0.000202074
0.000211567
0.000219249
0.000225119
0.000229495
0.000232689
0.000232318
0.000226389
0.0002155
0.000202476
0.000191458
0.000183901
0.00018052
0.000181014
0.00018445
0.000188749
0.00019085
0.000187742
0.000177605
0.000161428
0.000139771
0.000113619
8.63313e-05
6.21077e-05
4.27945e-05
2.84253e-05
1.86569e-05
1.28249e-05
9.81433e-06
8.78738e-06
9.53646e-06
1.10948e-05
1.15907e-05
1.10771e-05
1.03542e-05
9.60867e-06
8.91788e-06
7.8014e-06
5.07066e-06
9.57856e-06
2.42634e-05
5.30423e-06
6.68714e-06
9.50869e-06
1.36084e-05
1.87913e-05
2.52103e-05
3.36246e-05
4.53853e-05
5.98133e-05
7.95263e-05
0.000105378
0.000135015
0.000164013
0.000187005
0.00020182
0.000213085
0.00022493
0.000237937
0.000252524
0.000266863
0.000277432
0.000283576
0.000286135
0.000285566
0.000280748
0.00026976
0.000253219
0.000234242
0.000216128
0.000202262
0.000194428
0.000194579
0.000200504
0.000207214
0.000210598
0.000207539
0.000194683
0.000172648
0.0001449
0.000112821
8.09816e-05
5.49774e-05
3.62144e-05
2.40977e-05
1.65874e-05
1.18746e-05
9.31032e-06
8.70063e-06
1.03929e-05
1.47096e-05
1.8331e-05
1.87843e-05
1.71944e-05
1.47743e-05
1.23286e-05
1.01442e-05
7.6891e-06
3.94884e-06
7.97413e-06
1.68011e-05
3.65115e-06
7.30303e-06
1.26946e-05
1.9012e-05
2.75024e-05
3.72255e-05
4.97846e-05
6.69819e-05
9.17431e-05
0.000120764
0.000151367
0.000180173
0.00020499
0.000222964
0.00023301
0.000239539
0.000247205
0.00025788
0.000271796
0.00028528
0.000295122
0.000301299
0.000303699
0.000301518
0.000294986
0.00028386
0.000268058
0.00024937
0.000232925
0.000223171
0.000220074
0.000221666
0.000224846
0.000226569
0.000224464
0.000216983
0.000202836
0.000182268
0.000155549
0.00012271
8.64138e-05
5.41419e-05
3.17173e-05
1.91157e-05
1.35747e-05
1.13864e-05
1.13442e-05
1.33735e-05
1.75444e-05
2.19176e-05
2.37561e-05