/*--------------------------------*- C++ -*----------------------------------*\
| =========                 |                                                 |
| \\      /  F ield         | OpenFOAM: The Open Source CFD Toolbox           |
|  \\    /   O peration     | Version:  2.1.1                                 |
|   \\  /    A nd           | Web:      www.OpenFOAM.org                      |
|    \\/     M anipulation  |                                                 |
\*---------------------------------------------------------------------------*/
FoamFile
{
    version     2.0;
    format      ascii;
    class       volScalarField;
    location    "0.0013";
    object      p;
}
// * * * * * * * * * * * * * * * * * * * * * * * * * * * * * * * * * * * * * //

dimensions      [1 -1 -2 0 0 0 0];

internalField   nonuniform List<scalar> 
36520
(
7.932
4.61782
3.46154
0.916079
-2.51391
-5.40567
-5.99773
-3.47013
-0.52751
-1.9794
-13.245
-37.7772
-71.8065
-104.352
-121.094
-114.582
-87.0314
-46.771
-5.93092
24.284
41.0744
48.5257
51.5046
53.0674
54.5526
56.1566
57.5657
58.3694
58.2668
57.0307
54.6492
51.2962
47.3506
43.3136
39.6846
36.8647
35.0275
34.0143
33.3565
32.3574
30.3048
26.6463
20.7796
11.7172
-1.62926
-20.3511
-45.9926
-79.6756
-120.905
-168.306
-212.581
-236.225
-231.287
-198.942
-140.507
-50.1552
78.6383
223.732
348.721
416.58
8.78568
5.27176
3.63247
0.957177
-2.66171
-5.86802
-6.53532
-3.59777
0.288161
-0.262696
-11.2129
-36.6431
-72.9425
-108.11
-126.281
-119.613
-90.5152
-47.8029
-4.55521
26.5837
43.0255
49.7363
52.0983
53.3212
54.8136
56.4772
57.9901
58.8899
58.7956
57.535
55.0804
51.6014
47.4901
43.2824
39.5252
36.6659
34.8721
33.9671
33.477
32.6945
30.8856
27.4994
21.9513
13.2165
0.156436
-18.5303
-44.498
-79.0779
-122.061
-172.549
-222.497
-249.987
-245.171
-212.557
-154.689
-63.7544
67.7214
218.161
350.943
421.12
10.525
6.55169
4.00863
1.03214
-3.02455
-6.86401
-7.6747
-3.8487
1.83219
3.07637
-7.16694
-34.3053
-75.044
-115.346
-136.265
-128.593
-97.3089
-49.7835
-1.78994
31.0702
46.726
51.9641
53.1736
53.7944
55.1592
57.058
58.7954
59.8291
59.8063
58.5368
55.9522
52.2119
47.7501
43.2051
39.1989
36.2327
34.5196
33.8697
33.7644
33.4672
32.2394
29.5911
24.9023
17.0132
4.50954
-14.0928
-40.6078
-77.2493
-124.565
-182.948
-243.904
-278.301
-274.151
-238.95
-182.705
-95.7308
39.3649
202.013
352.033
429.311
11.3305
7.26162
4.43597
1.22067
-3.49765
-8.29925
-9.28762
-4.14467
3.8572
7.55172
-1.54121
-30.9593
-77.8668
-125.365
-150.186
-140.719
-106.898
-52.6643
2.22113
37.4043
51.8028
54.9292
54.5619
54.3258
55.6286
57.8628
59.9786
61.2966
61.4419
60.1503
57.3314
53.1546
48.1184
43.0233
38.616
35.4659
33.8728
33.5939
34.0137
34.4014
33.992
32.3604
28.8601
22.0541
10.3309
-7.86933
-35.0223
-74.5864
-127.934
-193.303
-265.683
-312.223
-311.034
-273.356
-223.667
-143.856
-6.98123
172.602
353.994
443.39
11.69
7.76109
4.86204
1.50997
-4.11236
-10.1308
-11.1723
-4.21532
6.31286
12.5241
4.68496
-27.1467
-81.1852
-136.914
-166.496
-153.459
-117.995
-56.0261
7.13587
44.7369
57.3634
57.8969
55.6945
54.5658
55.8123
58.569
61.4208
63.3691
63.7809
62.4529
59.2886
54.4659
48.5779
42.6007
37.5328
34.0677
32.6187
32.827
33.9883
35.3564
35.9322
35.4606
33.5056
28.2394
17.8102
0.845302
-25.3651
-65.6127
-122.041
-191.91
-269.86
-341.664
-366.303
-319.782
-261.562
-194.971
-74.6548
132.439
356.984
465.178
10.4663
7.60558
5.14738
1.94215
-4.82969
-12
-12.5762
-3.33465
9.86188
17.891
9.91917
-24.4675
-85.9778
-150.305
-184.835
-169.389
-128.256
-60.3251
11.2327
51.6185
62.4624
60.4859
56.5004
54.4778
55.5531
59.1396
62.9394
65.6412
66.7052
65.3368
61.7472
56.1847
49.271
42.2504
36.2898
32.2182
30.6951
31.3094
33.2135
35.5789
37.262
38.3644
38.9023
35.4933
26.9566
12.519
-10.3575
-48.1982
-107.223
-183.241
-260.679
-334.311
-428.917
-375.654
-296.568
-273.715
-134.123
89.029
367.229
498.11
10.1837
7.69783
5.63035
2.84013
-5.01904
-13.0702
-12.8008
-1.13676
14.6633
23.6744
13.2676
-25.3353
-92.736
-162.539
-197.895
-176.727
-133.132
-63.9281
13.9217
57.6874
66.3766
62.3468
56.4558
53.3906
54.6824
58.86
63.5035
67.3575
69.3023
68.5814
64.793
58.4756
50.4452
42.2314
35.0629
30.0966
27.9698
29.645
32.1477
35.3278
37.8286
40.0075
42.1458
40.4227
33.3062
21.3285
2.6606
-30.3283
-89.3933
-171.392
-247.998
-289.643
-370.569
-636.483
-364.151
-318.49
-192.662
75.678
399.19
546.89
-0.938506
5.73996
5.36913
2.93033
-7.06901
-15.8863
-13.3302
4.48887
22.3942
32.4618
16.1926
-30.3126
-100.554
-171.1
-206.837
-183.279
-118.99
-48.8837
14.862
51.1082
63.2079
60.1352
53.6952
50.5401
52.5779
57.5486
63.3588
68.8088
72.0444
72.532
68.5668
61.3644
52.4213
43.1643
35.1688
29.5899
28.0392
28.6299
31.4135
34.7104
37.5121
39.9234
43.0752
43.4566
38.1689
28.2017
12.2739
-15.1638
-69.5427
-154.404
-231.129
-278.655
-322.792
-346.795
-222.768
-308.031
-184.535
183.509
420.924
619.112
21.4288
9.60114
3.61704
0.586884
-9.26377
-10.4466
2.29347
19.9606
32.543
31.131
6.7521
-45.885
-113.384
-170.298
-199.815
-171.369
-101.867
-33.6334
16.2085
46.8033
58.921
57.739
52.8284
51.0163
53.2189
58.3753
64.2575
69.1094
72.9879
74.6364
71.1838
63.7118
53.744
43.346
34.0856
27.4174
24.7013
26.9469
31.4899
35.5867
38.6634
41.4299
44.1158
44.6539
42.7446
36.1988
23.1586
0.952994
-50.9874
-145.387
-228.458
-283.151
-299.832
-167.543
-278.586
-598.478
-239.649
247.27
434.981
690.313
37.9373
7.53103
1.74117
-0.905207
-14.8873
-22.2638
-7.95118
23.5992
43.0969
43.7611
15.6757
-45.0144
-126.331
-185.995
-198.331
-169.45
-103.401
-34.7775
20.0276
53.021
64.3778
62.2132
56.5247
52.6569
52.6855
55.1013
60.5408
71.158
79.4421
80.8353
74.7312
64.1882
53.2239
41.843
31.7016
24.7565
23.1212
26.046
31.0939
35.4546
38.8915
42.3933
46.5473
49.5135
51.4179
46.375
33.1721
7.02348
-54.4779
-149.356
-225.706
-277.725
-274.45
-0.518031
-440.006
-595.624
-247.666
290.587
457.326
713.308
13.9272
5.00388
2.11132
-2.70974
-14.6924
-18.0676
-1.11588
24.4038
41.2673
43.5175
22.9753
-33.7386
-118.659
-186.35
-193.826
-182.252
-111.146
-40.5985
25.6833
62.3319
72.4841
65.0036
55.3735
49.3654
48.0906
50.2941
55.6107
64.05
78.7259
88.325
79.1572
66.5057
54.3069
41.6244
31.9606
25.9102
25.0061
28.2274
33.0486
36.9347
39.112
42.088
46.2007
50.1385
54.3321
52.3165
40.2703
15.6304
-44.3673
-142.425
-224.112
-271.021
-248.669
48.5924
-529.603
-580.005
-191.761
369.516
474.548
716.217
-8.06662
5.16601
6.20056
4.52633
-10.1302
-20.2402
-12.8902
12.494
41.2704
56.171
42.6274
-25.3191
-123.739
-209.767
-223.358
-208.428
-141.177
-40.485
37.4866
77.9948
82.0636
69.3775
56.0699
48.0262
46.3481
48.4118
54.3541
63.1823
73.8084
79.944
77.9832
66.9865
55.1699
43.2051
33.6561
28.3426
27.3507
29.6314
33.3583
36.9492
39.0097
42.1771
46.1539
49.618
53.3355
52.5449
42.9821
16.5979
-43.2401
-143.477
-226.947
-269.183
-250.273
-75.6841
-375.298
-523.466
-195.166
461.086
500.519
701.101
-1.09427
11.1932
8.33764
5.46991
-11.1357
-29.8916
-28.0049
-0.275807
34.4491
63.9256
61.8179
7.38314
-82.6287
-172.808
-250.262
-238.021
-171.952
-58.744
35.4126
92.5902
98.8703
79.3561
60.1235
48.8778
45.1646
46.4386
52.7878
62.4757
72.361
81.5111
79.049
68.6087
56.2893
43.8927
34.3116
28.9632
27.5798
29.8671
34.701
39.6848
41.1385
43.0653
47.4508
52.5221
56.6617
54.3733
39.0171
6.15859
-61.0869
-154.19
-226.823
-262.497
-245.634
-109.497
-487.271
-530.654
-156.454
436.312
506.557
693.9
28.3639
14.0531
11.751
8.3389
-14.8394
-44.6938
-49.9313
-11.3702
46.5487
83.044
84.6738
21.5239
-78.6111
-195.52
-242.505
-170.939
-143.234
-57.646
17.1407
92.9297
112.129
82.453
58.9223
45.2177
40.8703
43.2893
50.2731
59.6528
76.4096
90.5677
84.5547
70.1026
56.8368
43.2135
33.1605
27.5028
25.768
28.3759
33.5463
37.2053
38.6026
39.2252
41.6947
44.3324
49.1377
47.5597
27.6125
-12.0349
-78.4833
-160.439
-224.979
-253.405
-235.564
-153.971
-671.9
-432.046
-55.8771
330.889
486.227
684.53
76.5827
27.727
18.4525
12.5822
-11.7571
-46.8078
-53.525
-8.91849
31.8016
59.6692
72.7614
29.2543
-48.1579
-140.512
-220.851
-368.555
-379.348
-184.492
18.7992
102.049
125.322
102.968
58.3525
39.9408
35.7486
42.4513
56.6261
75.794
85.6904
85.1226
77.6213
66.3321
55.348
44.7142
35.678
29.5683
28.1434
29.785
34.4137
37.7447
37.6561
37.8416
38.29
36.7783
31.0065
19.8741
-2.42506
-41.9572
-101.203
-169.285
-218.879
-243.206
-232.839
-205.011
-645.612
-440.618
-26.5946
260.113
472.965
662.371
22.2484
14.3114
13.8247
10.865
-26.7692
-61.8206
-44.7698
11.6541
74.7576
102.303
83.4895
1.70242
-100.006
-174.533
-193.022
-167.372
-146.699
-151.109
-89.34
44.9957
107.313
83.9124
51.6139
35.7243
31.904
37.8122
50.5958
64.7857
75.2737
78.0188
72.2305
64.3379
55.186
46.005
38.4419
32.0741
29.2337
30.0555
31.9746
34.2586
35.1148
35.1209
34.1982
29.011
16.8531
-1.80056
-27.864
-65.8844
-117.574
-171.707
-207.1
-232.654
-226.446
-172.329
-632.603
-400.177
-8.37444
241.324
476.575
650.722
-1.43018
5.76096
6.86824
2.35745
-18.4619
-34.2657
-23.8593
-0.0684378
36.9975
62.7403
56.7888
-5.91612
-96.4712
-169.917
-190.548
-176.726
-145.281
-103.888
-51.1825
14.044
66.681
61.3376
43.9755
34.1747
31.6861
35.4209
45.6889
58.5915
69.1289
73.7034
71.8388
64.7907
55.0195
44.6199
35.7267
30.2006
28.5815
30.1016
32.2101
34.0919
34.7569
34.6412
33.5372
28.8987
16.9902
-3.54606
-32.131
-68.3178
-115.116
-165.788
-201.619
-227.346
-229.613
-227.106
-445.298
-447.253
-145.432
207.464
477.478
618.898
8.54509
6.4456
3.8312
-1.79259
-14.8065
-22.0184
-11.5605
12.6084
37.8677
40.7768
25.927
-18.7742
-82.397
-134.063
-152.055
-142.217
-130.241
-98.813
-43.3017
11.6418
45.9062
45.3735
37.2681
32.3064
32.4578
37.4527
46.6521
57.2405
65.855
69.6685
68.0277
62.2671
53.6239
44.4059
36.9524
31.7989
30.0401
31.0627
32.6755
33.9506
33.7254
32.2683
29.1741
21.635
7.79972
-13.3509
-41.2996
-74.9016
-120.304
-170.484
-202.22
-227.048
-256.686
-308.928
-318.487
-340.049
-215.694
100.866
438.704
561.462
7.37929
4.99499
1.873
-2.91641
-10.7636
-14.3458
-6.5899
7.83185
23.7064
23.9468
7.61673
-26.3046
-70.8304
-107.12
-122.572
-117.405
-99.2771
-74.8347
-34.499
5.28706
29.221
33.4157
31.6134
30.6698
32.6285
37.6862
45.5221
54.2695
61.3834
64.478
63.5419
59.0948
52.1725
44.6379
38.2647
33.8958
32.1687
32.5484
33.5649
33.9806
32.8257
30.0615
24.6417
14.5857
-2.00697
-25.6275
-55.4692
-92.1119
-136.203
-176.177
-204.247
-232.113
-266.397
-269.708
-255.027
-242.653
-172.387
51.1181
401.353
513.62
9.31671
4.83316
1.09173
-2.84501
-7.8346
-9.35312
-3.43268
6.16106
14.0446
11.5996
-3.25957
-29.7397
-62.1361
-88.9433
-101.786
-99.0746
-85.6989
-61.4431
-30.2809
-0.719808
18.1906
25.3536
27.5123
29.2008
32.3647
37.3985
44.2618
51.7381
57.7228
60.6374
60.0077
56.4254
50.7754
44.5245
39.0587
35.1736
33.3368
33.0928
33.2891
32.7384
30.4554
26.1696
18.7385
6.41036
-12.2521
-37.5175
-67.8884
-103.131
-142.59
-176.959
-202.749
-226.111
-247.744
-248.814
-230.724
-192.916
-96.0476
80.2119
369.868
478.586
8.19879
4.41523
1.01559
-2.41207
-5.72368
-6.3357
-2.16173
3.91935
7.58602
3.55937
-9.79706
-30.9969
-55.5121
-75.9942
-86.3944
-84.113
-72.8741
-53.0588
-28.4702
-5.18515
11.1497
19.8502
24.4185
27.8995
31.9036
36.9998
43.1659
49.5754
54.7734
57.5186
57.2167
54.3477
49.6935
44.4154
39.6531
36.1279
34.1542
33.2972
32.5462
30.8421
27.3592
21.5417
12.3385
-1.50766
-20.9823
-45.9643
-75.5332
-107.963
-143.153
-172.338
-193.514
-211.049
-225.072
-224.321
-208.263
-155.419
-43.6096
127.322
364.867
459.837
8.272
4.08242
1.06368
-1.84093
-4.26987
-4.54691
-1.90037
1.86837
3.12078
-1.6845
-13.7203
-31.4293
-51.1657
-67.6073
-76.138
-75.2603
-64.6901
-47.9651
-27.7145
-8.2615
6.56651
16.0477
22.0438
26.6634
31.2706
36.4415
42.1759
47.8795
52.5034
55.0739
55.0736
52.7757
48.8464
44.2649
39.9991
36.7129
34.6229
33.3059
31.9096
29.4045
25.0152
18.1049
7.72881
-7.2288
-27.0853
-50.2524
-78.9319
-106.958
-134.686
-159.028
-178.268
-192.749
-199.769
-194.479
-168.179
-109.112
7.37732
174.605
367.21
450.62
6.64461
3.43709
1.15499
-1.31678
-3.2685
-3.44115
-1.68658
0.561755
0.36478
-4.87174
-15.9517
-31.4736
-48.3519
-62.3263
-69.7167
-68.733
-59.6452
-44.9798
-27.2919
-10.0677
3.82305
13.6265
20.4362
25.7668
30.756
35.9709
41.4631
46.7286
50.9698
53.3756
53.5445
51.6101
48.1441
44.0177
40.0806
36.9104
34.6606
32.9255
30.9108
27.7579
22.682
15.0353
4.30199
-10.2871
-29.2694
-52.1641
-77.921
-103.625
-128.221
-150.072
-167.963
-180.187
-184.21
-174.929
-143.081
-74.1736
45.5782
207.082
367.258
444.474
5.61522
2.76307
1.11384
-1.12587
-2.89326
-3.03538
-1.67628
-0.160841
-0.995483
-6.39335
-17.0078
-31.4921
-47.0196
-59.786
-66.6485
-65.676
-57.2261
-43.5791
-27.1024
-10.9154
2.52431
12.4372
19.5984
25.2524
30.4202
35.6552
41.0404
46.1352
50.2193
52.5745
52.8159
51.0535
47.8119
43.9007
40.1067
36.9664
34.6293
32.7204
30.5123
27.1939
22.0565
14.3464
3.65482
-10.8267
-29.3305
-51.5119
-75.9449
-100.622
-124.363
-145.515
-162.783
-173.892
-176.67
-165.52
-130.524
-58.5305
64.2557
220.78
367.526
441.485
5.24197
1.15466
-0.960244
-3.35604
-5.34662
-6.75041
-7.85066
-8.89853
-10.2469
-11.9445
-14.066
-16.6125
-19.4846
-22.183
-23.9936
-24.2146
-22.571
-19.2497
-14.7394
-9.53521
-3.9669
1.72284
7.39174
12.9667
18.5093
24.1173
29.77
35.1725
39.6938
42.6505
43.6665
42.8681
40.7331
37.904
35.0437
32.8193
31.6917
31.4654
31.3303
30.1554
26.9773
21.1653
12.2736
-0.284455
-17.1904
-39.148
-64.5227
-90.9255
-115.759
-137.221
-155.15
-170.635
-182.273
-182.37
-155.389
-84.9766
43.8282
217.867
382.889
459.424
6.3127
1.79884
-1.04239
-3.59286
-5.57327
-6.95755
-8.03462
-9.07178
-10.4139
-12.0609
-14.0515
-16.4646
-19.2985
-22.0791
-24.03
-24.3503
-22.7214
-19.3659
-14.8189
-9.59809
-4.01655
1.69525
7.38664
12.9722
18.5265
24.1729
29.913
35.4782
40.1358
43.1729
44.1576
43.2611
40.9815
37.9736
34.9453
32.6596
31.6079
31.5784
31.7703
30.9288
27.9839
22.215
13.1619
0.318203
-17.2817
-40.4671
-67.2714
-94.8394
-120.094
-141.262
-158.365
-173.938
-187.19
-191.605
-170.413
-104.991
20.0116
202.044
384.611
464.079
7.95062
2.42513
-1.34114
-4.11107
-6.08682
-7.43132
-8.46499
-9.51276
-10.8599
-12.4026
-14.082
-16.175
-18.907
-21.8592
-24.0949
-24.6197
-23.0173
-19.5873
-14.9708
-9.72119
-4.12554
1.63031
7.37351
12.9656
18.5048
24.1986
30.1209
36.0285
40.8945
44.0995
45.066
43.9944
41.4593
38.1431
34.7937
32.3169
31.45
31.9565
32.951
32.9668
30.8038
25.5334
16.5616
3.1615
-16.0977
-41.8681
-71.5982
-102.475
-129.474
-149.919
-164.758
-180.497
-197.672
-211.569
-200.962
-145.691
-27.2541
165.613
387.372
472.539
8.2471
2.34579
-1.88998
-4.79196
-6.73476
-8.05794
-9.07737
-10.22
-11.6466
-13.0407
-14.2042
-15.7339
-18.244
-21.4505
-24.1218
-24.9473
-23.3615
-19.8001
-15.0987
-9.84719
-4.25987
1.55132
7.36395
12.9586
18.4561
24.2216
30.4444
36.686
42.0075
45.4797
46.399
45.0652
42.1679
38.4308
34.6197
31.8221
31.1051
32.2985
34.4718
35.7701
34.9673
31.0051
23.045
9.5081
-11.7654
-42.0447
-76.3856
-114.595
-145.42
-163.434
-173.685
-185.961
-209.384
-236.471
-241.256
-202.402
-94.7662
110.978
389.228
487.357
8.72535
1.90685
-2.75689
-5.63183
-7.46015
-8.82025
-10.0589
-11.614
-13.3052
-14.5105
-14.7901
-15.3123
-17.3209
-20.7427
-23.9786
-25.1777
-23.5868
-19.8565
-15.1066
-9.93136
-4.40692
1.46341
7.35811
12.9393
18.3628
24.1516
30.6662
37.3991
43.3614
47.1711
47.9833
46.2527
42.8407
38.4882
34.0316
30.7766
30.3377
32.541
36.2959
39.5936
40.5517
38.6479
33.1716
21.5247
-0.0432475
-35.3623
-80.1185
-127.165
-162.772
-178.869
-189.605
-195.377
-214.815
-258.959
-279.185
-254.364
-177.39
58.4356
401.875
510.669
8.86646
1.47278
-3.85444
-6.55684
-8.04595
-9.44185
-11.4072
-14.0234
-16.4887
-17.4275
-16.1421
-14.8981
-15.811
-19.3627
-23.2855
-24.9483
-23.3626
-19.5392
-14.8785
-9.90143
-4.49044
1.47451
7.45567
13.0096
18.2931
24.0618
30.8412
38.2522
45.0369
49.1952
49.8743
47.5812
43.4443
38.1983
32.764
28.6826
28.0577
30.9412
36.012
40.9848
44.1272
45.5875
43.4453
35.5158
18.0741
-14.0257
-61.5057
-120.146
-171.704
-195.71
-202.014
-205.481
-222.03
-272.516
-297.468
-286.87
-275.678
36.8139
433.045
543.772
6.2513
0.3134
-5.07741
-7.63465
-8.31393
-9.64663
-13.1128
-18.1415
-22.4712
-23.046
-18.7932
-14.6283
-13.6199
-17.1546
-22.1455
-24.503
-22.8638
-18.7961
-14.2321
-9.54358
-4.33941
1.54468
7.54646
12.9662
18.0974
23.8576
31.0228
39.37
47.2626
51.9482
52.2509
49.208
44.1352
37.7898
31.2836
26.4129
25.6187
28.6862
34.2655
40.8837
45.741
49.2621
50.5214
46.4935
33.6838
7.50848
-35.9302
-99.9947
-167.334
-207.544
-216.203
-219.166
-234.766
-280.32
-293.551
-324.789
-403.271
112.521
500.368
585.73
5.84267
-0.0704936
-6.62914
-8.80391
-7.7202
-8.05007
-13.4814
-22.5441
-29.7661
-30.497
-23.3156
-15.0549
-11.1005
-14.2369
-20.7872
-24.0382
-22.1273
-17.6604
-13.2451
-9.04426
-4.18022
1.62733
7.61051
12.8556
17.7472
23.3469
30.6783
39.866
49.2746
54.9122
54.3999
50.6126
44.5361
36.9876
29.4267
23.7522
22.5582
25.5633
32.4753
40.0643
46.4518
52.0981
56.0519
55.7828
47.2447
28.751
-3.01294
-55.4023
-131.178
-198.802
-224.443
-227.791
-225.603
-231.246
-265.509
-388.036
-398.048
264.084
574.163
635.714
-5.18116
-1.91086
-8.17493
-9.16796
-5.80766
-4.58351
-14.1468
-30.1712
-43.9696
-50.3255
-30.571
-16.3047
-7.64036
-9.42308
-18.0059
-22.1467
-19.4023
-14.0021
-9.95044
-6.82288
-3.05994
2.23459
7.94837
12.9457
17.5081
22.7555
29.6773
38.8794
49.1587
55.7048
55.6004
51.8146
44.8529
36.3734
28.3867
22.4801
20.9281
23.406
27.5805
34.1735
40.6608
46.134
50.2695
52.5389
50.4475
37.0402
11.321
-30.2315
-92.5044
-168.302
-216.688
-228.666
-219.944
-176.618
-402.893
-624.255
-37.1198
364.294
620.12
690.761
23.6271
8.31283
-10.6856
-16.9582
-9.42697
-4.16764
-17.031
-43.9022
-60.1044
-49.079
-30.2662
-20.4873
-4.91207
-3.44606
-14.2881
-20.1226
-17.2492
-11.4471
-7.87412
-5.15222
-1.57689
3.69934
9.43423
14.2497
18.3853
23.5109
30.4536
40.4755
52.9557
59.1568
58.0575
52.9136
44.41
34.9426
26.4513
20.6095
19.8442
25.0467
31.8665
38.6593
45.807
51.8473
55.2583
56.7434
51.9087
35.1973
7.28558
-38.7815
-107.185
-175.207
-220.25
-230.513
-221.032
-165.864
-632.429
-549.703
-41.4602
327.411
587.357
718.645
73.6254
5.34056
-14.8736
-11.8557
15.0303
26.5736
-1.60705
-46.7995
-84.0122
-91.5348
-83.2356
-24.327
17.2123
17.2046
-3.02698
-14.6023
-12.0577
-6.17593
-3.61006
-2.77244
0.0146314
5.84057
12.0178
17.1705
21.6886
27.5383
35.1189
44.3312
55.1733
59.978
57.8612
51.6811
42.8561
33.3963
24.3824
17.8229
17.5763
23.0613
29.7526
38.3374
47.3686
54.7041
59.4594
61.7748
61.604
50.4609
22.9528
-23.3773
-106.951
-184.796
-227.803
-236.349
-213.336
-167.023
-695.476
-391.743
-14.3881
270.04
516.133
696.622
102.466
25.099
-0.820008
-23.9322
-20.9181
-2.05822
-3.63543
-32.0764
-57.867
-94.3708
-27.3633
27.4114
39.9427
41.9305
3.34805
-17.5754
-11.0432
0.0747392
4.39436
4.91748
6.88985
12.4623
17.0432
19.9989
23.4237
29.4428
37.4455
45.2758
53.0697
56.5817
55.5324
50.6884
42.7527
33.1074
24.3064
18.7463
18.98
24.2761
30.3694
38.9492
48.6205
56.2426
61.1826
63.0512
60.2559
49.7511
26.7941
-13.2057
-93.8297
-181.077
-226.155
-237.493
-198.355
-81.7005
-669.418
-405.392
-11.1408
245.096
441.927
686.683
113.099
29.5788
2.99144
-2.10123
-1.1175
6.75899
-2.99265
-62.7396
-93.096
-103.398
-118.923
-71.828
-16.5209
10.1223
-14.8878
-18.6091
-2.54159
20.0159
21.8424
10.6638
6.62382
8.74438
12.5741
17.342
22.2968
29.3629
38.871
49.6096
56.6037
57.9273
56.4547
51.0748
42.9415
33.1099
24.0884
19.0205
19.9796
25.612
31.913
40.5319
50.2342
58.0803
61.6217
60.8895
57.3013
45.0139
23.7909
-11.5293
-79.9385
-170.685
-224.199
-251.56
-224.345
-73.8609
-631.068
-410.145
-37.5437
241.227
420.356
688.873
51.8164
5.87251
-6.95473
-8.66532
-6.65886
2.40146
-1.61486
-32.0522
-65.3239
-79.9029
-88.8998
-98.3641
-74.8174
-24.389
-20.278
-4.06636
9.63367
14.4218
9.12111
6.9071
7.18083
9.98161
14.4691
17.7196
21.7914
29.4659
40.6392
53.1869
59.5956
60.18
57.2787
50.4504
42.0796
31.9888
22.6399
17.8059
19.0746
25.3331
31.5047
38.6686
46.517
53.4187
57.3847
56.3498
51.16
38.891
16.9559
-19.5726
-78.6774
-158.354
-222.313
-250.639
-259.406
-230.028
-616.584
-305.326
-94.1382
253.949
427.708
703.469
5.1487
-0.347596
-3.7377
-4.69766
-5.97592
-1.43928
-4.92674
-23.6252
-44.5478
-58.641
-75.5722
-87.1757
-70.8093
-45.2151
-26.9636
-2.44388
18.6822
18.4775
13.1169
6.98387
4.97028
8.6846
13.6373
17.8262
21.1556
28.126
38.7906
51.1411
60.3522
61.2039
58.1296
53.3874
43.461
31.8279
21.1306
17.4117
20.0625
26.4845
30.5224
34.6341
41.0766
47.1041
50.1733
48.034
39.8436
25.9058
4.92912
-26.5646
-79.2649
-157.451
-222.568
-250.305
-254.412
-242.364
-481.16
-219.525
-199.631
301.047
433.489
699.255
-5.37048
-3.5956
-7.54599
-7.53339
-6.12426
-3.23491
-5.40591
-16.3626
-30.2425
-45.013
-64.1882
-78.245
-68.0349
-47.7786
-25.7143
-5.44755
7.67057
9.91264
7.49625
6.28606
6.44655
10.2021
14.9819
19.4394
23.9346
29.3218
37.1314
47.1194
54.8233
58.119
56.9692
52.9475
44.0608
32.8336
24.4347
21.8379
24.282
29.3955
33.5916
35.874
39.2541
42.8125
44.884
42.4765
31.3911
13.8214
-12.8527
-57.2145
-122.82
-199.179
-244.591
-243.121
-253.301
-202.938
-261.937
-317.151
-252.277
288.827
420.009
660.586
-16.3266
-6.59553
-6.60467
-5.99761
-5.64947
-3.48257
-2.18714
-6.24077
-17.0994
-34.3713
-57.5236
-71.0786
-66.4194
-51.3148
-30.2394
-9.38337
1.68441
5.37151
3.76124
4.19122
6.68351
11.1738
16.2765
21.1709
25.2094
30.6637
37.0092
45.0232
50.9975
54.9005
54.3294
51.1679
43.6095
33.6788
25.3108
21.1643
21.0535
24.0936
27.814
31.5501
35.6429
39.257
41.324
37.1707
23.7777
2.70239
-27.7285
-76.0691
-139.246
-191.531
-218.706
-228.986
-247.753
-265.93
-285.941
-333.531
-304.993
124.923
389.059
636.414
3.37236
0.197472
-2.84563
-4.63446
-5.97212
-5.39978
-4.99058
-7.73196
-15.1274
-28.2993
-44.8741
-56.2861
-59.2518
-52.0276
-38.5157
-23.0757
-11.5371
-4.99795
-1.03573
2.88209
7.67106
13.1737
18.7733
24.1626
29.2626
34.8893
41.1759
47.4141
51.6409
53.3023
52.5416
48.965
41.4558
32.3692
25.125
22.499
23.4902
27.8164
33.3623
38.1432
41.7896
43.9505
43.5191
36.294
19.6737
-5.75571
-42.8958
-97.9736
-161.624
-207.379
-218.038
-226.096
-247.67
-290.585
-271.895
-267.916
-238.78
37.2217
381.053
571.751
6.34921
-0.075812
-2.78558
-4.31676
-5.6234
-6.01778
-6.4789
-8.91517
-14.7225
-24.5279
-36.3336
-45.5143
-49.4434
-47.0128
-39.1625
-28.4119
-18.2475
-10.0912
-3.82185
2.32361
8.42181
14.3703
19.922
25.0813
30.3251
35.7809
41.252
46.3542
49.9713
51.5931
51.2248
48.2976
41.8801
34.405
28.6266
25.3738
25.8676
28.8373
33.4126
37.3399
40.1722
41.0519
37.3639
25.973
5.95786
-24.1218
-70.6287
-128.975
-180.989
-208.088
-211.717
-210.271
-225.59
-242.721
-235.692
-216.293
-149.716
29.9967
361.962
513.333
7.734
2.23875
-1.40713
-3.66027
-5.37171
-6.35053
-7.18132
-9.34217
-13.9796
-21.5786
-30.921
-39.3072
-44.5738
-45.1887
-40.6336
-32.7357
-23.8022
-14.3009
-5.8441
2.08131
9.38509
15.9989
21.9418
27.3129
32.3462
37.0597
41.5877
45.5625
48.2866
49.3104
48.8173
46.2677
41.311
35.4987
30.8933
28.5496
28.6806
31.0883
34.3676
36.8373
37.5721
35.5237
28.7073
14.5197
-8.57281
-42.0469
-86.761
-137.059
-178.079
-196.637
-202.237
-206.344
-220.001
-227.467
-213.284
-177.983
-98.9344
82.533
358.425
478.765
8.16707
2.7769
-0.547448
-3.03182
-4.9732
-6.33383
-7.47322
-9.47859
-13.4386
-19.7772
-27.774
-35.6456
-41.5512
-43.6512
-41.3644
-35.1979
-26.6224
-16.8936
-7.277
1.7414
9.79547
16.7648
22.8096
28.1288
32.97
37.3974
41.4793
44.8222
47.0597
47.8767
47.2794
44.9336
40.8461
36.1676
32.32
30.1291
29.8747
31.1386
33.1334
34.1768
33.4683
29.5671
20.6263
4.75088
-19.361
-52.0338
-91.6673
-133.703
-164.737
-181.022
-187.367
-192.825
-203.952
-206.252
-185.665
-135.137
-34.6374
135.394
361.879
457.772
8.22965
3.30902
0.00864094
-2.56037
-4.64543
-6.26766
-7.64678
-9.61584
-13.1767
-18.7563
-26.0273
-33.6284
-39.884
-42.9983
-41.9374
-36.7516
-28.585
-18.4914
-8.19119
1.5489
10.1189
17.3525
23.4768
28.7451
33.4125
37.6002
41.2975
44.2335
46.2255
46.8679
46.1812
44.003
40.5
36.5516
33.1983
31.0952
30.5464
31.2149
32.2045
32.204
30.2912
25.0329
14.8825
-1.63709
-25.4774
-55.7815
-90.0388
-124.233
-151.049
-166.509
-173.071
-178.166
-183.703
-178.898
-149.179
-89.8915
16.9599
182.609
362.006
445.275
6.75292
2.8111
0.33981
-2.11991
-4.33689
-6.11557
-7.67837
-9.64565
-12.99
-18.1395
-25.0028
-32.4465
-38.903
-42.5557
-42.1501
-37.4921
-29.4499
-19.3903
-8.72647
1.43757
10.3182
17.7173
23.9029
29.1499
33.7192
37.7667
41.2812
43.9392
45.6719
46.2076
45.4694
43.415
40.2707
36.7493
33.6893
31.6554
30.8792
31.0879
31.4371
30.7577
27.984
21.8375
10.9442
-5.70042
-28.4963
-56.5398
-87.1451
-116.769
-140.785
-155.629
-162.538
-166.622
-168.649
-159.181
-125.165
-59.477
52.884
210.552
362.161
437.826
5.74625
2.25611
0.418562
-1.97095
-4.2248
-6.06468
-7.70199
-9.67723
-12.9272
-17.9021
-24.5855
-31.9513
-38.4909
-42.3915
-42.3078
-37.9174
-29.9724
-19.8872
-9.02301
1.33387
10.3627
17.8468
24.0611
29.2911
33.7665
37.7849
41.1668
43.7625
45.4019
45.8852
45.1278
43.1362
40.1593
36.8317
33.8881
31.8552
30.971
30.9635
31.0017
30.0104
26.9283
20.5559
9.67664
-6.67502
-28.6735
-55.0522
-83.6226
-111.377
-134.459
-149.646
-157.526
-161.286
-161.225
-149.175
-113.028
-44.4039
69.8598
221.45
361.538
433.589
4.81979
2.59788
1.00789
-1.13218
-2.99675
-2.95557
-1.13697
0.912742
0.381135
-5.11404
-16.1736
-31.2048
-47.1279
-60.1175
-67.0372
-66.0455
-57.672
-44.2894
-28.1355
-12.1548
1.2076
11.1021
18.2705
23.9826
29.2948
34.7716
40.4906
46.0402
50.5357
53.1616
53.4538
51.5397
47.9912
43.7172
39.6617
36.4256
34.1721
32.4571
30.397
26.9319
21.3243
12.7454
0.992536
-15.257
-35.7107
-60.0533
-86.1107
-111.27
-134.519
-154.676
-170.681
-180.117
-183.192
-174.635
-143.022
-71.2494
61.2016
239.241
407.825
490.942
5.08731
2.99549
1.17117
-1.1773
-3.13182
-2.90939
-0.660291
1.85194
1.55769
-4.02479
-15.3993
-30.7581
-46.8389
-59.8033
-66.6277
-65.6191
-57.4308
-44.4519
-28.8353
-13.3031
-0.204357
9.57959
16.7398
22.529
28.0075
33.7352
39.8037
45.7854
50.7068
53.6525
54.0912
52.1246
48.3665
43.8768
39.7048
36.4337
34.3177
32.7531
30.6371
26.8047
20.4396
10.9847
-2.55318
-20.2038
-42.2962
-68.2304
-94.7945
-119.199
-141.483
-160.421
-175.322
-182.777
-185.963
-180.298
-152.541
-80.9773
62.7707
264.9
454.718
546.013
3.72707
2.67805
0.996709
-1.2977
-3.2769
-2.88581
-0.256261
2.64428
2.51956
-3.13238
-14.6891
-30.1495
-46.1651
-58.9397
-65.5924
-64.5763
-56.6475
-44.1387
-29.2043
-14.3205
-1.66359
7.90896
15.0136
20.8658
26.4924
32.4363
38.7968
45.1642
50.4769
53.654
54.1008
51.916
47.7603
42.7242
37.9556
34.4661
32.267
30.6258
28.298
23.9803
16.7335
6.27217
-7.65147
-25.3145
-46.7587
-71.6708
-96.4142
-118.916
-140.068
-158.328
-173.862
-181.013
-183.82
-182.427
-160.016
-88.0255
70.2523
298.246
509.285
606.555
3.36786
2.40694
0.760574
-1.56394
-3.48695
-2.93606
-0.00382683
3.187
3.11785
-2.56557
-14.1483
-29.4377
-45.1368
-57.6006
-64.0536
-63.0218
-55.3494
-43.3932
-29.2354
-15.1797
-3.12984
6.13084
13.1736
19.0911
24.8592
30.9901
37.6128
44.3605
50.1102
53.6309
54.3015
52.1932
47.9172
42.894
38.434
35.3196
33.4383
32.1284
30.0459
25.9431
19.2448
9.97747
-3.25335
-20.528
-42.1737
-66.8184
-90.8185
-114.828
-136.906
-155.372
-170.826
-176.141
-179.3
-183.626
-168.287
-95.5615
83.4669
336.132
570.332
669.941
1.37008
1.8009
0.271318
-1.87073
-3.61271
-2.86166
0.202046
3.43042
3.20578
-2.34467
-13.5376
-28.2469
-43.3593
-55.4487
-61.7342
-60.7591
-53.4251
-42.0899
-28.9199
-15.8909
-4.59317
4.31496
11.3034
17.2644
23.1175
29.398
36.2771
43.413
49.5972
53.5322
54.4352
52.1936
47.8046
42.649
37.885
34.4886
32.5875
31.399
29.6349
25.8159
19.1198
9.92232
-2.38711
-18.6682
-39.277
-63.7342
-89.2317
-114.349
-137.043
-157.164
-174.681
-181.991
-182.909
-187.131
-176.203
-97.504
104.261
375.128
629.171
728.743
3.55338
1.39413
-0.237938
-2.28431
-3.64041
-2.79321
0.0719393
2.90658
2.53071
-2.64596
-13.0007
-26.6518
-40.7567
-52.3213
-58.3525
-57.6716
-50.9962
-40.5045
-28.3357
-16.2877
-5.72629
2.83577
9.78688
15.8558
21.7616
28.1917
35.2324
42.5587
48.9013
52.9469
53.9187
51.7505
47.4276
42.4762
37.9631
34.6534
32.7606
31.6261
29.9027
26.1773
19.6874
10.3425
-1.82198
-17.1447
-36.7546
-61.1552
-87.5958
-113.144
-135.646
-156.511
-176.263
-187.464
-172.941
-175.449
-171.938
-83.7025
128.962
410.557
669.894
770.313
0.713207
0.202302
-0.805192
-2.50378
-3.62966
-2.8203
-0.341256
1.93977
1.46608
-3.26343
-12.6642
-25.0719
-38.0393
-48.6193
-54.318
-54.0065
-48.1315
-38.63
-27.4826
-16.3943
-6.54276
1.66815
8.55918
14.7151
20.6909
27.1157
34.2791
41.75
48.1649
52.2764
53.2649
51.0257
46.7006
41.7763
37.248
33.9458
32.2229
31.383
29.9936
26.477
20.1862
11.0042
-1.05857
-16.2455
-35.2464
-59.1734
-85.1505
-110.431
-132.713
-153.911
-177.247
-194.848
-195.551
-191.854
-176.391
-79.3452
139.339
433.972
698.593
793.943
1.62056
0.288477
-0.943001
-2.58855
-3.64101
-2.99964
-1.01542
0.776663
0.221779
-4.01365
-12.3005
-23.3129
-35.0153
-44.8096
-50.3849
-50.5167
-45.352
-36.8586
-26.7534
-16.5772
-7.3193
0.649551
7.51817
13.737
19.7524
26.126
33.3265
40.8921
47.3838
51.4988
52.4198
50.1779
45.9686
41.133
36.6373
33.3939
31.6976
30.7038
29.4445
26.1711
20.0561
10.5014
-2.23634
-16.9871
-35.1253
-58.1963
-84.2125
-110.188
-131.56
-147.636
-161.818
-173.467
-190.168
-204.332
-176.189
-73.2566
139.701
430.223
694.202
790.029
0.979858
-0.0365625
-1.20776
-2.75497
-3.81929
-3.40401
-1.88139
-0.545441
-1.219
-5.00477
-12.2121
-21.7585
-32.0114
-40.7209
-45.8999
-46.1843
-41.9428
-34.6519
-25.5921
-16.3047
-7.64752
0.050075
6.86786
13.0986
19.1675
25.5566
32.6766
40.1374
46.5549
50.5848
51.4732
49.3115
45.2576
40.5057
36.0741
32.875
31.2441
30.3628
28.9492
25.4412
19.0464
9.32473
-3.03838
-17.2986
-35.531
-58.3916
-83.5428
-108.398
-130.64
-148.747
-166.256
-184.677
-204.858
-217.04
-181.525
-79.307
121.736
405.045
669.385
767.283
2.42092
0.383347
-1.18178
-2.8561
-4.08437
-3.94786
-2.89417
-2.0006
-2.81816
-6.21067
-12.4158
-20.5749
-29.3694
-36.9943
-41.7406
-42.3837
-39.1293
-32.5083
-24.3773
-15.9023
-7.82851
-0.431146
6.30283
12.5603
18.6831
25.0893
32.1292
39.4501
45.6721
49.5663
50.4716
48.4674
44.5383
39.853
35.4681
32.2669
30.6514
29.7644
28.2009
24.3261
17.1523
6.46992
-6.82602
-21.9048
-39.6572
-60.5211
-84.9308
-109.788
-133.229
-153.425
-171.098
-190.496
-215.044
-225.648
-190.21
-91.4545
99.2212
370.615
633.582
732.311
2.60046
0.348497
-1.21893
-2.94185
-4.32594
-4.49868