/*--------------------------------*- C++ -*----------------------------------*\
| =========                 |                                                 |
| \\      /  F ield         | OpenFOAM: The Open Source CFD Toolbox           |
|  \\    /   O peration     | Version:  2.1.1                                 |
|   \\  /    A nd           | Web:      www.OpenFOAM.org                      |
|    \\/     M anipulation  |                                                 |
\*---------------------------------------------------------------------------*/
FoamFile
{
    version     2.0;
    format      ascii;
    class       volScalarField;
    location    "0.0013";
    object      p_rgh;
}
// * * * * * * * * * * * * * * * * * * * * * * * * * * * * * * * * * * * * * //

dimensions      [1 -1 -2 0 0 0 0];

internalField   nonuniform List<scalar> 
36520
(
7.96876
4.65458
3.4983
0.952839
-2.47715
-5.36891
-5.96097
-3.43337
-0.49075
-1.94264
-13.2082
-37.7404
-71.7698
-104.316
-121.058
-114.545
-86.9946
-46.7342
-5.89416
24.3207
41.1112
48.5624
51.5414
53.1041
54.5893
56.1933
57.6024
58.4062
58.3035
57.0674
54.6859
51.3329
47.3873
43.3504
39.7213
36.9014
35.0643
34.0511
33.3933
32.3941
30.3416
26.6831
20.8164
11.7539
-1.5925
-20.3143
-45.9559
-79.6388
-120.868
-168.269
-212.544
-236.189
-231.25
-198.905
-140.47
-50.1184
78.6751
223.769
348.758
416.617
8.82245
5.30853
3.66925
0.993954
-2.62493
-5.83125
-6.49854
-3.56099
0.324937
-0.22592
-11.1761
-36.6063
-72.9057
-108.073
-126.244
-119.577
-90.4784
-47.7661
-4.51843
26.6205
43.0623
49.7731
52.135
53.358
54.8503
56.5139
58.0269
58.9267
58.8323
57.5718
55.1172
51.6381
47.5269
43.3192
39.562
36.7026
34.9089
34.0039
33.5138
32.7313
30.9223
27.5362
21.9881
13.2533
0.193214
-18.4935
-44.4612
-79.0411
-122.024
-172.512
-222.461
-249.95
-245.134
-212.52
-154.652
-63.7176
67.7581
218.198
350.98
421.157
10.5618
6.58854
4.04548
1.06898
-2.9877
-6.82716
-7.63785
-3.81185
1.86904
3.11322
-7.13009
-34.2685
-75.0071
-115.309
-136.229
-128.556
-97.2721
-49.7467
-1.75309
31.107
46.7628
52.0009
53.2104
53.8313
55.196
57.0949
58.8322
59.8659
59.8431
58.5736
55.9891
52.2488
47.7869
43.242
39.2357
36.2696
34.5565
33.9066
33.8013
33.5041
32.2762
29.628
24.9391
17.0501
4.54639
-14.056
-40.571
-77.2124
-124.528
-182.911
-243.866
-278.264
-274.114
-238.913
-182.668
-95.694
39.4017
202.049
352.069
429.348
11.3675
7.2986
4.47295
1.25765
-3.46067
-8.26228
-9.25064
-4.10769
3.89418
7.58869
-1.50423
-30.9223
-77.8298
-125.328
-150.149
-140.682
-106.861
-52.6274
2.2581
37.4413
51.8398
54.9661
54.5988
54.3628
55.6656
57.8998
60.0156
61.3336
61.4788
60.1873
57.3683
53.1915
48.1554
43.0603
38.653
35.5029
33.9098
33.6309
34.0507
34.4384
34.029
32.3974
28.8971
22.0911
10.3679
-7.83234
-34.9853
-74.5493
-127.896
-193.265
-265.641
-312.173
-310.987
-273.317
-223.63
-143.819
-6.94425
172.639
354.031
443.427
11.7271
7.79824
4.89919
1.54712
-4.07521
-10.0937
-11.1351
-4.17817
6.35002
12.5612
4.72211
-27.1095
-81.148
-136.877
-166.459
-153.422
-117.957
-55.989
7.17302
44.774
57.4006
57.9341
55.7316
54.603
55.8495
58.6062
61.458
63.4063
63.8181
62.4901
59.3258
54.5031
48.6151
42.6379
37.57
34.1049
32.6559
32.8642
34.0254
35.3936
35.9694
35.4977
33.5428
28.2765
17.8473
0.882471
-25.3279
-65.5755
-122.004
-191.87
-269.81
-341.582
-366.195
-319.691
-261.511
-194.931
-74.6171
132.477
357.021
465.215
10.5036
7.64295
5.18476
1.97952
-4.79232
-11.9626
-12.5389
-3.29728
9.89925
17.9284
9.95654
-24.4302
-85.9404
-150.268
-184.798
-169.351
-128.219
-60.2878
11.2701
51.6559
62.4998
60.5233
56.5378
54.5152
55.5906
59.1771
62.9769
65.6787
66.7427
65.3743
61.7847
56.2223
49.3085
42.288
36.3274
32.2559
30.7327
31.3469
33.251
35.6165
37.2995
38.4019
38.9398
35.5308
26.9941
12.5565
-10.3199
-48.1602
-107.184
-183.197
-260.606
-334.153
-428.608
-375.147
-296.082
-273.404
-134.019
89.0687
367.266
498.147
10.2213
7.73549
5.66801
2.87779
-4.98138
-13.0326
-12.7631
-1.0991
14.7009
23.712
13.3053
-25.2976
-92.6982
-162.501
-197.857
-176.688
-133.094
-63.8903
13.9594
57.7252
66.4144
62.3846
56.4936
53.4284
54.7203
58.8979
63.5414
67.3955
69.3404
68.6195
64.8312
58.5139
50.4836
42.2698
35.1014
30.1352
28.0084
29.6836
32.1862
35.3661
37.8669
40.0458
42.1845
40.4618
33.3452
21.3679
2.70058
-30.2863
-89.3461
-171.335
-247.929
-289.529
-369.908
-632.938
-358.994
-314.799
-191.687
75.7539
399.228
546.928
-0.900414
5.77805
5.40722
2.96842
-7.03092
-15.8482
-13.292
4.52708
22.4325
32.5
16.231
-30.2738
-100.515
-171.06
-206.796
-183.237
-118.949
-48.8436
14.9008
51.1467
63.2464
60.1739
53.7339
50.5789
52.6167
57.5875
63.3977
68.8477
72.0834
72.5711
68.6062
61.404
52.4612
43.2046
35.2103
29.6339
28.0845
28.6744
31.4568
34.7534
37.5552
39.9666
43.1184
43.4994
38.2111
28.2436
12.3162
-15.1196
-69.4945
-154.356
-231.083
-278.607
-322.702
-343.502
-203.877
-292.824
-181.221
183.677
420.963
619.15
21.4667
9.63907
3.65496
0.624811
-9.22584
-10.4086
2.33141
19.999
32.5822
31.1715
6.79658
-45.8273
-113.29
-170.157
-199.67
-171.257
-101.8
-33.5832
16.2557
46.849
58.9653
57.7817
52.8697
51.057
53.2595
58.4158
64.298
69.15
73.0288
74.6779
71.2258
63.7546
53.7878
43.3911
34.1323
27.4657
24.7515
26.9996
31.5455
35.6455
38.7249
41.4936
44.1807
44.7189
42.8072
36.2557
23.2075
0.995792
-50.9457
-145.345
-228.417
-283.109
-299.779
-166.085
-258.626
-577.976
-233.599
247.65
435.022
690.351
37.9745
7.56825
1.77839
-0.867986
-14.8501
-22.2256
-7.91177
23.6387
43.1366
43.8024
15.7211
-44.9599
-126.257
-185.879
-198.178
-169.304
-103.299
-34.7132
20.0838
53.0769
64.4339
62.2695
56.5812
52.7124
52.7382
55.1488
60.5831
71.1985
79.4829
80.877
74.7748
64.2338
53.2715
41.8935
31.7555
24.8136
23.1809
26.1072
31.1562
35.5179
38.9555
42.4579
46.6123
49.5776
51.4781
46.4289
33.2205
7.07049
-54.4304
-149.308
-225.659
-277.684
-274.389
1.20223
-423.161
-579.095
-242.678
290.938
457.366
713.345
13.964
5.04073
2.14817
-2.67289
-14.6555
-18.0307
-1.07903
24.4408
41.3047
43.5558
23.0162
-33.688
-118.565
-186.123
-193.486
-181.947
-110.99
-40.5434
25.7246
62.3734
72.5265
65.0474
55.4183
49.4104
48.1348
50.3365
55.6515
64.09
78.7657
88.3656
79.2006
66.5503
54.3509
41.6679
32.004
25.9537
25.0499
28.2718
33.0942
36.9815
39.1596
42.1361
46.2489
50.1866
54.3798
52.3622
40.3122
15.6715
-44.325
-142.382
-224.071
-270.982
-248.607
50.955
-510.903
-563.727
-187.868
369.732
474.586
716.254
-8.03022
5.20242
6.23697
4.56274
-10.0938
-20.2038
-12.8538
12.5304
41.307
56.2077
42.6649
-25.2773
-123.656
-209.459
-222.765
-207.931
-140.916
-40.4146
37.5237
78.0319
82.1007
69.4155
56.1087
48.0653
46.3878
48.4533
54.3957
63.222
73.8465
79.9821
78.0261
67.0325
55.2159
43.2476
33.6954
28.3808
27.3895
29.682
33.4177
37.0085
39.0566
42.2208
46.1976
49.6618
53.3782
52.5849
43.0212
16.637
-43.1983
-143.434
-226.909
-269.144
-250.215
-73.3045
-352.802
-500.792
-189.383
461.335
500.556
701.138
-1.05786
11.2296
8.37408
5.5064
-11.0991
-29.8549
-27.9679
-0.238516
34.4867
63.9634
61.8571
7.42898
-82.5418
-172.525
-249.359
-236.311
-170.33
-57.9247
35.5623
92.6299
98.9072
79.3928
60.1603
48.9146
45.2019
46.4784
52.8294
62.5162
72.3993
81.5491
79.0871
68.6518
56.3426
43.9443
34.354
29.0016
27.6181
29.9053
34.7411
39.7393
41.1973
43.1123
47.49
52.5608
56.7005
54.4165
39.0712
6.20918
-61.0422
-154.149
-226.785
-262.458
-245.576
-107.174
-465.632
-509.486
-150.961
436.554
506.594
693.936
28.4008
14.0899
11.7878
8.37614
-14.8014
-44.6539
-49.8862
-11.3181
46.6003
83.0906
84.7152
21.5648
-78.5656
-195.384
-241.593
-167.474
-138.774
-54.55
18.0704
93.0466
112.169
82.4933
58.9643
45.2612
40.9141
43.3328
50.3155
59.693
76.4484
90.6064
84.5937
70.1436
56.8812
43.258
33.2045
27.5466
25.8118
28.4201
33.5909
37.2512
38.65
39.2724
41.741
44.3767
49.1819
47.6091
27.6688
-11.9812
-78.4316
-160.39
-224.938
-253.365
-235.432
-149.453
-655.933
-420.886
-53.6543
331.001
486.264
684.567
76.6199
27.7642
18.4901
12.6217
-11.7124
-46.7457
-53.3983
-8.63764
32.1062
59.903
72.8609
29.2974
-48.1125
-140.438
-220.598
-367.462
-376.36
-181.047
21.0314
102.59
125.386
103.009
58.3936
39.9818
35.7891
42.4908
56.6646
75.8326
85.7295
85.1642
77.6707
66.3831
55.399
44.7575
35.7186
29.6089
28.184
29.8261
34.4581
37.8005
37.717
37.897
38.3371
36.8231
31.0523
19.923
-2.37337
-41.9047
-101.151
-169.236
-218.839
-243.165
-232.617
-198.027
-631.099
-432.674
-25.4504
260.178
473.002
662.409
22.2863
14.3492
13.8626
10.9057
-26.7164
-61.7335
-44.6634
11.7361
74.8024
102.342
83.5281
1.74249
-99.951
-174.373
-192.536
-166.656
-146.007
-150.568
-89.0677
45.0777
107.355
83.9546
51.6564
35.7665
31.9452
37.8534
50.6393
64.8354
75.329
78.0768
72.282
64.3802
55.2247
46.0438
38.4858
32.1542
29.3169
30.1312
32.0255
34.3073
35.1642
35.1668
34.2396
29.0581
16.9088
-1.74483
-27.8083
-65.8301
-117.528
-171.665
-207.06
-232.613
-226.257
-163.789
-614.504
-391.092
-7.2695
241.384
476.613
650.76
-1.39218
5.79896
6.90624
2.39545
-18.4239
-34.2277
-23.8212
-0.0301583
37.0358
62.7786
56.8273
-5.877
-96.4306
-169.873
-190.5
-176.678
-145.233
-103.843
-51.1414
14.0827
66.7196
61.3762
44.014
34.2132
31.7252
35.4622
45.7318
58.6343
69.1717
73.7453
71.8786
64.8293
55.0591
44.6685
35.7862
30.2601
28.638
30.1492
32.2505
34.1311
34.7962
34.6805
33.577
28.941
17.0357
-3.49988
-32.0849
-68.2739
-115.075
-165.748
-201.579
-227.303
-229.368
-221.313
-432.415
-439.493
-144.046
207.549
477.516
618.936
8.58254
6.48305
3.86865
-1.75514
-14.7691
-21.9809
-11.5231
12.6458
37.9051
40.8142
25.9644
-18.7368
-82.3596
-134.025
-152.018
-142.179
-130.204
-98.7756
-43.2642
11.6792
45.9437
45.4111
37.3058
32.3443
32.4959
37.4911
46.6901
57.2783
65.8928
69.7064
68.0656
62.3051
53.662
44.4441
36.9906
31.8372
30.0782
31.1006
32.7132
33.9884
33.7633
32.3062
29.2122
21.6731
7.83813
-13.3123
-41.2609
-74.8626
-120.265
-170.445
-202.18
-226.986
-256.278
-306.825
-314.571
-336.858
-214.764
100.943
438.742
561.5
7.41628
5.03198
1.90999
-2.87942
-10.7266
-14.3088
-6.55291
7.86884
23.7434
23.9838
7.65372
-26.2676
-70.7934
-107.083
-122.535
-117.368
-99.2401
-74.7977
-34.462
5.32405
29.258
33.4527
31.6504
30.7069
32.6655
37.7232
45.5591
54.3065
61.4204
64.515
63.5789
59.1318
52.2095
44.6749
38.3017
33.9328
32.2056
32.5854
33.6019
34.0176
32.8627
30.0985
24.6787
14.6227
-1.96996
-25.5905
-55.432
-92.0745
-136.165
-176.138
-204.204
-232.056
-266.268
-269.376
-254.492
-242.113
-172.103
51.1723
401.39
513.657
9.35331
4.86976
1.12833
-2.80842
-7.79801
-9.31653
-3.39608
6.19765
14.0812
11.6362
-3.22298
-29.7031
-62.0995
-88.9067
-101.749
-99.038
-85.6623
-61.4065
-30.2443
-0.683214
18.2272
25.3902
27.5489
29.2374
32.4013
37.4351
44.2984
51.7747
57.7594
60.674
60.0443
56.462
50.812
44.5611
39.0953
35.2102
33.3734
33.1294
33.3257
32.7749
30.492
26.2062
18.775
6.44697
-12.2155
-37.4808
-67.8515
-103.093
-142.552
-176.921
-202.711
-226.073
-247.707
-248.769
-230.668
-192.856
-95.9949
80.2502
369.905
478.622
8.23522
4.45166
1.05202
-2.37564
-5.68725
-6.29927
-2.1253
3.95578
7.62245
3.5958
-9.76063
-30.9604
-55.4757
-75.9578
-86.358
-84.0766
-72.8377
-53.0224
-28.4338
-5.14872
11.1861
19.8866
24.4549
27.9359
31.94
37.0362
43.2023
49.6119
54.8099
57.555
57.2531
54.3841
49.7299
44.4518
39.6895
36.1643
34.1906
33.3336
32.5826
30.8786
27.3956
21.5781
12.375
-1.47121
-20.9458
-45.9276
-75.4964
-107.926
-143.116
-172.301
-193.477
-211.013
-225.036
-224.284
-208.226
-155.382
-43.5731
127.358
364.904
459.873
8.30851
4.11894
1.10019
-1.80442
-4.23335
-4.5104
-1.86386
1.90488
3.15729
-1.64799
-13.6838
-31.3928
-51.1292
-67.5708
-76.1015
-75.2238
-64.6536
-47.9286
-27.678
-8.22499
6.60302
16.0842
22.0803
26.6999
31.3071
36.478
42.2124
47.916
52.5399
55.1104
55.1101
52.8122
48.8829
44.3014
40.0356
36.7494
34.6594
33.3425
31.9461
29.441
25.0518
18.1414
7.76533
-7.19224
-27.0486
-50.2155
-78.8947
-106.921
-134.649
-158.991
-178.231
-192.713
-199.732
-194.443
-168.142
-109.075
7.41383
174.641
367.247
450.656
6.68124
3.47372
1.19162
-1.28015
-3.23187
-3.40452
-1.64995
0.598385
0.40141
-4.83511
-15.9151
-31.437
-48.3153
-62.2897
-69.6801
-68.6964
-59.6086
-44.9432
-27.2553
-10.0311
3.85968
13.6632
20.4729
25.8034
30.7926
36.0075
41.4998
46.7653
51.0064
53.4122
53.5812
51.6468
48.1808
44.0544
40.1172
36.947
34.6972
32.9621
30.9474
27.7946
22.7187
15.072
4.33862
-10.2505
-29.2328
-52.1275
-77.8844
-103.588
-128.184
-150.035
-167.926
-180.151
-184.173
-174.893
-143.044
-74.137
45.6148
207.118
367.295
444.51
5.65196
2.79982
1.15058
-1.08913
-2.85652
-2.99863
-1.63954
-0.1241
-0.958742
-6.35661
-16.971
-31.4553
-46.9829
-59.7493
-66.6117
-65.6392
-57.1894
-43.5424
-27.0656
-10.8787
2.56105
12.4739
19.6352
25.2892
30.4569
35.6919
41.0772
46.1719
50.256
52.6113
52.8526
51.0903
47.8486
43.9375
40.1435
37.0031
34.666
32.7571
30.549
27.2307
22.0933
14.3831
3.69156
-10.79
-29.2937
-51.4752
-75.9082
-100.585
-124.326
-145.478
-162.746
-173.855
-176.634
-165.483
-130.487
-58.4938
64.2925
220.817
367.563
441.522
5.32291
1.23559
-0.879307
-3.27511
-5.26568
-6.66947
-7.76972
-8.8176
-10.166
-11.8635
-13.9851
-16.5316
-19.4037
-22.102
-23.9127
-24.1337
-22.49
-19.1688
-14.6585
-9.45428
-3.88596
1.80378
7.47268
13.0476
18.5902
24.1982
29.8509
35.2534
39.7748
42.7314
43.7475
42.949
40.814
37.9849
35.1246
32.9002
31.7726
31.5463
31.4112
30.2363
27.0583
21.2462
12.3546
-0.203519
-17.1094
-39.0671
-64.4417
-90.8445
-115.678
-137.14
-155.069
-170.554
-182.192
-182.289
-155.308
-84.8957
43.9091
217.948
382.97
459.504
6.39365
1.87979
-0.961443
-3.51191
-5.49232
-6.8766
-7.95367
-8.99083
-10.333
-11.9799
-13.9705
-16.3836
-19.2176
-21.9981
-23.949
-24.2694
-22.6405
-19.2849
-14.7379
-9.51714
-3.9356
1.7762
7.46759
13.0532
18.6074
24.2538
29.994
35.5592
40.2168
43.2539
44.2385
43.342
41.0625
38.0546
35.0262
32.7406
31.6888
31.6593
31.8513
31.0098
28.0648
22.2959
13.2429
0.399154
-17.2007
-40.3862
-67.1904
-94.7584
-120.013
-141.181
-158.284
-173.857
-187.109
-191.524
-170.332
-104.91
20.0925
202.125
384.692
464.16
8.0316
2.50611
-1.26016
-4.03009
-6.00584
-7.35034
-8.384
-9.43178
-10.7789
-12.3216
-14.001
-16.094
-18.826
-21.7782
-24.014
-24.5387
-22.9363
-19.5063
-14.8898
-9.64021
-4.04455
1.71129
7.45449
13.0465
18.5858
24.2796
30.2019
36.1095
40.9755
44.1804
45.147
44.0754
41.5403
38.2241
34.8747
32.3979
31.531
32.0375
33.0319
33.0478
30.8848
25.6144
16.6426
3.24249
-16.0167
-41.7871
-71.5171
-102.394
-129.393
-149.838
-164.677
-180.416
-197.591
-211.488
-200.881
-145.61
-27.1731
165.694
387.453
472.62
8.32815
2.42683
-1.80893
-4.71092
-6.65371
-7.9769
-8.99632
-10.139
-11.5656
-12.9597
-14.1231
-15.6529
-18.163
-21.3695
-24.0407
-24.8663
-23.2804
-19.719
-15.0176
-9.76614
-4.17883
1.63237
7.44499
13.0397
18.5372
24.3027
30.5254
36.767
42.0886
45.5607
46.4801
45.1462
42.249
38.5119
34.7008
31.9032
31.1861
32.3796
34.5528
35.8512
35.0484
31.0862
23.1263
9.58967
-11.6836
-41.9625
-76.3011
-114.501
-145.313
-163.323
-173.586
-185.875
-209.302
-236.389
-241.173
-202.318
-94.682
111.06
389.309
487.438
8.8065
1.98799
-2.67574
-5.55069
-7.379
-8.7391
-9.9778
-11.5329
-13.224
-14.4293
-14.709
-15.2311
-17.2398
-20.6616
-23.8974
-25.0965
-23.5057
-19.7753
-15.0254
-9.85021
-4.32577
1.54456
7.43926
13.0204
18.4439
24.2328
30.7474
37.4802
43.4425
47.2522
48.0644
46.3338
42.9219
38.5693
34.1127
30.8578
30.4189
32.6221
36.377
39.6748
40.6329
38.7291
33.253
21.6064
0.0399457
-35.2685
-80.0082
-127.049
-162.656
-178.753
-189.498
-195.278
-214.728
-258.869
-279.073
-254.221
-177.225
58.5559
401.957
510.751
8.94767
1.55399
-3.77322
-6.47562
-7.96473
-9.36063
-11.326
-13.9422
-16.4075
-17.3463
-16.0609
-14.8169
-15.7298
-19.2815
-23.2043
-24.8671
-23.2814
-19.4579
-14.7973
-9.82022
-4.40923
1.55572
7.53689
13.0908
18.3743
24.143
30.9224
38.3334
45.1181
49.2765
49.9555
47.6625
43.5255
38.2795
32.8452
28.7638
28.139
31.0225
36.0932
41.0661
44.2085
45.6687
43.5267
35.5976
18.1583
-13.938
-61.4147
-120.052
-171.608
-195.618
-201.92
-205.371
-221.916
-272.358
-297.106
-286.113
-274.798
37.1479
433.129
543.854
6.33232
0.394425
-4.99639
-7.55363
-8.2329
-9.5656
-13.0318
-18.0605
-22.3902
-22.965
-18.7121
-14.5473
-13.5388
-17.0735
-22.0645
-24.422
-22.7828
-18.7151
-14.1511
-9.46256
-4.25838
1.62571
7.62749
13.0472
18.1784
23.9386
31.1039
39.4511
47.3436
52.0293
52.332
49.2891
44.2163
37.871
31.3647
26.4941
25.6999
28.7674
34.3467
40.9648
45.8221
49.3432
50.6025
46.5747
33.7653
7.59031
-35.8481
-99.912
-167.251
-207.461
-216.121
-219.078
-234.568
-279.505
-290.559
-319.747
-399.873
113.037
500.452
585.811
5.92324
0.0100738
-6.54857
-8.72334
-7.63963
-7.96949
-13.4008
-22.4635
-29.6854
-30.4163
-23.235
-14.9743
-11.0199
-14.1563
-20.7065
-23.9575
-22.0466
-17.5797
-13.1644
-8.96355
-4.09951
1.70806
7.69125
12.9363
17.828
23.4278
30.7592
39.9469
49.3555
54.993
54.4809
50.6937
44.6173
37.069
29.5082
23.8337
22.6397
25.6448
32.5568
40.1457
46.533
52.1792
56.133
55.864
47.326
28.8323
-2.9316
-55.3204
-131.097
-198.721
-224.362
-227.707
-225.316
-227.005
-247.108
-370.285
-392.278
264.394
574.243
635.795
-5.10122
-1.83091
-8.09499
-9.08801
-5.72772
-4.50357
-14.0669
-30.0912
-43.8895
-50.2453
-30.4908
-16.2244
-7.55992
-9.34251
-17.9252
-22.066
-19.3214
-13.9212
-9.8695
-6.74193
-2.97895
2.31566
8.02956
13.0271
17.5897
22.8375
29.7595
38.962
49.2418
55.7887
55.6854
51.9004
44.9392
36.4601
28.4734
22.5666
21.0137
23.491
27.6655
34.259
40.7473
46.2213
50.3567
52.626
50.5338
37.125
11.4056
-30.1462
-92.4177
-168.215
-216.606
-228.583
-219.676
-164.495
-354.522
-590.442
-32.2731
364.459
620.2
690.841
23.7071
8.39281
-10.6056
-16.8782
-9.34656
-4.08705
-16.9498
-43.818
-60.0165
-48.9919
-30.1833
-20.4051
-4.82975
-3.36284
-14.2031
-20.0355
-17.1598
-11.3551
-7.77908
-5.05369
-1.47577
3.79988
9.53235
14.3476
18.4836
23.6084
30.5483
40.5669
53.0461
59.2478
58.1507
53.0118
44.5158
35.0588
26.5804
20.7532
20.0036
25.2234
32.0611
38.8684
46.0262
52.072
55.4845
56.9656
52.1139
35.3699
7.42942
-38.6457
-107.049
-175.077
-220.145
-230.42
-220.76
-151.493
-577.352
-510.559
-35.2748
327.642
587.437
718.725
73.706
5.42115
-14.7913
-11.7694
15.114
26.6563
-1.51646
-46.6857
-83.851
-91.3273
-83.0312
-24.1636
17.3128
17.2897
-2.94099
-14.5148
-11.9697
-6.08782
-3.52185
-2.68418
0.102991
5.92938
12.1072
17.2604
21.7787
27.6286
35.2094
44.422
55.2648
60.0715
57.9591
51.7849
42.9663
33.5123
24.5033
17.9486
17.7081
23.2015
29.9048
38.507
47.5609
54.9135
59.6732
61.9849
61.7984
50.6301
23.1021
-23.2361
-106.815
-184.674
-227.708
-236.255
-212.999
-151.205
-652.295
-365.812
-10.3716
270.228
516.213
696.703
102.547
25.1798
-0.724676
-23.7827
-20.6066
-1.44093
-2.66131
-30.4932
-54.3811
-87.9485
-21.2338
30.6844
40.5859
42.0604
3.4822
-17.4413
-10.9375
0.162212
4.47908
5.00229
6.97594
12.5544
17.1424
20.0952
23.5102
29.5245
37.5282
45.3671
53.1704
56.6824
55.6331
50.7893
42.8544
33.2107
24.4122
18.8552
19.0921
24.3922
30.4927
39.0883
48.7794
56.4049
61.3384
63.1913
60.3872
49.8787
26.9133
-13.0843
-93.7031
-180.973
-226.065
-237.398
-197.478
-61.02
-638.022
-389.618
-9.03931
245.233
442.009
686.763
113.18
29.6596
3.07227
-2.02039
-1.03249
6.86105
-2.86077
-62.5147
-92.5436
-102.193
-117.48
-70.6843
-15.9115
10.6843
-14.3172
-18.1792
-2.35542
20.109
21.9275
10.7483
6.70858
8.83142
12.6663
17.4349
22.3869
29.4477
38.9536
49.6922
56.6903
58.0274
56.5554
51.1679
43.0343
33.2045
24.1836
19.1157
20.0745
25.7062
32.0069
40.6262
50.3313
58.1865
61.7427
61.0146
57.4228
45.125
23.8962
-11.42
-79.8195
-170.572
-224.109
-251.465
-223.744
-58.6416
-601.256
-392.848
-34.6717
241.398
420.438
688.954
51.8972
5.95328
-6.87396
-8.58455
-6.57809
2.48223
-1.53134
-31.9635
-65.223
-79.778
-88.7351
-98.0878
-74.2703
-23.4418
-19.3513
-3.51938
9.80098
14.5082
9.20479
6.99103
7.26531
10.0665
14.5539
17.8044
21.8763
29.5514
40.7258
53.2746
59.6845
60.2705
57.3711
50.5444
42.1752
32.0856
22.7369
17.9027
19.1706
25.4274
31.5978
38.7618
46.611
53.5166
57.4916
56.4631
51.2725
38.9966
17.0532
-19.4751
-78.5772
-158.252
-222.219
-250.551
-259.238
-222.905
-573.616
-270.052
-85.5588
254.433
427.791
703.549
5.22943
-0.266848
-3.65691
-4.6169
-5.89515
-1.35851
-4.84586
-23.544
-44.4657
-58.5569
-75.481
-87.0516
-70.6124
-45.0058
-26.7944
-2.34072
18.7639
18.5587
13.1981
7.0651
5.05151
8.76583
13.7185
17.9075
21.2369
28.2072
38.873
51.225
60.4373
61.293
58.2245
53.4823
43.5555
31.9215
21.2228
17.5022
20.1524
26.5753
30.6156
34.7279
41.1699
47.1966
50.2644
48.1238
39.9313
25.9917
5.0153
-26.4753
-79.1662
-157.349
-222.481
-250.218
-254.279
-236.481
-434.733
-170.366
-184.556
301.937
433.575
699.336
-5.28952
-3.51455
-7.46493
-7.45233
-6.04321
-3.15384
-5.32482
-16.2815
-30.1613
-44.9316
-64.1064
-78.1622
-67.9517
-47.6957
-25.6314
-5.3643
7.7544
9.99783
7.5835
6.37528
6.53647
10.2912
15.0691
19.5241
24.0171
29.4049
37.2274
47.2179
54.9217
58.2104
57.0555
53.036
44.1735
32.9607
24.54
21.927
24.3717
29.4983
33.7138
35.9861
39.3527
42.9037
44.9798
42.583
31.4881
13.915
-12.7567
-57.1063
-122.699
-199.064
-244.496
-243.035
-253.179
-199.606
-225.255
-277.435
-238.815
289.765
420.096
660.667
-16.2462
-6.51515
-6.52429
-5.91723
-5.56909
-3.40217
-2.10674
-6.16039
-17.019
-34.2909
-57.4432
-70.9982
-66.3389
-51.2344
-30.159
-9.30293
1.76507
5.45218
3.84191
4.27189
6.76445
11.2552
16.3582
21.2527
25.2916
30.748
37.0982
45.1133
51.086
54.987
54.4154
51.2556
43.7012
33.7708
25.4014
21.2517
21.1411
24.1845
27.9077
31.6419
35.7303
39.3419
41.4099
37.2626
23.8886
2.81335
-27.6175
-75.9581
-139.143
-191.44
-218.62
-228.899
-247.552
-262.251
-266.414
-312.242
-295.07
126.049
389.151
636.495
3.4523
0.277437
-2.76564
-4.55447
-5.89212
-5.31971
-4.91051
-7.6519
-15.0474
-28.2192
-44.7938
-56.2055
-59.1712
-51.9474
-38.4356
-22.9954
-11.4563
-4.91712
-0.954967
2.96276
7.75191
13.2548
18.8545
24.244
29.3443
34.9711
41.2577
47.4958
51.7224
53.3842
52.6238
49.0471
41.5377
32.4506
25.2064
22.5807
23.5723
27.8985
33.4441
38.2245
41.8706
44.0314
43.6005
36.3775
19.7636
-5.66031
-42.8007
-97.8821
-161.539
-207.297
-217.955
-225.986
-246.835
-284.798
-265.072
-263.018
-237.075
37.4428
381.134
571.831
6.42964
0.00464661
-2.70504
-4.23622
-5.54296
-5.93734
-6.39841
-8.8345
-14.6418
-24.4472
-36.253
-45.4336
-49.3626
-46.932
-39.0818
-28.3313
-18.1669
-10.0106
-3.74103
2.40476
8.50308
14.4514
20.0031
25.1624
30.4062
35.8619
41.3331
46.4353
50.0524
51.6742
51.3058
48.3786
41.961
34.4858
28.7074
25.4547
25.9484
28.9181
33.4933
37.4204
40.2527
41.1325
37.4445
26.0537
6.03863
-24.041
-70.5475
-128.893
-180.907
-208.003
-211.616
-209.951
-224.721
-241.657
-234.78
-215.824
-149.569
30.079
362.043
513.413
7.81477
2.31952
-1.32636
-3.5795
-5.29094
-6.26976
-7.10055
-9.26141
-13.8989
-21.4979
-30.8403
-39.2265
-44.493
-45.1079
-40.5528
-32.6549
-23.7215
-14.2202
-5.76333
2.16208
9.46586
16.0797
22.0225
27.3937
32.427
37.1405
41.6685
45.6433
48.3674
49.3911
48.8981
46.3485
41.3917
35.5795
30.9741
28.6304
28.7614
31.169
34.4484
36.9181
37.6529
35.6045
28.7881
14.6005
-8.49201
-41.966
-86.6795
-136.975
-177.992
-196.548
-202.148
-206.252
-219.9
-227.36
-213.186
-177.898
-98.8536
82.6137
358.505
478.846
8.24802
2.85785
-0.466493
-2.95086
-4.89224
-6.25287
-7.39227
-9.39763
-13.3576
-19.6963
-27.693
-35.5647
-41.4702
-43.5703
-41.2834
-35.1169
-26.5415
-16.8127
-7.19605
1.82235
9.87643
16.8457
22.8906
28.2098
33.051
37.4783
41.5602
44.9032
47.1407
47.9577
47.3604
45.0146
40.927
36.2485
32.4009
30.21
29.9557
31.2196
33.2144
34.2578
33.5493
29.6481
20.7072
4.83186
-19.2799
-51.9524
-91.5847
-133.618
-164.651
-180.939
-187.285
-192.744
-203.871
-206.171
-185.584
-135.057
-34.5564
135.475
361.96
457.853
8.31066
3.39003
0.0896476
-2.47936
-4.56442
-6.18666
-7.56577
-9.53483
-13.0957
-18.6753
-25.9463
-33.5473
-39.803
-42.9173
-41.8564
-36.6706
-28.504
-18.4104
-8.11018
1.62991
10.1999
17.4335
23.5578
28.8261
33.4935
37.6812
41.3785
44.3145
46.3065
46.949
46.2622
44.084
40.581
36.6326
33.2793
31.1762
30.6274
31.2959
32.2855
32.285
30.3722
25.1139
14.9635
-1.55609
-25.3964
-55.7004
-89.9575
-124.151
-150.968
-166.428
-172.99
-178.085
-183.622
-178.817
-149.098
-89.8105
17.041
182.69
362.087
445.356
6.83391
2.89209
0.420803
-2.03892
-4.2559
-6.03458
-7.59738
-9.56466
-12.909
-18.0585
-24.9218
-32.3655
-38.822
-42.4747
-42.0691
-37.4111
-29.3689
-19.3093
-8.64547
1.51857
10.3992
17.7983
23.9839
29.2309
33.8002
37.8477
41.3622
44.0202
45.7528
46.2886
45.5504
43.496
40.3517
36.8303
33.7703
31.7364
30.9602
31.1689
31.5181
30.8387
28.065
21.9185
11.0252
-5.61943
-28.4153
-56.4588
-87.064
-116.688
-140.704
-155.548
-162.457
-166.541
-168.568
-159.1
-125.084
-59.396
52.965
210.633
362.242
437.907
5.82721
2.33707
0.499521
-1.88999
-4.14384
-5.98372
-7.62103
-9.59627
-12.8462
-17.8211
-24.5045
-31.8703
-38.4099
-42.3105
-42.2268
-37.8364
-29.8915
-19.8063
-8.94205
1.41483
10.4436
17.9277
24.142
29.372
33.8474
37.8659
41.2477
43.8434
45.4829
45.9662
45.2087
43.2171
40.2403
36.9127
33.9691
31.9362
31.0519
31.0445
31.0827
30.0913
27.0093
20.6369
9.7576
-6.59406
-28.5926
-54.9712
-83.5416
-111.296
-134.378
-149.565
-157.445
-161.205
-161.144
-149.094
-112.947
-44.323
69.9407
221.531
361.619
433.67
4.85939
2.63748
1.04748
-1.09259
-2.95716
-2.91598
-1.09737
0.952334
0.420727
-5.07444
-16.134
-31.1653
-47.0883
-60.0779
-66.9976
-66.0059
-57.6324
-44.2498
-28.0959
-12.1152
1.24719
11.1417
18.3101
24.0222
29.3344
34.8112
40.5302
46.0798
50.5753
53.2012
53.4934
51.5793
48.0308
43.7568
39.7013
36.4652
34.2117
32.4967
30.4365
26.9715
21.3639
12.785
1.03213
-15.2174
-35.6711
-60.0137
-86.0711
-111.23
-134.479
-154.636
-170.641
-180.077
-183.153
-174.595
-142.982
-71.2098
61.2411
239.281
407.865
490.982
5.12977
3.03795
1.21364
-1.13484
-3.08936
-2.86693
-0.617829
1.8944
1.60015
-3.98233
-15.3569
-30.7156
-46.7964
-59.7609
-66.5852
-65.5766
-57.3884
-44.4094
-28.7929
-13.2606
-0.161895
9.62206
16.7822
22.5714
28.05
33.7777
39.8461
45.8278
50.7493
53.6949
54.1337
52.167
48.4089
43.9192
39.7473
36.4761
34.3601
32.7956
30.6796
26.8472
20.482
11.0272
-2.51071
-20.1613
-42.2536
-68.1878
-94.7518
-119.156
-141.44
-160.379
-175.279
-182.735
-185.921
-180.255
-152.498
-80.9348
62.8132
264.942
454.76
546.055
3.77245
2.72342
1.04208
-1.25233
-3.23153
-2.84044
-0.21089
2.68965
2.56493
-3.08701
-14.6437
-30.1041
-46.1197
-58.8943
-65.547
-64.5309
-56.6021
-44.0933
-29.159
-14.2751
-1.61822
7.95433
15.059
20.9112
26.5378
32.4816
38.8422
45.2096
50.5222
53.6993
54.1462
51.9614
47.8056
42.7696
38.001
34.5115
32.3123
30.6711
28.3434
24.0257
16.779
6.31777
-7.60582
-25.2687
-46.7127
-71.6243
-96.367
-118.868
-140.021
-158.282
-173.816
-180.968
-183.774
-182.381
-159.97
-87.9801
70.2977
298.292
509.33
606.6
3.41619
2.45528
0.808913
-1.51561
-3.43861
-2.88772
0.044512
3.23534
3.16619
-2.51723
-14.0999
-29.3894
-45.0884
-57.5522
-64.0053
-62.9735
-55.3011
-43.3448
-29.187
-15.1314
-3.0815
6.17918
13.2219
19.1394
24.9075
31.0385
37.6612
44.4088
50.1585
53.6792
54.3498
52.2415
47.9656
42.9424
38.4823
35.3679
33.4867
32.1768
30.0945
25.9923
19.2949
10.0281
-3.20283
-20.4778
-42.1226
-66.7664
-90.7652
-114.774
-136.85
-155.318
-170.774
-176.092
-179.252
-183.578
-168.239
-95.5132
83.5152
336.18
570.38
669.989
1.42145
1.85226
0.322681
-1.81937
-3.56135
-2.8103
0.253409
3.48179
3.25715
-2.29331
-13.4863
-28.1956
-43.3079
-55.3974
-61.6828
-60.7077
-53.3737
-42.0385
-28.8685
-15.8395
-4.5418
4.36634
11.3548
17.3158
23.1689
29.4495
36.3285
43.4645
49.6487
53.5837
54.4868
52.2451
47.8561
42.7004
37.9364
34.5401
32.639
31.4505
29.6867
25.8693
19.1755
9.97811
-2.33132
-18.6128
-39.2189
-63.6734
-89.1704
-114.29
-136.985
-157.105
-174.624
-181.937
-182.858
-187.08
-176.151
-97.4526
104.313
375.18
629.223
728.795
3.60779
1.44855
-0.183524
-2.2299
-3.586
-2.73879
0.126354
2.96099
2.58513
-2.59154
-12.9462
-26.5974
-40.7023
-52.2669
-58.2981
-57.6171
-50.9418
-40.4501
-28.2813
-16.2333
-5.67187
2.89019
9.84131
15.9102
21.8161
28.2462
35.2868
42.6131
48.9558
53.0013
53.9731
51.805
47.4822
42.5307
38.0176
34.708
32.8153
31.6808
29.9575
26.2329
19.7449
10.4008
-1.76572
-17.0886
-36.6939
-61.0892
-87.5287
-113.076
-135.574
-156.437
-176.19
-187.391
-172.879
-175.394
-171.884
-83.6481
129.016
410.612
669.948
770.367
0.770655
0.25975
-0.747744
-2.44633
-3.57221
-2.76285
-0.283808
1.99722
1.52353
-3.20599
-12.6067
-25.0145
-37.9819
-48.5618
-54.2606
-53.949
-48.0741
-38.5726
-27.4252
-16.3369
-6.48531
1.7256
8.61664
14.7725
20.7484
27.1732
34.3366
41.8075
48.2224
52.3339
53.3224
51.0832
46.7581
41.8339
37.3056
34.0034
32.2805
31.4407
30.0513
26.5349
20.2442
11.0627
-0.999995
-16.1868
-35.1877
-59.1149
-85.092
-110.372
-132.655
-153.851
-177.186
-194.784
-195.489
-191.795
-176.333
-79.2876
139.396
434.029
698.65
794
1.681
0.348912
-0.882566
-2.52811
-3.58058
-2.9392
-0.954989
0.837098
0.282214
-3.95322
-12.24
-23.2525
-34.9548
-44.7492
-50.3245
-50.4562
-45.2916
-36.7981
-26.693
-16.5167
-7.25882
0.71006
7.57872
13.7976
19.813
26.1867
33.3873
40.953
47.4448
51.5599
52.481
50.2392
46.0302
41.1948
36.6993
33.456
31.7607
30.7681
29.5094
26.2364
20.1244
10.5763
-2.15676
-16.9075
-35.0466
-58.1132
-84.127
-110.103
-131.478
-147.559
-161.747
-173.402
-190.107
-204.271
-176.128
-73.1961
139.761
430.283
694.263
790.09
1.04322
0.026799
-1.1444
-2.69161
-3.75593
-3.34065
-1.81803
-0.482079
-1.15563
-4.94141
-12.1487
-21.6952
-31.948
-40.6576
-45.8365
-46.1209
-41.8794
-34.5885
-25.5288
-16.2413
-7.58414
0.113458
6.93125
13.162
19.2309
25.62
32.74
40.2009
46.6184
50.6484
51.5369
49.3754
45.3218
40.5703
36.139
32.9401
31.3096
30.4289
29.0158
25.5089
19.1169
9.39961
-2.95913
-17.2162
-35.4463
-58.3063
-83.4586
-108.319
-130.566
-148.679
-166.191
-184.613
-204.794
-216.976
-181.461
-79.2436
121.799
405.108
669.448
767.347
2.48718
0.44961
-1.11552
-2.78984
-4.01811
-3.88159
-2.8279
-1.93434
-2.75189
-6.14441
-12.3496
-20.5086
-29.3031
-36.928
-41.6743
-42.3174
-39.063
-32.442
-24.311
-15.836
-7.76225
-0.364882
6.36909
12.6266
18.7493
25.1556
32.1954
39.5164
45.7383
49.6326
50.5378
48.5337
44.6047
39.9194
35.5345
32.3334
30.718
29.831
28.2678
24.3935
17.2202
6.53859
-6.75597
-21.8328
-39.5836
-60.4477
-84.8591
-109.718
-133.16
-153.358
-171.031
-190.429
-214.978
-225.582
-190.144
-91.3882
99.2875
370.681
633.648
732.377
2.66963
0.417667
-1.14976
-2.87268
-4.25678
-4.42951
-3.82759
-3.34582