/*--------------------------------*- C++ -*----------------------------------*\
| =========                 |                                                 |
| \\      /  F ield         | OpenFOAM: The Open Source CFD Toolbox           |
|  \\    /   O peration     | Version:  2.1.1                                 |
|   \\  /    A nd           | Web:      www.OpenFOAM.org                      |
|    \\/     M anipulation  |                                                 |
\*---------------------------------------------------------------------------*/
FoamFile
{
    version     2.0;
    format      ascii;
    class       surfaceScalarField;
    location    "0.0013";
    object      phi;
}
// * * * * * * * * * * * * * * * * * * * * * * * * * * * * * * * * * * * * * //

dimensions      [0 3 -1 0 0 0 0];

internalField   nonuniform List<scalar> 
105695
(
-2.35193e-08
-1.03412e-07
-3.11289e-08
1.58061e-07
-5.88169e-08
6.1162e-09
3.50989e-09
2.56715e-08
-1.06798e-07
3.65126e-08
2.27971e-08
-1.13285e-08
-1.36658e-07
3.49616e-08
5.3461e-08
-5.85624e-08
-1.66128e-07
3.60217e-08
7.16206e-08
-7.81722e-08
-1.8738e-07
3.12816e-08
7.8667e-08
-8.86965e-08
-2.02142e-07
2.6925e-08
8.02584e-08
-9.2422e-08
-2.09226e-07
2.15857e-08
8.31031e-08
-9.76047e-08
-2.17594e-07
2.43699e-08
9.71663e-08
-1.13168e-07
-2.35426e-07
3.53301e-08
1.26107e-07
-1.43605e-07
-2.70935e-07
5.30703e-08
1.62168e-07
-1.79729e-07
-3.25965e-07
7.02556e-08
1.95035e-07
-2.10261e-07
-3.90153e-07
7.56778e-08
1.98845e-07
-2.10335e-07
-4.43922e-07
6.1381e-08
1.64385e-07
-1.71997e-07
-4.69212e-07
2.94144e-08
9.49067e-08
-9.90309e-08
-4.62574e-07
-6.6554e-09
1.62333e-08
-1.62158e-08
-4.29658e-07
-3.76605e-08
-4.88654e-08
5.36101e-08
-3.8419e-07
-5.45014e-08
-8.64645e-08
9.54978e-08
-3.4271e-07
-5.38212e-08
-9.0341e-08
1.02682e-07
-3.16965e-07
-4.03702e-08
-6.79937e-08
8.26194e-08
-3.06217e-07
-2.5779e-08
-3.7405e-08
5.24358e-08
-3.04845e-07
-1.49832e-08
-1.05691e-08
2.41803e-08
-3.06992e-07
-8.94315e-09
8.84525e-09
2.24462e-09
-3.10009e-07
-6.76878e-09
2.30083e-08
-1.32219e-08
-3.12689e-07
-5.33099e-09
3.36633e-08
-2.56531e-08
-3.15561e-07
-3.31415e-09
4.2527e-08
-3.63409e-08
-3.19413e-07
-2.80856e-10
5.02429e-08
-4.61098e-08
-3.24785e-07
3.35379e-09
5.68573e-08
-5.48389e-08
-3.32115e-07
7.76536e-09
6.23328e-08
-6.27682e-08
-3.41631e-07
1.22472e-08
6.657e-08
-6.93015e-08
-3.53088e-07
1.60812e-08
6.94469e-08
-7.40714e-08
-3.65669e-07
1.85572e-08
7.09259e-08
-7.69021e-08
-3.78115e-07
1.9289e-08
7.13878e-08
-7.82306e-08
-3.89215e-07
1.84019e-08
7.12053e-08
-7.85066e-08
-3.98112e-07
1.66532e-08
7.12207e-08
-7.89774e-08
-4.04576e-07
1.48274e-08
7.21576e-08
-8.05205e-08
-4.08958e-07
1.38396e-08
7.46069e-08
-8.40649e-08
-4.12259e-07
1.42476e-08
8.0158e-08
-9.11042e-08
-4.1579e-07
1.63466e-08
8.89183e-08
-1.01734e-07
-4.21366e-07
2.07445e-08
1.01072e-07
-1.16241e-07
-4.30934e-07
2.80254e-08
1.14935e-07
-1.33391e-07
-4.46315e-07
3.90675e-08
1.26802e-07
-1.50489e-07
-4.70132e-07
5.59199e-08
1.31661e-07
-1.63763e-07
-5.05377e-07
8.07429e-08
1.22538e-07
-1.68037e-07
-5.52555e-07
1.10996e-07
9.10824e-08
-1.54899e-07
-6.11667e-07
1.43454e-07
3.87766e-08
-1.23119e-07
-6.86122e-07
1.75804e-07
-2.70375e-08
-7.43116e-08
-7.74837e-07
2.05219e-07
-1.16503e-07
-1.78499e-12
-8.7182e-07
2.23507e-07
-2.16553e-07
9.00289e-08
-9.69369e-07
2.11856e-07
-3.14992e-07
2.00685e-07
-1.04794e-06
1.57828e-07
-4.13407e-07
3.34148e-07
-1.07972e-06
6.97057e-08
-5.2509e-07
4.87168e-07
-1.0704e-06
-1.39071e-08
-6.29444e-07
6.3403e-07
-1.02359e-06
-8.81818e-08
-7.17496e-07
7.58872e-07
-9.45754e-07
-1.54015e-07
-8.08251e-07
8.84425e-07
-8.24431e-07
-2.21178e-07
-9.16497e-07
1.01635e-06
-6.45843e-07
-3.04684e-07
-1.03314e-06
1.15924e-06
-4.27135e-07
-3.53409e-07
-1.12211e-06
1.25681e-06
-2.043e-07
-3.58934e-07
-1.17583e-06
1.31193e-06
-3.42742e-07
-1.17336e-06
1.3118e-06
-1.43898e-07
-8.1724e-08
-9.06665e-09
1.31276e-07
-1.97105e-07
3.87014e-08
4.27213e-08
-2.20992e-08
-2.35007e-07
7.09686e-08
4.44888e-08
-4.10427e-08
-2.62749e-07
6.99108e-08
7.82697e-08
-8.54776e-08
-2.91759e-07
7.30704e-08
8.53515e-08
-9.33895e-08
-3.12861e-07
6.30882e-08
9.20202e-08
-1.02725e-07
-3.26942e-07
5.38825e-08
8.74308e-08
-1.00307e-07
-3.33112e-07
4.20612e-08
8.73276e-08
-1.01633e-07
-3.40302e-07
4.70093e-08
9.73172e-08
-1.12766e-07
-3.5695e-07
6.87984e-08
1.25586e-07
-1.42407e-07
-3.92463e-07
1.04085e-07
1.61873e-07
-1.77375e-07
-4.48703e-07
1.3945e-07
1.96546e-07
-2.095e-07
-5.15647e-07
1.51008e-07
1.9998e-07
-2.08366e-07
-5.70675e-07
1.22036e-07
1.60967e-07
-1.66594e-07
-5.94366e-07
5.68287e-08
8.21099e-08
-8.58335e-08
-5.84927e-07
-1.40257e-08
-4.10771e-09
2.03903e-09
-5.48954e-07
-7.61526e-08
-7.49084e-08
7.74279e-08
-5.00938e-07
-1.09626e-07
-1.13957e-07
1.21064e-07
-4.58398e-07
-1.07385e-07
-1.15372e-07
1.26397e-07
-4.3322e-07
-8.00385e-08
-8.83454e-08
1.02835e-07
-4.23745e-07
-5.08134e-08
-5.37413e-08
6.93014e-08
-4.23189e-07
-3.0012e-08
-2.57959e-08
4.02684e-08
-4.25718e-07
-1.87643e-08
-5.84406e-09
1.81943e-08
-4.28433e-07
-1.38766e-08
7.03747e-09
2.78485e-09
-4.30529e-07
-1.17539e-08
1.74149e-08
-8.89554e-09
-4.3255e-07
-8.68093e-09
2.57875e-08
-1.83996e-08
-4.35353e-07
-2.85927e-09
3.2921e-08
-2.75393e-08
-4.39695e-07
4.87672e-09
3.87857e-08
-3.59674e-08
-4.45934e-07
1.37652e-08
4.38484e-08
-4.36092e-08
-4.54371e-07
2.26305e-08
4.77378e-08
-4.96835e-08
-4.64765e-07
3.01554e-08
5.02533e-08
-5.39335e-08
-4.76316e-07
3.47463e-08
5.15e-08
-5.61384e-08
-4.87575e-07
3.5388e-08
5.18166e-08
-5.66564e-08
-4.9726e-07
3.2745e-08
5.14324e-08
-5.60906e-08
-5.04726e-07
2.8523e-08
5.11654e-08
-5.55696e-08
-5.10053e-07
2.419e-08
5.16977e-08
-5.57333e-08
-5.13552e-07
2.07191e-08
5.44268e-08
-5.78072e-08
-5.15825e-07
2.01621e-08
5.92479e-08
-6.28888e-08
-5.17997e-07
2.28613e-08
6.66426e-08
-7.09858e-08
-5.21543e-07
3.01931e-08
7.72686e-08
-8.31712e-08
-5.28004e-07
4.30181e-08
8.95632e-08
-9.80942e-08
-5.38841e-07
6.3243e-08
1.00046e-07
-1.13385e-07
-5.55535e-07
9.51721e-08
1.03191e-07
-1.25749e-07
-5.79026e-07
1.40883e-07
9.3001e-08
-1.2965e-07
-6.11242e-07
1.97538e-07
6.19267e-08
-1.16253e-07
-6.57374e-07
2.61398e-07
1.66616e-08
-8.84728e-08
-7.19012e-07
3.28912e-07
-4.27788e-08
-4.86904e-08
-7.94421e-07
3.90567e-07
-1.25639e-07
1.57002e-08
-8.78887e-07
4.28738e-07
-2.20487e-07
9.97221e-08
-9.711e-07
4.14291e-07
-3.19586e-07
2.09365e-07
-1.06664e-06
3.28385e-07
-4.36105e-07
3.61086e-07
-1.11761e-06
1.42857e-07
-5.66473e-07
5.44294e-07
-1.11734e-06
-4.39408e-08
-6.88746e-07
7.18505e-07
-1.07866e-06
-1.84535e-07
-8.04202e-07
8.61878e-07
-1.00281e-06
-3.20356e-07
-9.03049e-07
9.93541e-07
-8.64435e-07
-4.87402e-07
-9.97504e-07
1.12535e-06
-6.68573e-07
-6.64263e-07
-1.10515e-06
1.26887e-06
-4.40733e-07
-7.56354e-07
-1.1891e-06
1.3642e-06
-2.05335e-07
-7.67544e-07
-1.24099e-06
1.41421e-06
-7.21606e-07
-1.23121e-06
1.40474e-06
-1.92976e-07
-2.39067e-08
6.86329e-09
1.28296e-07
-2.57874e-07
8.37395e-08
4.89471e-08
-2.90874e-08
-2.97503e-07
1.09695e-07
5.65178e-08
-5.56159e-08
-3.2293e-07
1.06519e-07
8.29829e-08
-9.41645e-08
-3.50266e-07
1.11602e-07
9.14443e-08
-1.02639e-07
-3.71501e-07
9.74413e-08
9.74893e-08
-1.10608e-07
-3.84377e-07
8.23516e-08
8.79089e-08
-1.03501e-07
-3.88155e-07
6.43745e-08
8.27651e-08
-1.013e-07
-3.91632e-07
7.12613e-08
8.87402e-08
-1.09515e-07
-4.05252e-07
1.02638e-07
1.22711e-07
-1.4293e-07
-4.40642e-07
1.57213e-07
1.66742e-07
-1.84481e-07
-5.01198e-07
2.12643e-07
2.1389e-07
-2.26527e-07
-5.76801e-07
2.31934e-07
2.24651e-07
-2.29974e-07
-6.39054e-07
1.87506e-07
1.80565e-07
-1.83783e-07
-6.63667e-07
8.65521e-08
8.48623e-08
-8.99726e-08
-6.51191e-07
-2.09576e-08
-1.77657e-08
1.22224e-08
-6.08183e-07
-1.1578e-07
-1.03373e-07
9.99916e-08
-5.50585e-07
-1.67895e-07
-1.49149e-07
1.49821e-07
-5.01183e-07
-1.63077e-07
-1.4624e-07
1.52529e-07
-4.74216e-07
-1.19371e-07
-1.08684e-07
1.21049e-07
-4.65934e-07
-7.46256e-08
-6.4398e-08
7.99283e-08
-4.66679e-07
-4.45944e-08
-3.13738e-08
4.67008e-08
-4.70044e-07
-2.93702e-08
-8.69414e-09
2.26651e-08
-4.72824e-07
-2.38582e-08
5.58481e-09
7.17657e-09
-4.74317e-07
-2.21898e-08
1.61291e-08
-4.20012e-09
-4.75465e-07
-1.82531e-08
2.44709e-08
-1.37505e-08
-4.77693e-07
-9.34497e-09
3.26731e-08
-2.39597e-08
-4.81768e-07
3.1484e-09
3.94876e-08
-3.36844e-08
-4.87996e-07
1.81358e-08
4.52326e-08
-4.33742e-08
-4.96638e-07
3.32428e-08
4.92562e-08
-5.12272e-08
-5.07326e-07
4.60607e-08
5.15168e-08
-5.67341e-08
-5.19339e-07
5.38313e-08
5.25371e-08
-5.96092e-08
-5.31462e-07
5.46062e-08
5.29184e-08
-6.00132e-08
-5.42009e-07
4.86846e-08
5.31288e-08
-5.85212e-08
-5.49719e-07
3.93464e-08
5.35041e-08
-5.66178e-08
-5.54949e-07
2.94959e-08
5.52425e-08
-5.53185e-08
-5.578e-07
2.12338e-08
5.88225e-08
-5.64866e-08
-5.59238e-07
1.79273e-08
6.47058e-08
-6.10329e-08
-5.60332e-07
1.96945e-08
7.35771e-08
-6.93162e-08
-5.62623e-07
2.89339e-08
8.61172e-08
-8.25672e-08
-5.67484e-07
4.67478e-08
1.00546e-07
-9.94144e-08
-5.75292e-07
7.55188e-08
1.14094e-07
-1.18562e-07
-5.87582e-07
1.22079e-07
1.23377e-07
-1.37993e-07
-6.06475e-07
1.89827e-07
1.2285e-07
-1.52902e-07
-6.30211e-07
2.72431e-07
1.05421e-07
-1.56578e-07
-6.59069e-07
3.64233e-07
7.4004e-08
-1.47981e-07
-6.92106e-07
4.62359e-07
2.52406e-08
-1.25651e-07
-7.26816e-07
5.55251e-07
-5.07037e-08
-7.92706e-08
-7.54294e-07
6.14032e-07
-1.54289e-07
-3.5274e-09
-7.80591e-07
6.09562e-07
-2.69993e-07
1.01018e-07
-8.38045e-07
5.11424e-07
-3.74713e-07
2.49128e-07
-9.32519e-07
2.92193e-07
-5.16152e-07
4.6129e-07
-1.03442e-06
3.60987e-08
-6.65643e-07
6.87502e-07
-1.07679e-06
-1.9763e-07
-8.13296e-07
8.68769e-07
-1.04916e-06
-4.23692e-07
-9.28259e-07
1.00396e-06
-9.26408e-07
-7.12028e-07
-1.05509e-06
1.15697e-06
-7.30252e-07
-1.02827e-06
-1.15749e-06
1.32534e-06
-4.73271e-07
-1.22527e-06
-1.22542e-06
1.43735e-06
-2.14053e-07
-1.23601e-06
-1.27926e-06
1.48851e-06
-1.14224e-06
-1.26292e-06
1.4695e-06
-2.24442e-07
6.19307e-08
1.11388e-08
1.27466e-07
-2.95831e-07
1.32454e-07
6.23438e-08
-3.96694e-08
-3.41725e-07
1.5403e-07
7.2449e-08
-7.08899e-08
-3.69441e-07
1.46892e-07
9.40389e-08
-1.06696e-07
-3.96724e-07
1.5428e-07
1.08046e-07
-1.23441e-07
-4.20197e-07
1.37992e-07
1.11258e-07
-1.28335e-07
-4.32801e-07
1.16898e-07
9.50025e-08
-1.16944e-07
-4.33717e-07
9.44126e-08
8.04357e-08
-1.09558e-07
-4.32053e-07
1.06073e-07
8.03591e-08
-1.16835e-07
-4.42284e-07
1.47239e-07
1.18471e-07
-1.52841e-07
-4.79614e-07
2.19451e-07
1.79038e-07
-2.03945e-07
-5.49745e-07
2.92141e-07
2.47931e-07
-2.57298e-07
-6.40804e-07
3.16777e-07
2.74714e-07
-2.68499e-07
-7.15871e-07
2.53505e-07
2.24053e-07
-2.14984e-07
-7.42543e-07
1.14857e-07
1.01129e-07
-1.02762e-07
-7.24931e-07
-3.21795e-08
-3.14172e-08
2.50269e-08
-6.71193e-07
-1.54511e-07
-1.44126e-07
1.2912e-07
-5.97575e-07
-2.23983e-07
-2.06078e-07
1.88547e-07
-5.36408e-07
-2.14538e-07
-1.96576e-07
1.86871e-07
-5.05782e-07
-1.53193e-07
-1.40687e-07
1.43883e-07
-4.99318e-07
-9.28884e-08
-8.08006e-08
9.25995e-08
-5.02401e-07
-5.51266e-08
-3.98027e-08
5.34176e-08
-5.07127e-07
-3.77567e-08
-1.3616e-08
2.67285e-08
-5.10357e-07
-3.35835e-08
3.03353e-09
9.9221e-09
-5.11122e-07
-3.43965e-08
1.58897e-08
-2.91811e-09
-5.10881e-07
-3.23149e-08
2.76759e-08
-1.38557e-08
-5.11878e-07
-2.181e-08
3.92397e-08
-2.57774e-08
-5.15117e-07
-3.86115e-09
4.79111e-08
-3.7663e-08
-5.20629e-07
1.85427e-08
5.50894e-08
-4.99836e-08
-5.28842e-07
4.23493e-08
6.03578e-08
-6.12513e-08
-5.39469e-07
6.27779e-08
6.38818e-08
-6.99727e-08
-5.51709e-07
7.52002e-08
6.64742e-08
-7.56024e-08
-5.64298e-07
7.65081e-08
6.8781e-08
-7.80937e-08
-5.75741e-07
6.67909e-08
7.1186e-08
-7.78503e-08
-5.84453e-07
5.04058e-08
7.43098e-08
-7.66572e-08
-5.90439e-07
3.20629e-08
7.90912e-08
-7.5672e-08
-5.93899e-07
1.61414e-08
8.52438e-08
-7.66915e-08
-5.95723e-07
8.3044e-09
9.29309e-08
-8.14838e-08
-5.96346e-07
7.21768e-09
1.0306e-07
-8.996e-08
-5.97003e-07
1.59365e-08
1.16906e-07
-1.03251e-07
-5.9911e-07
3.56357e-08
1.339e-07
-1.20681e-07
-6.00158e-07
6.61214e-08
1.52337e-07
-1.41892e-07
-5.98415e-07
1.18481e-07
1.69348e-07
-1.67494e-07
-5.94563e-07
1.97843e-07
1.83895e-07
-1.95763e-07
-5.79245e-07
2.90555e-07
1.85577e-07
-2.19019e-07
-5.41263e-07
3.97101e-07
1.59231e-07
-2.30081e-07
-4.74554e-07
5.12826e-07
1.1313e-07
-2.30305e-07
-3.76472e-07
6.25229e-07
4.33412e-08
-2.114e-07
-2.59577e-07
7.06801e-07
-5.18935e-08
-1.5777e-07
-1.68549e-07
7.34468e-07
-1.4447e-07
-7.14634e-08
-1.48716e-07
6.5468e-07
-2.34583e-07
7.14932e-08
-2.46601e-07
4.74036e-07
-3.61788e-07
2.77831e-07
-5.04431e-07
2.69652e-07
-4.95187e-07
5.19463e-07
-7.93372e-07
-5.53492e-10
-6.87167e-07
7.79032e-07
-9.4459e-07
-3.10621e-07
-9.43005e-07
9.81152e-07
-9.4896e-07
-7.66253e-07
-1.10178e-06
1.16038e-06
-8.05754e-07
-1.31544e-06
-1.2485e-06
1.39246e-06
-5.30905e-07
-1.74452e-06
-1.32205e-06
1.56646e-06
-2.22746e-07
-1.79759e-06
-1.36496e-06
1.61838e-06
-1.60224e-06
-1.33551e-06
1.57277e-06
-2.55093e-07
1.67792e-07
5.15744e-08
9.76571e-08
-3.38283e-07
1.88742e-07
7.92287e-08
-5.23266e-08
-3.85151e-07
2.03608e-07
7.87576e-08
-8.14669e-08
-4.13973e-07
1.90425e-07
1.07328e-07
-1.22039e-07
-4.4706e-07
2.01155e-07
1.29949e-07
-1.43738e-07
-4.77521e-07
1.79217e-07
1.31991e-07
-1.42755e-07
-4.92025e-07
1.50885e-07
1.05668e-07
-1.2515e-07
-4.89901e-07
1.25903e-07
7.8485e-08
-1.12098e-07
-4.81779e-07
1.49801e-07
7.02776e-08
-1.22127e-07
-4.8752e-07
2.08176e-07
1.16488e-07
-1.71685e-07
-5.24466e-07
2.9597e-07
2.00293e-07
-2.39865e-07
-6.0109e-07
3.73632e-07
3.046e-07
-3.09467e-07
-7.04276e-07
3.94589e-07
3.56257e-07
-3.30883e-07
-7.91567e-07
3.11043e-07
2.97358e-07
-2.67605e-07
-8.17118e-07
1.37664e-07
1.33071e-07
-1.30328e-07
-7.90073e-07
-4.2667e-08
-4.79951e-08
3.14378e-08
-7.25835e-07
-1.76205e-07
-1.99068e-07
1.56525e-07
-6.32438e-07
-2.52384e-07
-2.88176e-07
2.23181e-07
-5.55487e-07
-2.41988e-07
-2.63283e-07
2.13781e-07
-5.19614e-07
-1.70439e-07
-1.75383e-07
1.56756e-07
-5.13898e-07
-1.03791e-07
-8.94516e-08
9.46387e-08
-5.17617e-07
-6.62964e-08
-3.56693e-08
5.05577e-08
-5.21455e-07
-5.33048e-08
-2.74445e-09
2.21308e-08
-5.21468e-07
-5.51585e-08
1.61552e-08
5.43254e-09
-5.17663e-07
-6.34641e-08
3.19885e-08
-6.7257e-09
-5.12969e-07
-6.69763e-08
4.73251e-08
-1.73577e-08
-5.09751e-07
-5.58523e-08
6.13631e-08
-3.05388e-08
-5.08898e-07
-3.28794e-08
7.31648e-08
-4.49994e-08
-5.10069e-07
-2.23815e-09
8.27063e-08
-6.07544e-08
-5.12791e-07
3.18861e-08
8.91225e-08
-7.59379e-08
-5.16224e-07
6.18834e-08
9.32231e-08
-8.88952e-08
-5.209e-07
8.01108e-08
9.63116e-08
-9.65462e-08
-5.27392e-07
8.26318e-08
1.00213e-07
-9.98449e-08
-5.36426e-07
6.97865e-08
1.05199e-07
-9.91608e-08
-5.47144e-07
4.45294e-08
1.1334e-07
-9.67451e-08
-5.58772e-07
1.42554e-08
1.24681e-07
-9.52451e-08
-5.69424e-07
-1.67947e-08
1.39584e-07
-9.59959e-08
-5.78612e-07
-3.7416e-08
1.58247e-07
-1.03339e-07
-5.86013e-07
-5.09523e-08
1.8086e-07
-1.15288e-07
-5.91317e-07
-5.25029e-08
2.07528e-07
-1.33785e-07
-5.96057e-07
-3.75963e-08
2.37807e-07
-1.59835e-07
-5.96798e-07
-1.10721e-08
2.70367e-07
-1.92433e-07
-5.90074e-07
4.25301e-08
3.06706e-07
-2.3748e-07
-5.8359e-07
1.37366e-07
3.52831e-07
-2.98838e-07
-5.70157e-07
2.35939e-07
4.04309e-07
-3.63125e-07
-5.3684e-07
3.31959e-07
4.50585e-07
-4.18759e-07
-4.72387e-07
4.42512e-07
4.6753e-07
-4.61669e-07
-3.67402e-07
5.78945e-07
4.32614e-07
-4.91314e-07
-2.14414e-07
7.27426e-07
3.20881e-07
-4.94495e-07
3.85769e-08
7.58118e-07
1.50642e-07
-4.27283e-07
3.68143e-07
5.77805e-07
-1.19798e-08
-2.40711e-07
5.0871e-07
4.60178e-07
-1.37013e-07
1.03033e-08
4.34752e-07
3.5781e-07
-2.1542e-07
2.0122e-07
1.65872e-07
1.49127e-07
-3.03773e-07
4.22973e-07
-2.0859e-07
-8.59589e-08
-5.33284e-07
6.83084e-07
-5.54275e-07
-4.44893e-07
-9.48607e-07
9.72932e-07
-7.38583e-07
-1.21632e-06
-1.2378e-06
1.32299e-06
-5.92806e-07
-2.14556e-06
-1.4325e-06
1.68776e-06
-2.28569e-07
-2.45514e-06
-1.50751e-06
1.80082e-06
-2.08159e-06
-1.45894e-06
1.70971e-06
-3.15075e-07
3.23861e-07
1.01849e-07
5.71569e-08
-3.9754e-07
2.35091e-07
1.06841e-07
-7.07258e-08
-4.46388e-07
2.46925e-07
1.07941e-07
-1.0241e-07
-4.80394e-07
2.23567e-07
1.44532e-07
-1.43668e-07
-5.16485e-07
2.33931e-07
1.73078e-07
-1.69762e-07
-5.47588e-07
2.05829e-07
1.72555e-07
-1.68063e-07
-5.56205e-07
1.79154e-07
1.2579e-07
-1.45442e-07
-5.40878e-07
1.6173e-07
7.56304e-08
-1.26785e-07
-5.15716e-07
2.06428e-07
5.81236e-08
-1.39913e-07
-5.05983e-07
2.84263e-07
1.16771e-07
-2.02592e-07
-5.28533e-07
3.83448e-07
2.27448e-07
-2.92376e-07
-5.91846e-07
4.41844e-07
3.69323e-07
-3.74223e-07
-6.82324e-07
4.2197e-07
4.58437e-07
-3.95339e-07
-7.51799e-07
2.97657e-07
4.00424e-07
-3.17564e-07
-7.55078e-07
1.00784e-07
1.92345e-07
-1.52185e-07
-7.16153e-07
-7.93391e-08
-4.93669e-08
4.71136e-08
-6.63713e-07
-1.62234e-07
-2.62864e-07
1.96453e-07
-5.74513e-07
-1.91819e-07
-4.167e-07
2.66935e-07
-4.87761e-07
-1.93074e-07
-3.83229e-07
2.47564e-07
-4.43326e-07
-1.42428e-07
-2.47173e-07
1.74727e-07
-4.31509e-07
-9.33905e-08
-1.25211e-07
1.02993e-07
-4.27105e-07
-7.0367e-08
-5.60206e-08
5.56877e-08
-4.19212e-07
-7.13439e-08
-1.7332e-08
2.74782e-08
-4.05107e-07
-8.78449e-08
7.08797e-09
1.14934e-08
-3.85762e-07
-1.10002e-07
2.62142e-08
9.79101e-10
-3.65085e-07
-1.22447e-07
4.71192e-08
-1.23251e-08
-3.4519e-07
-1.18651e-07
7.06482e-08
-2.7744e-08
-3.26777e-07
-9.86564e-08
9.23406e-08
-4.49768e-08
-3.08558e-07
-6.39616e-08
1.05655e-07
-6.21507e-08
-2.87622e-07
-2.06849e-08
1.09377e-07
-7.77422e-08
-2.6179e-07
2.13482e-08
1.05552e-07
-9.08489e-08
-2.34559e-07
5.25674e-08
9.74486e-08
-9.7136e-08
-2.13095e-07
6.79098e-08
8.88714e-08
-9.56135e-08
-2.04023e-07
6.69201e-08
8.26308e-08
-8.88356e-08
-2.11882e-07
4.97135e-08
8.28264e-08
-8.01523e-08
-2.32796e-07
1.63533e-08
9.48958e-08
-7.60793e-08
-2.58116e-07
-2.68609e-08
1.12614e-07
-7.72281e-08
-2.82962e-07
-6.74003e-08
1.38782e-07
-8.39525e-08
-3.10953e-07
-1.02649e-07
1.75682e-07
-9.59945e-08
-3.40752e-07
-1.30523e-07
2.21356e-07
-1.13536e-07
-3.692e-07
-1.40124e-07
2.70045e-07
-1.3907e-07
-3.91439e-07
-1.41706e-07
3.19926e-07
-1.67053e-07
-4.01731e-07
-1.09371e-07
3.70367e-07
-2.08173e-07
-4.01059e-07
-1.40749e-08
4.32086e-07
-2.81318e-07
-3.85611e-07
7.17895e-08
5.14902e-07
-3.662e-07
-3.5252e-07
1.39512e-07
6.02492e-07
-4.43136e-07
-2.87697e-07
2.09167e-07
6.75018e-07
-5.06497e-07
-1.76105e-07
3.42512e-07
6.82701e-07
-5.57861e-07
4.0253e-08
5.18385e-07
5.72994e-07
-5.80311e-07
4.08033e-07
5.61229e-07
3.2774e-07
-4.98631e-07
7.67605e-07
4.39909e-07
4.64039e-08
-2.6808e-07
9.32331e-07
4.23986e-07
-6.5708e-08
-6.28254e-08
1.0668e-06
2.59266e-07
-1.05133e-07
6.92121e-08
1.14817e-06
2.35865e-09
-1.37886e-07
2.0328e-07
1.11462e-06
-1.62446e-07
-2.25196e-07
3.35234e-07
8.59706e-07
-3.24183e-07
-3.58702e-07
4.92903e-07
1.33334e-07
-6.88221e-07
-6.88099e-07
8.86377e-07
-4.74277e-07
-1.82692e-06
-1.37391e-06
1.66288e-06
-2.22395e-07
-3.05927e-06
-1.67232e-06
2.02457e-06
-2.53521e-06
-1.64453e-06
1.87576e-06
-3.85132e-07
4.89834e-07
2.99893e-07
-8.07332e-08
-4.67632e-07
2.61368e-07
1.46406e-07
-9.01831e-08
-5.15521e-07
2.89612e-07
1.29359e-07
-1.24157e-07
-5.40983e-07
2.31571e-07
1.81436e-07
-1.63979e-07
-5.74013e-07
2.36569e-07
2.26349e-07
-1.95957e-07
-5.9436e-07
1.7972e-07
2.38647e-07
-1.92192e-07
-5.79019e-07
1.66167e-07
1.56834e-07
-1.59188e-07
-5.27352e-07
1.85776e-07
6.14479e-08
-1.37162e-07
-4.59655e-07
2.71418e-07
1.8613e-08
-1.51299e-07
-4.01045e-07
3.73504e-07
7.40326e-08
-2.21883e-07
-3.66212e-07
4.616e-07
2.17897e-07
-3.30882e-07
-3.48643e-07
4.56145e-07
3.95771e-07
-4.27641e-07
-3.28465e-07
3.30931e-07
5.23705e-07
-4.52844e-07
-2.82276e-07
1.52051e-07
4.61634e-07
-3.62217e-07
-2.17808e-07
-1.71545e-08
2.34741e-07
-1.81271e-07
-1.72555e-07
-1.50276e-07
-1.0053e-08
3.57377e-08
-1.82359e-07
-1.8537e-07
-1.69778e-07
2.02717e-07
-1.72612e-07
-9.68372e-08
-3.8708e-07
2.82352e-07
-1.1685e-07
-1.43401e-08
-4.99064e-07
2.64567e-07
-8.07395e-08
-8.61972e-09
-3.49057e-07
1.79138e-07
-7.3058e-08
-2.55091e-08
-1.74247e-07
9.86843e-08
-7.32274e-08
-4.10139e-08
-7.7396e-08
4.82122e-08
-6.69957e-08
-6.68945e-08
-3.13399e-08
2.06588e-08
-5.2098e-08
-1.0747e-07
-1.44414e-09
6.17169e-09
-2.93272e-08
-1.50908e-07
2.31919e-08
-5.05705e-09
-7.79636e-09
-1.83807e-07
5.7522e-08
-1.76936e-08
1.44232e-08
-2.02233e-07
9.80523e-08
-3.66896e-08
4.26745e-08
-2.00364e-07
1.32313e-07
-5.88563e-08
7.96497e-08
-1.70701e-07
1.49905e-07
-8.01405e-08
1.25657e-07
-1.19377e-07
1.5271e-07
-1.00024e-07
1.80153e-07
-5.88182e-08
1.43345e-07
-1.17675e-07
2.40939e-07
-8.36644e-09
1.26907e-07
-1.26759e-07
3.02361e-07
2.68544e-08
1.05426e-07
-1.25793e-07
3.56882e-07
4.74263e-08
8.16645e-08
-1.16692e-07
3.97824e-07
5.0589e-08
6.05518e-08
-1.02369e-07
4.20264e-07
3.47815e-08
4.6383e-08
-8.72515e-08
4.24574e-07
-2.18747e-09
4.51898e-08
-7.41734e-08
4.12583e-07
-4.56542e-08
6.01413e-08
-6.9896e-08
3.90124e-07
-9.00826e-08
8.56843e-08
-7.57917e-08
3.50924e-07
-1.33515e-07
1.3096e-07
-8.87689e-08
3.00442e-07
-1.69613e-07
1.94259e-07
-1.14288e-07
2.45138e-07
-2.12476e-07
2.67224e-07
-1.41149e-07
1.95172e-07
-2.35068e-07
3.44667e-07
-1.69005e-07
1.98492e-07
-2.14762e-07
4.19972e-07
-2.22605e-07
2.80054e-07
-2.23851e-07
4.94537e-07
-2.80458e-07
4.08134e-07
-2.32973e-07
5.80421e-07
-3.36015e-07
5.37906e-07
-1.98282e-07
6.59226e-07
-3.81549e-07
6.45668e-07
-4.17454e-08
6.89046e-07
-4.1255e-07
7.40645e-07
2.14733e-07
6.32017e-07
-4.23341e-07
8.27182e-07
3.29986e-07
5.351e-07
-3.90394e-07
9.49534e-07
3.10715e-07
2.87571e-07
-2.80729e-07
1.34124e-06
1.80706e-07
4.08304e-08
-1.89256e-07
1.76044e-06
-8.43987e-08
-2.2799e-08
-5.27398e-08
1.90937e-06
-1.63047e-07
-5.91661e-08
7.56438e-08
1.91788e-06
-2.39204e-07
-1.013e-07
1.69553e-07
1.82462e-06
-3.22803e-07
-1.5757e-07
2.49445e-07
1.40259e-06
-4.81927e-07
-2.5126e-07
4.67001e-07
3.2509e-07
-1.1958e-06
-7.41201e-07
1.18758e-06
-1.53372e-07
-3.00944e-06
-1.80213e-06
2.23076e-06
-2.83281e-06
-1.92077e-06
2.065e-06
-5.65634e-07
7.72311e-07
3.80428e-07
-9.72706e-08
-5.532e-07
2.03105e-07
1.60557e-07
-1.14729e-07
-5.31347e-07
2.50959e-07
1.83481e-07
-1.6668e-07
-4.87618e-07
1.18953e-07
2.79219e-07
-2.1033e-07
-4.54398e-07
8.95951e-08
3.49659e-07
-2.35905e-07
-3.87817e-07
7.40326e-09
3.0462e-07
-1.98884e-07
-2.56345e-07
1.70928e-08
1.47672e-07
-1.30069e-07
-9.54788e-08
1.1358e-07
-1.73434e-09
-8.69359e-08
6.24012e-08
3.04213e-07
-9.10493e-08
-9.96258e-08
2.44891e-07
4.43714e-07
-6.36337e-08
-1.89066e-07
4.47943e-07
4.77452e-07
1.0124e-07
-3.20144e-07
6.56083e-07
3.37041e-07
3.31816e-07
-4.20852e-07
8.46936e-07
8.2538e-08
5.07941e-07
-4.50401e-07
1.00666e-06
-1.15031e-07
4.85306e-07
-3.77946e-07
1.11376e-06
-2.05046e-07
2.99053e-07
-2.18268e-07
1.13426e-06
-2.21428e-07
9.49922e-08
-4.43368e-08
1.03792e-06
-1.46084e-07
-7.89788e-08
1.36033e-07
9.37815e-07
-2.72392e-09
-2.11469e-07
2.17461e-07
9.48634e-07
8.82699e-08
-3.25301e-07
2.11872e-07
1.00297e-06
8.94614e-08
-3.10466e-07
1.58049e-07
1.01682e-06
4.89398e-08
-1.87748e-07
9.94455e-08
9.92051e-07
2.19201e-08
-1.02395e-07
6.42334e-08
9.50934e-07
2.48934e-09
-7.85948e-08
5.03278e-08
9.01522e-07
-1.95573e-08
-8.33085e-08
4.48077e-08
8.53312e-07
-6.64354e-08
-7.11114e-08
3.48487e-08
8.16719e-07
-1.40478e-07
-2.24449e-08
1.57097e-08
8.04835e-07
-2.17436e-07
4.22218e-08
-1.51351e-08
8.1139e-07
-2.70711e-07
1.08915e-07
-4.51231e-08
8.34879e-07
-2.8544e-07
1.67831e-07
-7.65812e-08
8.77671e-07
-2.54657e-07
1.98353e-07
-1.05866e-07
9.35887e-07
-1.86239e-07
2.01272e-07
-1.32067e-07
1.01027e-06
-1.16375e-07
1.83829e-07
-1.50198e-07
1.09412e-06
-5.67477e-08
1.55005e-07
-1.55255e-07
1.18226e-06
-1.13729e-08
1.19959e-07
-1.49303e-07
1.26707e-06
1.47201e-08
8.55186e-08
-1.34456e-07
1.34141e-06
1.8904e-08
5.62296e-08
-1.14694e-07
1.39439e-06
2.28187e-09
3.78449e-08
-9.52951e-08
1.42482e-06
-1.86753e-08
2.92006e-08
-8.6609e-08
1.44134e-06
-5.2237e-08
3.18606e-08
-8.62321e-08
1.43677e-06
-8.20384e-08
4.77929e-08
-9.4694e-08
1.41524e-06
-1.08678e-07
7.42601e-08
-1.13665e-07
1.37574e-06
-1.53776e-07
1.17251e-07
-1.36448e-07
1.33213e-06
-2.04148e-07
1.82311e-07
-1.69622e-07
1.33196e-06
-2.56793e-07
2.70502e-07
-2.28303e-07
1.38836e-06
-3.68949e-07
3.74426e-07
-2.85732e-07
1.4698e-06
-4.90853e-07
5.27761e-07
-3.51322e-07
1.54885e-06
-5.3514e-07
6.78079e-07
-4.20267e-07
1.6408e-06
-4.10663e-07
7.64665e-07
-4.877e-07
1.72769e-06
-7.16243e-08
7.51709e-07
-5.52243e-07
1.79904e-06
1.5129e-07
6.89351e-07
-5.82005e-07
1.97382e-06
5.59089e-08
6.45542e-07
-5.65515e-07
2.43596e-06
-2.16446e-07
3.72453e-07
-4.37435e-07
2.83865e-06
-4.26139e-07
3.20327e-08
-9.29871e-08
2.83864e-06
-1.84755e-07
-1.55756e-08
3.72913e-08
2.76938e-06
-1.93507e-07
-8.17805e-08
1.05345e-07
2.65546e-06
-2.49422e-07
-1.25274e-07
1.6581e-07
2.36852e-06
-3.37867e-07
-1.7624e-07
3.19121e-07
1.26019e-06
-7.00986e-07
-4.07173e-07
1.0207e-06
4.55421e-08
-2.31731e-06
-1.76858e-06
2.2911e-06
-2.7698e-06
-2.29257e-06
2.27511e-06
-4.72118e-07
5.05382e-07
1.73141e-06
-9.92359e-07
-4.58228e-07
1.7374e-07
2.70536e-07
-2.55061e-07
-3.22677e-07
1.72884e-07
7.53968e-08
-1.32873e-07
-1.69489e-07
5.43939e-08
5.34724e-08
-1.42102e-07
-3.30442e-08
5.27683e-08
2.97255e-08
-1.29344e-07
8.15594e-08
-7.18624e-09
1.44324e-08
-1.14446e-07
2.2546e-07
-4.309e-08
1.73725e-08
-1.01091e-07
4.73044e-07
-7.12811e-08
5.29784e-08
-1.15702e-07
8.35821e-07
-3.645e-08
1.20262e-07
-1.42375e-07
1.27875e-06
3.45583e-08
1.5879e-07
-1.92566e-07
1.73244e-06
1.12512e-07
1.46838e-07
-2.35588e-07
2.07087e-06
1.50061e-07
1.03357e-07
-2.54803e-07
2.23205e-06
8.96159e-08
4.51563e-08
-2.13417e-07
2.25824e-06
-7.51333e-09
-5.74057e-09
-1.27969e-07
2.19956e-06
-4.74427e-08
-5.07973e-08
-4.81259e-08
2.07721e-06
-5.17998e-08
-8.88768e-08
4.16007e-08
1.99238e-06
-5.5869e-08
-1.01374e-07
9.59952e-08
2.02366e-06
-6.41628e-08
-7.37515e-08
1.03905e-07
2.15269e-06
-6.87687e-08
-5.82818e-08
8.6286e-08
2.27699e-06
-5.13855e-08
-4.4558e-08
6.11119e-08
2.33599e-06
-1.50585e-08
-3.22678e-08
3.72605e-08
2.34687e-06
1.47448e-08
-2.42404e-08
2.05406e-08
2.32096e-06
3.56696e-08
-1.76178e-08
1.03438e-08
2.25264e-06
5.438e-08
-1.18731e-08
6.25897e-09
2.13507e-06
5.94933e-08
-8.57504e-09
2.19666e-10
1.97758e-06
3.33164e-08
-5.52292e-09
-1.07828e-08
1.82352e-06
-3.18907e-08
2.92651e-09
-3.4414e-08
1.74063e-06
-1.44562e-07
1.47509e-08
-5.80088e-08
1.73188e-06
-2.22872e-07
1.98029e-08
-7.3621e-08
1.76337e-06
-2.18348e-07
1.6994e-08
-8.47961e-08
1.82021e-06
-1.68036e-07
2.15762e-08
-9.66136e-08
1.89292e-06
-1.05811e-07
2.93877e-08
-1.12664e-07
1.98353e-06
-5.54709e-08
2.69793e-08
-1.1887e-07
2.08739e-06
-2.32272e-08
2.03689e-08
-1.12369e-07
2.19559e-06
-8.52949e-09
1.43157e-08
-9.92727e-08
2.2949e-06
-5.83347e-09
9.38612e-09
-8.39565e-08
2.37181e-06
-9.43523e-09
7.35131e-09
-7.25427e-08
2.42355e-06
-1.16986e-08
5.21695e-09
-6.39369e-08
2.44595e-06
-1.4481e-08
3.3137e-09
-6.34641e-08
2.45047e-06
-1.85285e-08
2.2653e-09
-7.03002e-08
2.44246e-06
-2.03268e-08
2.24472e-09
-8.25792e-08
2.41603e-06
-2.39377e-08
3.21144e-09
-1.06627e-07
2.38984e-06
-4.19678e-08
4.36756e-09
-1.40356e-07
2.37877e-06
-7.56965e-08
5.61331e-09
-1.75637e-07
2.37968e-06
-1.44455e-07
1.22449e-08
-2.37645e-07
2.40853e-06
-2.39983e-07
2.62568e-08
-3.05978e-07
2.46915e-06
-2.85397e-07
4.37611e-08
-3.54128e-07
2.61624e-06
-2.24537e-07
6.91419e-08
-4.02352e-07
2.94245e-06
-4.65627e-08
1.15556e-07
-4.66831e-07
3.32247e-06
9.47859e-08
1.24131e-07
-4.47651e-07
3.50518e-06
4.7407e-08
6.64133e-08
-2.40617e-07
3.35858e-06
-6.2467e-08
1.81437e-08
-2.55276e-08
3.13493e-06
-2.38177e-07
1.6023e-09
3.40911e-08
2.96204e-06
-4.85992e-08
-2.76628e-08
6.43914e-08
2.84785e-06
-4.67095e-08
-1.19781e-07
8.71804e-08
2.72737e-06
-7.12494e-08
-1.86752e-07
1.29059e-07
2.51331e-06
-1.08197e-07
-2.68969e-07
2.53357e-07
1.73388e-06
-2.16916e-07
-5.89942e-07
8.85302e-07
3.55481e-07
-6.28073e-07
-2.58422e-06
2.27338e-06
-7.49323e-07
-4.18134e-06
2.51634e-06
-2.28915e-07
2.084e-07
1.71306e-06
-1.18716e-06
-2.05495e-07
1.64104e-07
2.7035e-07
-2.84133e-07
-4.97852e-08
9.12059e-08
7.21109e-08
-1.46143e-07
1.10187e-07
1.5421e-08
5.22412e-08
-1.7324e-07
2.86078e-07
1.41998e-08
2.33519e-08
-1.60674e-07
4.12154e-07
-5.66041e-09
5.2326e-09
-1.32835e-07
5.11001e-07
-4.27457e-08
-8.96138e-09
-9.023e-08
6.29525e-07
-1.00038e-07
-1.06703e-08
-7.90963e-08
8.17723e-07
-1.27456e-07
2.368e-09
-9.95596e-08
1.07325e-06
-9.20297e-08
3.71257e-08
-1.6606e-07
1.31466e-06
2.97882e-08
7.02209e-08
-2.28908e-07
1.49353e-06
1.33939e-07
6.59937e-08
-2.28743e-07
1.60952e-06
1.12924e-07
3.24512e-08
-1.71756e-07
1.66947e-06
2.86291e-08
-1.38361e-08
-8.22473e-08
1.67226e-06
-1.51633e-08
-4.69699e-08
1.18987e-08
1.64355e-06
-2.97663e-08
-6.52266e-08
7.19049e-08
1.62181e-06
-6.7735e-08
-6.86776e-08
1.0228e-07
1.64928e-06
-1.32247e-07
-5.54878e-08
9.60993e-08
1.73555e-06
-1.93846e-07
-3.84995e-08
7.73108e-08
1.81402e-06
-1.62441e-07
-2.88542e-08
6.14353e-08
1.84545e-06
-7.29439e-08
-1.92598e-08
4.57148e-08
1.84502e-06
-6.4126e-09
-1.31348e-08
3.47286e-08
1.8303e-06
3.23611e-08
-1.11206e-08
2.91427e-08
1.81477e-06
5.22849e-08
-1.14517e-08
2.90827e-08
1.79768e-06
5.86945e-08
-1.24089e-08
3.02915e-08
1.7643e-06
5.10987e-08
-1.1733e-08
2.73316e-08
1.69032e-06
2.99817e-08
-6.25765e-09
1.83653e-08
1.56448e-06
-1.63736e-08
3.8912e-09
-6.23856e-09
1.44916e-06
-8.8597e-08
1.61651e-08
-3.51186e-08
1.40811e-06
-1.38218e-07
2.34089e-08
-6.24851e-08
1.42863e-06
-1.31532e-07
2.20104e-08
-7.90357e-08
1.49719e-06
-1.0108e-07
1.63818e-08
-8.96786e-08
1.58434e-06
-6.11626e-08
1.19929e-08
-9.34501e-08
1.672e-06
-3.26732e-08
6.54612e-09
-8.47551e-08
1.75234e-06
-2.17613e-08
1.50351e-09
-6.8612e-08
1.81375e-06
-1.71631e-08
-4.72952e-10
-4.96116e-08
1.85124e-06
-1.62685e-08
2.47386e-10
-3.09007e-08
1.8698e-06
-1.77779e-08
4.76523e-10
-1.29633e-08
1.87872e-06
-1.8711e-08
-1.01374e-10
-4.57887e-09
1.88264e-06
-1.66894e-08
-8.16168e-10
-4.95113e-09
1.88271e-06
-9.84572e-09
-9.08893e-10
-9.64209e-09
1.88068e-06
-2.16189e-09
-1.3512e-10
-1.96079e-08
1.87811e-06
7.75757e-11
2.31954e-10
-3.97047e-08
1.86957e-06
-7.32556e-09
3.28515e-10
-6.01639e-08
1.85835e-06
-3.06624e-08
2.82774e-09
-1.054e-07
1.86742e-06
-8.57738e-08
1.27218e-08
-1.76001e-07
1.91949e-06
-1.3018e-07
2.66274e-08
-2.33918e-07
2.09145e-06
-1.42848e-07
3.75516e-08
-2.91198e-07