/*--------------------------------*- C++ -*----------------------------------*\
| =========                 |                                                 |
| \\      /  F ield         | OpenFOAM: The Open Source CFD Toolbox           |
|  \\    /   O peration     | Version:  2.1.1                                 |
|   \\  /    A nd           | Web:      www.OpenFOAM.org                      |
|    \\/     M anipulation  |                                                 |
\*---------------------------------------------------------------------------*/
FoamFile
{
    version     2.0;
    format      ascii;
    class       volSymmTensorField;
    location    "0.0013";
    object      R;
}
// * * * * * * * * * * * * * * * * * * * * * * * * * * * * * * * * * * * * * //

dimensions      [0 2 -2 0 0 0 0];

internalField   nonuniform List<symmTensor> 
36520
(
(0.126541 0.00229672 0.0386511 0.0404885 0.00813351 0.0624727)
(0.246237 -0.0299038 0.0568835 0.0971428 -0.00745815 0.0881803)
(0.459304 -0.0455515 0.12372 0.186371 -0.0187131 0.167568)
(0.556571 -0.0569626 0.164828 0.235957 -0.0300272 0.213647)
(0.649218 -0.058487 0.197811 0.273224 -0.0341441 0.25155)
(0.71314 -0.060003 0.222112 0.300488 -0.0372651 0.280242)
(0.768873 -0.0601812 0.24167 0.321736 -0.0386303 0.302572)
(0.814833 -0.058853 0.257574 0.337987 -0.0393344 0.320421)
(0.858417 -0.0554101 0.272063 0.350922 -0.0387316 0.334849)
(0.898355 -0.0491321 0.286764 0.361574 -0.0367894 0.347767)
(0.929361 -0.0389088 0.300742 0.368212 -0.0316838 0.358193)
(0.945942 -0.0265745 0.312576 0.370498 -0.0240377 0.365649)
(0.939288 -0.0136338 0.318364 0.366204 -0.0136684 0.3672)
(0.909494 -0.00441499 0.316201 0.35525 -0.00336912 0.361807)
(0.859087 -0.000509741 0.304691 0.337422 0.00488243 0.347839)
(0.796946 -0.00283684 0.285405 0.314407 0.00879102 0.326403)
(0.737213 -0.00897753 0.263425 0.291118 0.00853845 0.302572)
(0.68697 -0.0166783 0.242172 0.270001 0.00496126 0.279129)
(0.648184 -0.0228956 0.224502 0.252437 0.00021883 0.258791)
(0.615135 -0.0264895 0.209851 0.237181 -0.00394005 0.24111)
(0.581681 -0.0278287 0.19649 0.222517 -0.0068494 0.224806)
(0.547296 -0.0278591 0.183734 0.208121 -0.00861264 0.209196)
(0.511354 -0.0272293 0.170935 0.193593 -0.00961524 0.193731)
(0.475046 -0.0261144 0.158155 0.179037 -0.0100832 0.17838)
(0.439103 -0.0245767 0.145492 0.164689 -0.0101508 0.163256)
(0.404735 -0.0226522 0.133362 0.150983 -0.00985969 0.148777)
(0.371445 -0.0204388 0.121708 0.137801 -0.0092793 0.134897)
(0.339615 -0.018124 0.110735 0.125301 -0.00848265 0.121885)
(0.309239 -0.0158992 0.100453 0.113497 -0.00758186 0.109773)
(0.280458 -0.0138405 0.0909205 0.102412 -0.00663439 0.0986355)
(0.252975 -0.0120342 0.0820249 0.0919532 -0.0057202 0.0883632)
(0.22688 -0.010561 0.0737352 0.0821619 -0.00491811 0.0789292)
(0.2022 -0.009428 0.0659524 0.0730378 -0.00426659 0.0702192)
(0.179413 -0.0086112 0.0587129 0.0647302 -0.00378666 0.0622477)
(0.158939 -0.00803998 0.0520783 0.057358 -0.00347397 0.055035)
(0.14114 -0.00761219 0.0461651 0.0510035 -0.00329041 0.0486612)
(0.126144 -0.00724128 0.0410396 0.0456999 -0.00319265 0.0431763)
(0.113905 -0.00683856 0.0367207 0.0414138 -0.00314347 0.0385866)
(0.104223 -0.0063136 0.0331702 0.0380546 -0.0030962 0.034831)
(0.0970945 -0.00561665 0.0303934 0.0356228 -0.00302605 0.031901)
(0.0929041 -0.00467621 0.0285026 0.0342888 -0.00289863 0.0298935)
(0.0926561 -0.00338566 0.0277499 0.0345013 -0.00268944 0.0290724)
(0.0981199 -0.00150771 0.0285454 0.037048 -0.00235392 0.0299105)
(0.110639 0.00141068 0.0312098 0.0426272 -0.00174559 0.0327743)
(0.129024 0.00574371 0.0355124 0.0509306 -0.000604089 0.037371)
(0.148793 0.0112328 0.0404685 0.0600134 0.00125082 0.042592)
(0.163817 0.0170993 0.0446914 0.0670786 0.00382059 0.0470038)
(0.160066 0.0207454 0.044529 0.0661555 0.0063614 0.0467518)
(0.133608 0.0199659 0.0385587 0.0553956 0.00744485 0.0404535)
(0.099869 0.0165352 0.0304702 0.0414127 0.0072986 0.032264)
(0.0671055 0.0119608 0.0216072 0.0280437 0.00623714 0.0237632)
(0.0409118 0.00747838 0.0133393 0.0173524 0.0046796 0.0160602)
(0.0231342 0.00398746 0.00698294 0.00989786 0.00301366 0.009953)
(0.0119448 0.00186015 0.00311714 0.00522585 0.00169875 0.00558763)
(0.00545807 0.000771599 0.00119041 0.00257968 0.000877936 0.00279857)
(0.00216687 0.000290821 0.000379536 0.00123178 0.000438873 0.00124692)
(0.000788897 0.000116485 0.000125438 0.000644285 0.00025956 0.000553434)
(0.000272046 5.52709e-05 6.39145e-05 0.000409717 0.000191653 0.000281802)
(0.00017229 1.66586e-06 2.22215e-05 0.00036656 0.0001793 0.000233109)
(0.000214329 -5.46634e-05 2.36286e-05 0.000441733 0.00019615 0.000282337)
(0.0915575 -0.00681482 0.0170708 0.0279283 -0.00114946 0.0281214)
(0.123347 -0.0155112 0.0276435 0.0473111 -0.00413976 0.0411217)
(0.152168 -0.0136845 0.0402311 0.0612672 -0.00593868 0.0553483)
(0.149033 -0.0120874 0.0426199 0.061885 -0.00603224 0.05694)
(0.15043 -0.0100551 0.0439496 0.0624874 -0.00552368 0.0582154)
(0.146756 -0.00880291 0.0437293 0.0612385 -0.00502801 0.057757)
(0.146816 -0.00791587 0.0440807 0.0610643 -0.00456058 0.0578695)
(0.14649 -0.00712762 0.0442318 0.0604203 -0.0041932 0.0577187)
(0.148937 -0.00638917 0.045184 0.0606628 -0.00390454 0.0582379)
(0.14832 -0.0052082 0.045505 0.059681 -0.00350303 0.0577678)
(0.14218 -0.00352519 0.0444342 0.0566227 -0.00270253 0.0554516)
(0.126835 -0.00179164 0.040689 0.0504326 -0.00162868 0.0500848)
(0.103522 -0.000578519 0.0341618 0.0415558 -0.000496539 0.0418644)
(0.0779025 -0.000354799 0.0262378 0.0319204 0.000194484 0.0325233)
(0.0582539 -0.000777944 0.0196498 0.0244715 0.00036867 0.0250379)
(0.0505837 -0.00139611 0.0168106 0.0214981 0.000275453 0.0219382)
(0.048332 -0.00192531 0.0158345 0.0204216 7.93654e-05 0.0207166)
(0.0464524 -0.00223598 0.015088 0.0192993 -0.000191242 0.0193983)
(0.0447879 -0.00233044 0.01437 0.0182351 -0.0004158 0.018183)
(0.043006 -0.00224197 0.013651 0.0171955 -0.000546326 0.0170621)
(0.0408988 -0.00204689 0.012897 0.0161399 -0.00059506 0.0159704)
(0.0386626 -0.00183711 0.0121414 0.0151181 -0.000596048 0.0149138)
(0.0364247 -0.00165274 0.0113963 0.014151 -0.000581938 0.0139034)
(0.0343773 -0.00148869 0.0107093 0.0132819 -0.000558283 0.0129799)
(0.0324484 -0.00133621 0.0100589 0.0124725 -0.000531536 0.0121094)
(0.0307854 -0.00119976 0.00949824 0.0117736 -0.000505608 0.0113469)
(0.0293382 -0.00108494 0.00902044 0.0111686 -0.000484303 0.010682)
(0.0278966 -0.000984073 0.00855982 0.0105753 -0.000461074 0.0100456)
(0.0261174 -0.000883227 0.00800313 0.00986679 -0.000430346 0.00931863)
(0.0239459 -0.000778877 0.00733217 0.00902232 -0.000390188 0.00848829)
(0.0213954 -0.000675275 0.00654481 0.00805391 -0.000344398 0.00756129)
(0.0186567 -0.000578403 0.00568855 0.00703528 -0.000299894 0.00659668)
(0.0160426 -0.000494768 0.00484772 0.0060801 -0.00026264 0.00568666)
(0.0138988 -0.000430434 0.00412185 0.00531093 -0.000238382 0.00493336)
(0.0124566 -0.000386765 0.003586 0.00480854 -0.000228969 0.00440917)
(0.0117456 -0.000359786 0.00325362 0.00458051 -0.000232514 0.00412353)
(0.0116667 -0.000341788 0.00309297 0.00459015 -0.000245565 0.00404138)
(0.0120852 -0.000320697 0.00305413 0.00479114 -0.000264334 0.00411207)
(0.0129198 -0.000282056 0.00309535 0.00515936 -0.000286799 0.00430378)
(0.0142078 -0.000207498 0.00319662 0.00572075 -0.000312923 0.00461965)
(0.0161518 -6.87913e-05 0.00336343 0.00657404 -0.000342873 0.00511065)
(0.0192024 0.000178196 0.00363413 0.00793291 -0.000378357 0.00589665)
(0.0240873 0.000617073 0.0040736 0.0101437 -0.000413434 0.0071812)
(0.0314784 0.00137347 0.00468842 0.0135471 -0.000418488 0.0091729)
(0.0413623 0.00248248 0.0052749 0.0181667 -0.000350086 0.0119244)
(0.0526689 0.00373815 0.00532245 0.0234257 -0.000179812 0.0152609)
(0.0641172 0.00477768 0.00408692 0.0286073 6.79351e-05 0.0190267)
(0.0711968 0.00486204 0.000923226 0.0313394 0.000123367 0.021933)
(0.0730399 0.00388298 -0.00345441 0.030894 -0.000114715 0.0235484)
(0.0724458 0.00255181 -0.00791706 0.0286346 -0.000569303 0.0244721)
(0.0707812 0.0013172 -0.0112684 0.0257279 -0.000935252 0.0250002)
(0.0667578 0.000431337 -0.0119924 0.0225905 -0.000957863 0.0246489)
(0.0561103 0.000152164 -0.00927302 0.0179829 -0.000718622 0.0212785)
(0.0380063 0.000321499 -0.00501093 0.0118725 -0.000447413 0.0146999)
(0.0213483 0.000361474 -0.00214052 0.00681071 -0.000257797 0.00853565)
(0.0103681 0.00021141 -0.000901759 0.00346401 -0.000128689 0.00431027)
(0.00398232 6.52429e-05 -0.000331658 0.00135109 -2.4821e-05 0.00168229)
(0.000853148 3.89447e-06 -7.15851e-05 0.000292799 1.21837e-05 0.000367999)
(9.94606e-05 -9.11115e-06 -1.01167e-05 5.35155e-05 7.60009e-06 6.95124e-05)
(9.23437e-05 -5.20167e-05 -1.36216e-05 0.000119328 1.80085e-05 0.000126686)
(0.047293 -0.00313393 0.00497115 0.0129926 -0.0005241 0.0128212)
(0.0389041 -0.00480594 0.00799367 0.0148618 -0.00137337 0.0129915)
(0.0402321 -0.00335631 0.0102141 0.0161513 -0.00160491 0.0147537)
(0.0338928 -0.00237173 0.00931967 0.0140328 -0.00127954 0.0130439)
(0.0308135 -0.00174523 0.00865348 0.0128043 -0.0010709 0.0120395)
(0.027048 -0.00135858 0.0077018 0.011312 -0.00085714 0.0107423)
(0.0254908 -0.00117346 0.00726617 0.0106717 -0.000727206 0.0101587)
(0.0241567 -0.00104106 0.0068644 0.0100795 -0.000629664 0.0096557)
(0.0240823 -0.000964983 0.00679894 0.0099806 -0.000580293 0.00959656)
(0.0233511 -0.000816083 0.00656077 0.00962621 -0.000509287 0.00934926)
(0.0213495 -0.000606998 0.00589942 0.00881929 -0.000373961 0.00866136)
(0.0176336 -0.000448654 0.00459065 0.00745269 -0.000196257 0.00739147)
(0.0133117 -0.000475613 0.00279702 0.00595418 -2.25981e-05 0.00591282)
(0.0103833 -0.000755004 0.0010281 0.00507771 0.000105183 0.00497885)
(0.0102785 -0.0012697 -0.000328596 0.00538081 0.000227591 0.00519475)
(0.0133737 -0.00212444 -0.0013672 0.00702517 0.000392284 0.00673803)
(0.0133039 -0.0022854 -0.00144628 0.00683347 0.000390867 0.00651892)
(0.00788197 -0.00115724 -0.000199556 0.0039033 0.000130779 0.00370493)
(0.00466329 -0.000412744 0.000601095 0.0021433 -3.29128e-05 0.00204271)
(0.00380883 -0.00021621 0.000774064 0.00165556 -7.42265e-05 0.00159101)
(0.00356152 -0.000164533 0.000766303 0.00151201 -8.36402e-05 0.00146994)
(0.00344333 -0.000140485 0.000733919 0.00144792 -8.73672e-05 0.00142088)
(0.00337749 -0.000127117 0.000699363 0.00141597 -9.08917e-05 0.00139753)
(0.00336172 -0.000119051 0.00067144 0.0014097 -9.53581e-05 0.00139364)
(0.00336082 -0.000112982 0.000645706 0.00141133 -0.000100107 0.00139325)
(0.00338141 -0.000107804 0.000626129 0.001422 -0.000105404 0.00139824)
(0.0034262 -0.000104318 0.000611409 0.00144375 -0.000111378 0.00141214)
(0.00349357 -0.000103613 0.000591323 0.00147744 -0.000118052 0.00143943)
(0.00351574 -0.00010304 0.000545829 0.00149734 -0.000124821 0.00145689)
(0.00347739 -0.00010155 0.000471172 0.00149742 -0.000131792 0.0014606)
(0.00339463 -0.000100587 0.000368233 0.00148501 -0.000140008 0.00145861)
(0.00331284 -0.000101557 0.000246075 0.00147736 -0.000150848 0.00146749)
(0.00329695 -0.000106075 0.000121438 0.00149848 -0.000165697 0.00150787)
(0.00340757 -0.000115429 1.26688e-05 0.00157022 -0.000185614 0.00159644)
(0.00367011 -0.000129295 -7.08743e-05 0.00170154 -0.000211108 0.00173589)
(0.00408638 -0.000146823 -0.000132692 0.00189319 -0.000242085 0.00192183)
(0.00465924 -0.000167791 -0.000182792 0.00214931 -0.000278429 0.00215238)
(0.00541141 -0.000191562 -0.000231442 0.00248142 -0.000320705 0.00243382)
(0.00638938 -0.000216761 -0.000292513 0.00291254 -0.000372199 0.00278388)
(0.00769284 -0.000239423 -0.000383089 0.00349156 -0.000439615 0.00323696)
(0.0095229 -0.000255968 -0.000533157 0.00431632 -0.000536937 0.00386412)
(0.0122508 -0.000260535 -0.000790298 0.00556659 -0.000688576 0.00479332)
(0.0165154 -0.00023767 -0.00123995 0.00754858 -0.00093292 0.00623795)
(0.0232235 -0.000175418 -0.00206652 0.0107047 -0.00131464 0.00850876)
(0.0334976 -0.000136298 -0.0036394 0.0155691 -0.00187305 0.0120121)
(0.0488137 -0.000314153 -0.00662971 0.0227131 -0.00264155 0.0172585)
(0.0717339 -0.000983018 -0.0120796 0.0330222 -0.00369166 0.0251355)
(0.107049 -0.00261646 -0.0214833 0.0481304 -0.00518455 0.0371324)
(0.15208 -0.00512147 -0.0335781 0.0653059 -0.00690432 0.0517195)
(0.197481 -0.00755884 -0.0446245 0.0787775 -0.0083641 0.0649648)
(0.236251 -0.00924981 -0.0517505 0.0856014 -0.00876729 0.0752567)
(0.241839 -0.00885943 -0.0492218 0.0805251 -0.00733983 0.0757005)
(0.189021 -0.00562176 -0.0339354 0.058867 -0.0047714 0.059131)
(0.122188 -0.00158217 -0.0175179 0.0367065 -0.00284243 0.0383724)
(0.0690556 0.000708824 -0.00746095 0.0211334 -0.00168742 0.0222667)
(0.0362246 0.0010544 -0.00308447 0.0117155 -0.000949281 0.0123369)
(0.0158833 0.000536655 -0.0011763 0.00521949 -0.000313977 0.00568518)
(0.00426503 0.000121904 -0.000294436 0.00139135 9.09528e-06 0.00158355)
(0.000470715 -4.4231e-06 -3.63547e-05 0.000158933 1.19717e-05 0.000186465)
(0.000107859 -5.51217e-05 -2.59443e-05 0.000115911 2.19016e-05 0.0001205)
(0.0247445 -0.00141228 0.000711456 0.00613532 -0.000455881 0.00631739)
(0.0124904 -0.00160733 0.00243128 0.0047324 -0.000490306 0.00419598)
(0.0106592 -0.000859084 0.00255628 0.00427731 -0.00044077 0.00395292)
(0.00784988 -0.000539033 0.00196859 0.00331126 -0.000295005 0.00310218)
(0.00662668 -0.000396944 0.00157589 0.00289392 -0.000226624 0.00273333)
(0.00566196 -0.000349735 0.00115818 0.00260544 -0.000161751 0.00246638)
(0.0056325 -0.000400035 0.000884579 0.0027257 -0.000132653 0.00257595)
(0.00607687 -0.000521851 0.000597799 0.00306935 -0.000119183 0.00291574)
(0.00741173 -0.000739494 0.000332889 0.00382278 -0.000133521 0.00366328)
(0.00953926 -0.00106801 -8.5183e-05 0.00497589 -0.000163093 0.00484089)
(0.0131016 -0.00161312 -0.000834297 0.00689413 -0.000198513 0.0067827)
(0.019311 -0.0026131 -0.00219321 0.0102559 -0.000199584 0.010133)
(0.0305932 -0.00454426 -0.00459316 0.0163893 -5.5034e-05 0.0160857)
(0.0497662 -0.00819797 -0.00864708 0.0268249 0.000491715 0.0259423)
(0.0788717 -0.0144966 -0.0151042 0.0423119 0.00167933 0.0403263)
(0.121407 -0.0247624 -0.0250138 0.0634304 0.00347819 0.0598339)
(0.120371 -0.0265525 -0.0264697 0.0618492 0.00395174 0.0577823)
(0.0613703 -0.0141661 -0.0144316 0.0318393 0.00204604 0.0296645)
(0.0194278 -0.00432483 -0.00472152 0.0101774 0.000457161 0.00975388)
(0.00665579 -0.00123737 -0.00153933 0.00348635 2.42952e-05 0.0035447)
(0.00410635 -0.000614572 -0.000894188 0.00214125 -5.64842e-05 0.00228217)
(0.0037413 -0.000493644 -0.000814463 0.00193131 -8.41545e-05 0.00211364)
(0.00388815 -0.000482612 -0.000870669 0.00198505 -0.00010437 0.00220729)
(0.00418319 -0.00049823 -0.000964804 0.00211248 -0.000125059 0.00237324)
(0.00445207 -0.000506331 -0.00104705 0.00222533 -0.000146692 0.00251491)
(0.0045797 -0.000485864 -0.001077 0.00226708 -0.000169759 0.00256387)
(0.00460698 -0.000450632 -0.00106246 0.00226248 -0.000192686 0.00254562)
(0.0048483 -0.000456767 -0.00110491 0.00236646 -0.000215123 0.00264497)
(0.00544227 -0.000522798 -0.00125682 0.00264141 -0.000239608 0.00294059)
(0.00614651 -0.000608455 -0.00144382 0.00296519 -0.0002659 0.00329974)
(0.00695226 -0.000713408 -0.00166299 0.00333286 -0.000294363 0.00372436)
(0.0078443 -0.000834949 -0.00190807 0.0037341 -0.000325877 0.00421046)
(0.00874281 -0.000958992 -0.00215226 0.00412893 -0.000362154 0.00471805)
(0.00950894 -0.00106099 -0.00234873 0.00445272 -0.000406406 0.00516728)
(0.010005 -0.00111279 -0.00244987 0.00464493 -0.000464887 0.00546937)
(0.0102554 -0.0011081 -0.00245741 0.00471699 -0.000545656 0.00561649)
(0.0104494 -0.00107396 -0.00242182 0.00476262 -0.000647386 0.00569729)
(0.0108539 -0.00105966 -0.00241563 0.0049106 -0.000763988 0.00585028)
(0.011648 -0.00110296 -0.00248975 0.00524141 -0.000889419 0.00616075)
(0.0128179 -0.001195 -0.00264008 0.00574725 -0.00103013 0.00661349)
(0.0144932 -0.00134824 -0.00290408 0.00649084 -0.00120017 0.00728199)
(0.0168755 -0.00157645 -0.0033212 0.00757752 -0.00142991 0.00826336)
(0.0203795 -0.00188751 -0.00394729 0.00920831 -0.00179691 0.00970379)
(0.0258334 -0.00234166 -0.00494318 0.0117844 -0.00240109 0.0119595)
(0.0343748 -0.00310089 -0.00662812 0.0159216 -0.00334288 0.0155366)
(0.0476762 -0.00453471 -0.00947829 0.0224698 -0.00474203 0.0210495)
(0.0688883 -0.00705189 -0.0144492 0.0326744 -0.00674438 0.0295901)
(0.10527 -0.0117769 -0.0234164 0.0492757 -0.0096496 0.0436495)
(0.179083 -0.0214623 -0.0423488 0.0817914 -0.014221 0.0717546)
(0.300209 -0.0378131 -0.069709 0.127333 -0.0189255 0.11278)
(0.460035 -0.0571922 -0.101514 0.173107 -0.0204138 0.161488)
(0.551065 -0.0572673 -0.109068 0.185088 -0.0203326 0.17882)
(0.480269 -0.0351418 -0.0810416 0.146647 -0.0175918 0.144354)
(0.300103 -0.0121414 -0.0426297 0.0870787 -0.0112666 0.0854738)
(0.174976 -0.000999131 -0.0208482 0.051943 -0.00706 0.0490924)
(0.0960419 0.00259605 -0.00915052 0.0300312 -0.0041245 0.0280193)
(0.0471202 0.00201857 -0.00355013 0.0149916 -0.00162413 0.0146873)
(0.0151249 0.000689146 -0.000865546 0.00480146 -0.000123771 0.00506956)
(0.00201875 3.49052e-05 -0.000119395 0.000637065 3.97698e-05 0.000701831)
(0.000213865 -8.35624e-05 -5.28326e-05 0.000156747 3.48323e-05 0.00015661)
(0.014213 -0.000834709 -0.000404572 0.00341994 -0.000241149 0.00379675)
(0.0043236 -0.000563357 0.000691558 0.0017263 -0.000185245 0.00161293)
(0.00349558 -0.00033558 0.000487245 0.00162199 -0.000141798 0.00154115)
(0.00332982 -0.000366606 0.000153857 0.00179791 -0.000112396 0.00172729)
(0.00457476 -0.000569511 -0.000162854 0.00266088 -0.000135705 0.00256885)
(0.00727917 -0.00102252 -0.00064723 0.00437432 -0.000179219 0.00422821)
(0.012226 -0.0018873 -0.00141187 0.0073485 -0.000264189 0.00708796)
(0.020466 -0.00338717 -0.00266992 0.0120521 -0.000425665 0.0116724)
(0.0338397 -0.00581667 -0.00471274 0.0192281 -0.00077283 0.0188244)
(0.0561683 -0.00973836 -0.00814493 0.0305521 -0.00140355 0.0304573)
(0.0948355 -0.0162877 -0.0143165 0.0496096 -0.00239792 0.0501965)
(0.16285 -0.0279358 -0.0257142 0.0829602 -0.00355533 0.0842612)
(0.280232 -0.0493124 -0.0468208 0.141275 -0.00404964 0.141704)
(0.464538 -0.0871841 -0.0827327 0.23448 -0.00168294 0.229075)
(0.710618 -0.144749 -0.134985 0.358415 0.00574716 0.340354)
(1.01005 -0.222575 -0.202502 0.49909 0.0164379 0.465024)
(0.978386 -0.227551 -0.207036 0.480223 0.0215745 0.439502)
(0.572444 -0.138756 -0.130524 0.287357 0.014994 0.26008)
(0.224753 -0.0545266 -0.0552872 0.115159 0.00529809 0.106429)
(0.0855637 -0.0194121 -0.0221293 0.044008 0.00134588 0.0428659)
(0.0484943 -0.0102023 -0.0130567 0.0251917 0.000491652 0.0256984)
(0.0420515 -0.00841753 -0.0117704 0.0219047 0.00030604 0.0230948)
(0.0444311 -0.00862134 -0.0128536 0.0229493 0.000235291 0.024815)
(0.049593 -0.00936683 -0.0147623 0.0252713 0.000156768 0.0279144)
(0.0539792 -0.00986873 -0.0164677 0.0271249 2.63777e-05 0.0304972)
(0.0551366 -0.00957077 -0.0171567 0.0273101 -0.000173757 0.03111)
(0.0529422 -0.00854049 -0.0166869 0.0258732 -0.000400994 0.0296394)
(0.0527821 -0.00798555 -0.0166634 0.0255104 -0.000556989 0.0290692)
(0.0581156 -0.00861886 -0.01821 0.0278784 -0.000627485 0.0313538)
(0.070287 -0.0106395 -0.0218117 0.0334764 -0.000639716 0.0371046)
(0.0857574 -0.0133817 -0.026313 0.040536 -0.000550982 0.0443333)
(0.104525 -0.0168988 -0.0316783 0.048978 -0.000317124 0.0530419)
(0.124634 -0.0209243 -0.0372725 0.0578566 9.92909e-05 0.0623868)
(0.141727 -0.0247063 -0.0418132 0.0651903 0.000667419 0.0704401)
(0.150557 -0.0272828 -0.0438688 0.0687492 0.00126318 0.0749256)
(0.149953 -0.0282495 -0.043263 0.0680642 0.00164429 0.0751715)
(0.144424 -0.0283777 -0.0413483 0.0651515 0.00181573 0.0728027)
(0.122533 -0.0246632 -0.0352259 0.0548178 0.00164833 0.0625167)
(0.0978603 -0.0197329 -0.0284461 0.043197 0.00124615 0.0508208)
(0.0718775 -0.0140934 -0.0212147 0.0311472 0.000602403 0.0382846)
(0.0509372 -0.00934606 -0.0151756 0.0215897 -0.000168058 0.0278928)
(0.0416584 -0.00728228 -0.0121634 0.0174734 -0.000714621 0.0230056)
(0.0408045 -0.00717837 -0.0113482 0.017186 -0.00113146 0.0220688)
(0.0430444 -0.00748682 -0.011234 0.0181994 -0.00180686 0.0225585)
(0.0490439 -0.00838224 -0.0121019 0.0208695 -0.0027109 0.0250944)
(0.0589821 -0.0100176 -0.0139031 0.0254583 -0.00397824 0.0296866)
(0.0757202 -0.0133976 -0.0170244 0.0333841 -0.00572531 0.037199)
(0.103711 -0.0197089 -0.0222595 0.0467051 -0.00809744 0.0490551)
(0.15322 -0.0308343 -0.0319752 0.0698608 -0.0112648 0.0690821)
(0.234383 -0.0496854 -0.0483045 0.103326 -0.0137518 0.100274)
(0.378371 -0.0806717 -0.0764919 0.150476 -0.0121738 0.149559)
(0.514172 -0.0968793 -0.0957601 0.182794 -0.0133256 0.186059)
(0.588683 -0.0837187 -0.103056 0.187287 -0.0197503 0.198187)
(0.565437 -0.0480406 -0.0917629 0.167243 -0.0250957 0.177966)
(0.3771 -0.0118774 -0.0503227 0.110995 -0.0206096 0.10972)
(0.218742 0.00369777 -0.0235903 0.0672723 -0.0130219 0.0604662)
(0.116697 0.00516487 -0.00966363 0.0359034 -0.00594215 0.0324147)
(0.0412888 0.00243943 -0.00205259 0.0126901 -0.000909225 0.0124534)
(0.00678276 0.000256272 -0.000278569 0.00210001 9.7604e-05 0.00219092)
(0.000585811 -0.000173979 -0.000126755 0.000299863 6.43574e-05 0.000289789)
(0.010412 -0.000731457 -0.000728283 0.00269682 -0.000455434 0.0032567)
(0.00385763 -0.000592661 -0.00011814 0.00207431 -0.000142725 0.0020757)
(0.00687426 -0.00106815 -0.000638356 0.00408952 -0.000212018 0.00404329)
(0.0135062 -0.00228244 -0.00162353 0.00823055 -0.000388717 0.00810222)
(0.0259672 -0.00456519 -0.00347107 0.0157814 -0.000745748 0.0154715)
(0.0482365 -0.00897005 -0.0068859 0.0291301 -0.0012357 0.0283692)
(0.0850413 -0.01705 -0.0128117 0.0507535 -0.00190136 0.0487963)
(0.144536 -0.0308752 -0.022353 0.0837507 -0.00308314 0.0803799)
(0.238551 -0.0527229 -0.0374058 0.131878 -0.00554198 0.128382)
(0.396057 -0.0879313 -0.0621472 0.206527 -0.0104441 0.20685)
(0.667384 -0.146145 -0.106006 0.329485 -0.0190017 0.340705)
(1.14092 -0.248116 -0.185339 0.540706 -0.0312484 0.57024)
(1.92582 -0.425402 -0.323401 0.891617 -0.0450697 0.938779)
(3.07535 -0.708126 -0.533177 1.41241 -0.0509407 1.45057)
(4.3816 -1.0504 -0.783132 2.01112 -0.0362561 1.99247)
(5.50245 -1.34859 -1.01651 2.50997 -0.00621834 2.40386)
(5.26737 -1.30561 -1.02052 2.42025 0.0257336 2.23231)
(3.61541 -0.915913 -0.760351 1.72385 0.0408236 1.53979)
(1.88911 -0.484396 -0.438666 0.935306 0.0272873 0.838823)
(0.972873 -0.239819 -0.242922 0.484155 0.0118972 0.454866)
(0.640975 -0.151441 -0.166945 0.319927 0.00679067 0.312732)
(0.55421 -0.128552 -0.149238 0.278544 0.00599674 0.279247)
(0.553004 -0.12725 -0.153518 0.278269 0.00623781 0.285358)
(0.585907 -0.133411 -0.167464 0.293099 0.00637358 0.307798)
(0.613208 -0.13762 -0.180261 0.304218 0.00578027 0.327211)
(0.618875 -0.1353 -0.186776 0.303949 0.00426618 0.33442)
(0.600179 -0.126082 -0.185922 0.291997 0.00195606 0.327308)
(0.592062 -0.11828 -0.187328 0.285272 -0.000553632 0.322741)
(0.613035 -0.117139 -0.195806 0.292981 -0.0025891 0.329857)
(0.685084 -0.128294 -0.218237 0.325193 -0.00388849 0.361003)
(0.825359 -0.156328 -0.258765 0.38968 -0.0045904 0.42449)
(1.01761 -0.196681 -0.311076 0.476946 -0.004739 0.508478)
(1.25201 -0.248188 -0.369596 0.580736 -0.0035487 0.605057)
(1.48359 -0.302067 -0.420936 0.679259 -0.00021368 0.693947)
(1.63596 -0.34319 -0.447463 0.739601 0.00572386 0.745595)
(1.65478 -0.358832 -0.442583 0.743087 0.0128091 0.744988)
(1.58011 -0.355421 -0.418897 0.709063 0.0189684 0.712159)
(1.3951 -0.324127 -0.370279 0.62629 0.0231549 0.634432)
(1.18728 -0.282204 -0.317596 0.531247 0.0252516 0.547328)
(0.960828 -0.231713 -0.261793 0.427269 0.0256443 0.451979)
(0.709094 -0.172498 -0.199972 0.31307 0.0229169 0.343571)
(0.509169 -0.123879 -0.150692 0.222746 0.0199045 0.255599)
(0.305388 -0.0738684 -0.0968033 0.132773 0.0144466 0.161242)
(0.169108 -0.0396119 -0.0577653 0.0726963 0.00819057 0.0942829)
(0.153569 -0.0358473 -0.0522395 0.0661194 0.00672646 0.0860666)
(0.153762 -0.0351294 -0.0519674 0.0659383 0.00564867 0.0862512)
(0.160151 -0.0362754 -0.0528648 0.0685985 0.00414779 0.0894437)
(0.172847 -0.0396955 -0.0534067 0.0749292 0.00105199 0.0939841)
(0.197661 -0.0468263 -0.0554484 0.0878168 -0.00394076 0.104405)
(0.260614 -0.065563 -0.065025 0.115412 -0.00767508 0.132669)
(0.357753 -0.0922333 -0.0765449 0.149609 -0.00840259 0.166696)
(0.457829 -0.108997 -0.0929503 0.177466 -0.00969097 0.199394)
(0.522337 -0.102833 -0.112111 0.189813 -0.0146333 0.224542)
(0.536672 -0.079397 -0.118373 0.185713 -0.0231521 0.223105)
(0.504872 -0.0478291 -0.102874 0.166804 -0.0302993 0.190667)
(0.421982 -0.0139896 -0.0620073 0.130923 -0.0291177 0.13378)
(0.26583 0.00783822 -0.0237267 0.0800131 -0.016177 0.0735008)
(0.0953956 0.00630676 -0.00439924 0.0284661 -0.0033883 0.0264296)
(0.018567 0.00108003 -0.000419212 0.0056456 0.000118917 0.00558144)
(0.00164699 -0.000400511 -0.000301759 0.000689269 0.000128212 0.000651256)
(0.0184602 -0.00251775 -0.00252992 0.00691915 -0.000575967 0.00844315)
(0.0203539 -0.00327362 -0.00235139 0.0117836 -0.000647509 0.0127075)
(0.0447776 -0.00885501 -0.00660782 0.0266929 -0.00139087 0.0277504)
(0.0902124 -0.0193959 -0.014711 0.0534075 -0.00232942 0.055249)
(0.168741 -0.0387037 -0.0300441 0.0986305 -0.00279114 0.0995069)
(0.300141 -0.0739967 -0.0566483 0.175745 -0.000647299 0.170498)
(0.496585 -0.131703 -0.0974441 0.291443 0.00324227 0.270198)
(0.779121 -0.216858 -0.152547 0.449867 0.00542123 0.408224)
(1.16873 -0.33002 -0.225065 0.647502 0.00229771 0.597705)
(1.77716 -0.49519 -0.331554 0.923456 -0.0110919 0.892324)
(2.75808 -0.746309 -0.505339 1.34159 -0.0341902 1.37228)
(4.3667 -1.15319 -0.795051 2.01647 -0.065835 2.15812)
(6.81235 -1.78246 -1.23438 3.03923 -0.11241 3.32334)
(9.99107 -2.61139 -1.78955 4.36108 -0.176113 4.73979)
(13.0785 -3.41067 -2.32083 5.62619 -0.22293 5.98685)
(14.8048 -3.86265 -2.61709 6.33144 -0.213185 6.54065)
(14.8815 -3.90771 -2.64216 6.42482 -0.15841 6.35002)
(12.9032 -3.4184 -2.39888 5.77826 -0.0948454 5.42127)
(9.34501 -2.51348 -1.93002 4.41658 -0.0255161 4.00294)
(6.49214 -1.72885 -1.48465 3.12494 0.0124276 2.87841)
(5.09032 -1.31708 -1.22805 2.43262 0.0271452 2.30494)
(4.46683 -1.13995 -1.10598 2.13548 0.038143 2.04578)
(4.13635 -1.0552 -1.04488 1.98906 0.0479889 1.9181)
(3.91354 -0.999945 -1.01078 1.89002 0.0531617 1.84695)
(3.71143 -0.949034 -0.981791 1.79583 0.0520134 1.79381)
(3.509 -0.895471 -0.948494 1.69627 0.0460206 1.74049)
(3.30061 -0.840225 -0.911779 1.59441 0.0386891 1.67662)
(3.14231 -0.796606 -0.886412 1.51827 0.0303095 1.62677)
(3.04134 -0.766778 -0.868308 1.47123 0.0187437 1.58851)
(3.06212 -0.766522 -0.873438 1.48131 0.00489352 1.59322)
(3.24741 -0.808432 -0.913829 1.56619 -0.00809791 1.66646)
(3.61703 -0.899842 -0.997603 1.73691 -0.0188524 1.82205)
(4.15889 -1.03702 -1.11635 1.98461 -0.0268211 2.04375)
(4.78772 -1.19437 -1.24534 2.26227 -0.0310535 2.28412)
(5.40594 -1.34999 -1.36088 2.52334 -0.0287836 2.49908)
(5.84162 -1.46744 -1.42661 2.69868 -0.0171973 2.62128)
(5.97331 -1.51821 -1.42081 2.73691 0.00308833 2.6195)
(5.67439 -1.47111 -1.32545 2.59175 0.0253381 2.45659)
(5.10877 -1.35689 -1.18445 2.33437 0.0459704 2.20198)
(4.4778 -1.20951 -1.04018 2.04024 0.0659481 1.93036)
(3.71165 -1.01845 -0.878 1.68758 0.079097 1.6167)
(3.03335 -0.835229 -0.74445 1.36941 0.0861505 1.3491)
(2.32985 -0.641431 -0.609092 1.04734 0.0892209 1.07604)
(1.5138 -0.421676 -0.435158 0.688907 0.0758281 0.744017)
(1.00979 -0.286049 -0.3177 0.468794 0.0616339 0.530308)
(0.760685 -0.212395 -0.256418 0.35357 0.051592 0.418293)
(0.584943 -0.153764 -0.208567 0.265939 0.0407105 0.330403)
(0.44062 -0.105072 -0.162388 0.191414 0.0258076 0.250657)
(0.383481 -0.0874366 -0.136806 0.163406 0.0143001 0.214691)
(0.368618 -0.0854002 -0.122362 0.159764 0.0042327 0.207307)
(0.371249 -0.0901046 -0.112848 0.172482 -0.00793228 0.216768)
(0.381759 -0.0889551 -0.116008 0.182112 -0.0154036 0.231405)
(0.396196 -0.0846149 -0.119294 0.181831 -0.0143724 0.225731)
(0.40335 -0.0746441 -0.109332 0.173707 -0.0144696 0.206371)
(0.389786 -0.0573443 -0.088411 0.155006 -0.0162822 0.17641)
(0.362876 -0.0327479 -0.0603627 0.12969 -0.0185109 0.140269)
(0.332642 -0.00288858 -0.0309808 0.103102 -0.0183553 0.104485)
(0.192199 0.0105171 -0.00894678 0.0561376 -0.00821685 0.053227)
(0.0437193 0.00328472 -0.000308985 0.0130463 -0.000129691 0.0124241)
(0.00421521 -0.000852737 -0.000614775 0.00157286 0.000237856 0.00145594)
(0.0650719 -0.0112802 -0.00709892 0.0342313 -0.0134811 0.0387229)
(0.0926479 -0.0242929 -0.0118228 0.0555045 -0.00403999 0.0607871)
(0.201785 -0.0632891 -0.0340584 0.122661 0.0068027 0.124362)
(0.407864 -0.133984 -0.0729332 0.242166 0.0175469 0.245763)
(0.747525 -0.254646 -0.14117 0.432607 0.0338689 0.428941)
(1.30646 -0.451458 -0.250285 0.741859 0.0483354 0.726697)
(1.99167 -0.697242 -0.401331 1.14244 0.0632265 1.09109)
(2.88946 -1.00561 -0.606643 1.65815 0.082111 1.53529)
(3.74284 -1.28306 -0.828843 2.13712 0.111381 1.94779)
(4.61971 -1.527 -1.06594 2.56166 0.148235 2.34504)
(6.14477 -1.93177 -1.43569 3.18963 0.202295 3.02133)
(8.32364 -2.49584 -1.91879 4.04193 0.247715 3.9914)
(10.9 -3.12946 -2.43242 5.05479 0.2243 5.13865)
(13.54 -3.70648 -2.89801 6.08931 0.088692 6.30048)
(16.1092 -4.20591 -3.29553 7.0622 -0.117473 7.41113)
(18.2127 -4.63813 -3.5991 7.88194 -0.2936 8.33093)
(19.3975 -5.00936 -3.76957 8.47202 -0.381855 8.86817)
(19.4374 -5.20897 -3.86273 8.75797 -0.387433 8.90802)
(18.6222 -5.11139 -3.88869 8.70101 -0.326478 8.54478)
(17.6729 -4.82266 -3.86594 8.33137 -0.213939 8.03569)
(16.7614 -4.45386 -3.77491 7.76999 -0.110667 7.48998)
(15.833 -4.10543 -3.59205 7.22689 -0.0661035 6.94858)
(14.7066 -3.78024 -3.31054 6.67895 -0.0559844 6.3525)
(13.2739 -3.4315 -2.96892 6.05011 -0.0447151 5.68475)
(11.6179 -3.04944 -2.6235 5.34584 -0.02017 5.01403)
(10.1209 -2.71184 -2.34167 4.71433 0.0117991 4.49293)
(9.08429 -2.48689 -2.16098 4.28988 0.0456826 4.19636)
(8.40614 -2.34939 -2.05168 4.02448 0.0837451 4.02045)
(7.96728 -2.27017 -1.9923 3.86158 0.121478 3.89651)
(7.68419 -2.22902 -1.95278 3.76223 0.148038 3.79502)
(7.59705 -2.23247 -1.92887 3.74027 0.154158 3.74526)
(7.69683 -2.27993 -1.92151 3.79303 0.142241 3.76554)
(7.96429 -2.36703 -1.93683 3.91388 0.121482 3.85122)
(8.36872 -2.47969 -1.97369 4.08538 0.0934425 3.98558)