/*--------------------------------*- C++ -*----------------------------------*\
| =========                 |                                                 |
| \\      /  F ield         | OpenFOAM: The Open Source CFD Toolbox           |
|  \\    /   O peration     | Version:  2.1.1                                 |
|   \\  /    A nd           | Web:      www.OpenFOAM.org                      |
|    \\/     M anipulation  |                                                 |
\*---------------------------------------------------------------------------*/
FoamFile
{
    version     2.0;
    format      ascii;
    class       volScalarField;
    location    "0.0013";
    object      TLS;
}
// * * * * * * * * * * * * * * * * * * * * * * * * * * * * * * * * * * * * * //

dimensions      [0 1 0 0 0 0 0];

internalField   nonuniform List<scalar> 
36520
(
0.0003608
0.000307915
0.00026291
0.000249331
0.000239934
0.000234202
0.000229922
0.000226724
0.000224062
0.000221831
0.000220274
0.000219543
0.000220036
0.000221789
0.000224879
0.000229066
0.000233476
0.000237695
0.000241355
0.000244843
0.000248592
0.000252666
0.000257217
0.000262215
0.000267654
0.000273429
0.000279654
0.000286276
0.000293347
0.000300877
0.000308984
0.000317713
0.000327146
0.000337187
0.000347657
0.000358243
0.000368572
0.000378248
0.000386941
0.00039413
0.000398877
0.000399609
0.000394393
0.000383022
0.000368633
0.000355688
0.000347175
0.000349446
0.00036555
0.000392644
0.00043211
0.000486515
0.000558418
0.00065608
0.000792355
0.000985224
0.00122307
0.00145035
0.00151427
0.00143872
0.000584422
0.000312159
0.000289369
0.000279439
0.000271731
0.000267033
0.00026263
0.000258643
0.0002542
0.000250535
0.000248467
0.000249279
0.000254645
0.000266645
0.000284816
0.000293739
0.000297368
0.000306095
0.000313421
0.000319477
0.000325146
0.000330387
0.000335199
0.00033938
0.000343329
0.000346716
0.000349339
0.000351642
0.000355049
0.000359846
0.000366326
0.000374556
0.000384315
0.000394619
0.000403676
0.000409676
0.000411798
0.000410365
0.000405904
0.000398531
0.000388128
0.000374669
0.00035848
0.000340073
0.00031969
0.000297057
0.000271579
0.0002476
0.000227679
0.000213537
0.000205248
0.000201934
0.000203001
0.000205813
0.000210064
0.000215321
0.000228711
0.000261368
0.000405361
0.00268314
0.000696856
0.000332913
0.000312661
0.000303492
0.000295862
0.000290886
0.000285098
0.000278863
0.000271134
0.000263125
0.000254407
0.000242536
0.000221672
0.000191328
0.000166076
0.000153768
0.000155321
0.000181621
0.000260158
0.00034985
0.00038168
0.000388847
0.000389026
0.000386657
0.000383856
0.000381074
0.000377668
0.00037254
0.000366839
0.00036075
0.000353726
0.000345539
0.00033682
0.000328873
0.000322589
0.000317701
0.000313371
0.000308952
0.000304042
0.00029844
0.000291853
0.000284022
0.000274579
0.000263079
0.00024937
0.000233827
0.000217464
0.000201709
0.00019072
0.00018477
0.000182676
0.000184061
0.00019132
0.000203013
0.000212473
0.000219888
0.000230359
0.000255964
0.000314183
0.00271844
0.000825361
0.000350121
0.000326841
0.000308017
0.000285169
0.000257831
0.00023233
0.000209695
0.00019282
0.000178403
0.000166189
0.000156536
0.000149702
0.00014476
0.00014038
0.0001368
0.000136383
0.000142258
0.000156333
0.000184864
0.000221378
0.000241969
0.000249154
0.000251592
0.000254033
0.000258983
0.000265604
0.000267229
0.000262368
0.000257149
0.000252232
0.000247926
0.000244705
0.000243094
0.000243671
0.000246754
0.000251952
0.000257327
0.000260292
0.000261111
0.000259557
0.000256072
0.000251412
0.000245332
0.000237481
0.000227844
0.000216639
0.000204219
0.000189581
0.000179034
0.00016583
0.000151715
0.000159463
0.000188269
0.000208176
0.00022288
0.00023185
0.000253279
0.000304465
0.0025376
0.000947541
0.000305613
0.000252243
0.000210295
0.000189768
0.000178286
0.000171616
0.000166727
0.000162239
0.000157627
0.000153308
0.000149397
0.000145829
0.000142285
0.000138462
0.000133578
0.000132399
0.000136975
0.000146794
0.000160881
0.000177518
0.000189347
0.000194637
0.000196771
0.000198795
0.000201961
0.000206831
0.000210567
0.00021032
0.000206694
0.000202935
0.000199184
0.000195516
0.000191976
0.000188613
0.000185421
0.000182075
0.000181329
0.000182793
0.000188743
0.000202956
0.000218655
0.000224242
0.000226157
0.000225127
0.000222653
0.000217885
0.000210811
0.000201158
0.000189748
0.000165466
0.000128739
0.000112441
0.000121822
0.000171363
0.000206523
0.000227774
0.000252441
0.000301656
0.00214307
0.00101466
0.000200325
0.000185961
0.000179284
0.000174828
0.000170737
0.000166731
0.000162394
0.000157705
0.000152736
0.000147701
0.000142862
0.00013837
0.000134196
0.000130414
0.000126541
0.000126164
0.000130821
0.000139782
0.000150465
0.000160745
0.00016816
0.00017229
0.000174257
0.000176023
0.000178076
0.00018067
0.000183331
0.000184984
0.000184381
0.000181864
0.000178917
0.000175729
0.000172447
0.000169329
0.000166665
0.000164319
0.000162911
0.000161817
0.000161167
0.00016203
0.000163707
0.000169602
0.000184578
0.000188157
0.000190675
0.000194457
0.000198494
0.000199126
0.000188288
0.000146373
0.000100711
7.43464e-05
6.09756e-05
6.26435e-05
7.65391e-05
0.000131813
0.000239951
0.000298666
0.00171023
0.000846396
0.000183461
0.000178018
0.000173311
0.000168344
0.000163408
0.000158402
0.00015377
0.000149245
0.000144399
0.000139445
0.000134627
0.000130269
0.00012674
0.0001242
0.000122526
0.000122348
0.000125024
0.000131393
0.000139658
0.000146507
0.00015107
0.000154142
0.000156537
0.000158808
0.000160921
0.000162551
0.000163869
0.000165162
0.000166052
0.00016596
0.000164929
0.000163174
0.000161062
0.000158684
0.000156432
0.000154261
0.000152899
0.000152219
0.000151621
0.000151521
0.000151227
0.000151037
0.000153075
0.000157289
0.00015997
0.000163398
0.000168436
0.000168674
0.000162115
0.00015387
0.000123466
5.86333e-05
3.75167e-05
3.59033e-05
3.81778e-05
5.30561e-05
0.000167264
0.000289316
0.0013622
0.000594046
0.000178738
0.000169731
0.000162659
0.000155787
0.000149309
0.000143386
0.000138012
0.000135454
0.000134561
0.000131837
0.000128917
0.000126403
0.000124697
0.000123575
0.000123018
0.000123567
0.000126972
0.000130846
0.000132714
0.000134052
0.00013548
0.00013726
0.000139707
0.000143024
0.000146561
0.000149044
0.000150423
0.000150936
0.000151077
0.000150873
0.000150447
0.000149857
0.000148823
0.000146341
0.000141554
0.000138992
0.000139575
0.000141416
0.000141882
0.000141763
0.000141852
0.000142064
0.000143695
0.000147046
0.000149693
0.000150625
0.000149219
0.000146921
0.000152824
0.000163506
0.000168342
0.000129901
3.62358e-05
3.17448e-05
3.35537e-05
4.07592e-05
0.000119433
0.000282071
0.00110211
0.000516592
0.000156361
0.000144911
0.00013975
0.000138492
0.000137526
0.000138053
0.000137623
0.000136078
0.000133121
0.000126302
0.000110652
8.70656e-05
7.18443e-05
7.09217e-05
8.05257e-05
0.000103655
0.000118899
0.00012288
0.000124792
0.000126635
0.000129191
0.000131945
0.00013366
0.000134722
0.000136555
0.000139326
0.000142015
0.00014346
0.000143637
0.000143337
0.00014279
0.000141952
0.000140906
0.000139702
0.000138298
0.000136529
0.000134007
0.000130912
0.00012772
0.000125029
0.000123216
0.000122433
0.000123047
0.000126379
0.00013373
0.00014479
0.000154676
0.000157828
0.000160702
0.000164446
0.000170178
0.000157673
4.13848e-05
3.02557e-05
3.24334e-05
3.83854e-05
8.92682e-05
0.00029467
0.000898559
0.000550576
0.000160006
0.000146321
0.000142217
0.000143904
0.000142224
0.000140596
0.00014173
0.000142719
0.000141008
0.000135418
0.000124924
0.000109097
8.8697e-05
7.78283e-05
7.96608e-05
9.45256e-05
0.000118428
0.000127336
0.000128526
0.000128553
0.000127993
0.00012759
0.000128548
0.000131838
0.000138422
0.000145918
0.00014842
0.000148623
0.000148608
0.000147736
0.000146964
0.000145922
0.000143914
0.000141172
0.000138544
0.000136676
0.000135822
0.000135467
0.000135174
0.000135294
0.000135579
0.000135687
0.000137225
0.000141726
0.000150023
0.000159824
0.00016578
0.000169917
0.000172322
0.000179929
0.000197292
0.000167785
4.48913e-05
3.48039e-05
3.73667e-05
4.42886e-05
0.000101458
0.000315333
0.000874279
0.000592699
0.000164122
0.000146203
0.000139997
0.000139962
0.000139515
0.000141173
0.000144214
0.000147173
0.000148238
0.00014499
0.000130993
9.66052e-05
6.36156e-05
5.29022e-05
5.5109e-05
7.43013e-05
0.000122059
0.000141783
0.000143371
0.000143387
0.000142096
0.000140999
0.000140706
0.00014145
0.000143273
0.000144642
0.000144711
0.000144214
0.000143816
0.000141174
0.000141256
0.000143952
0.000146239
0.000147076
0.000147157
0.000146658
0.000145566
0.000144098
0.000142702
0.000142268
0.000142613
0.00014338
0.000144751
0.00014641
0.000150552
0.000158482
0.000163094
0.00016598
0.000171338
0.000182989
0.000194247
0.000159765
4.01902e-05
3.32975e-05
3.54286e-05
4.27051e-05
0.000115631
0.000306581
0.000862367
0.000578982
0.000173064
0.000159733
0.000149741
0.000143336
0.000139924
0.000140127
0.000142048
0.000147553
0.000149786
0.000148723
0.000139714
9.8263e-05
5.2901e-05
4.00848e-05
4.25407e-05
5.53445e-05
0.000101746
0.000141266
0.000143379
0.000143802
0.00014242
0.000141065
0.000140348
0.000138699
0.000135227
0.000135012
0.000138711
0.00014286
0.000144965
0.000138746
0.000135491
0.000136241
0.000141614
0.00014648
0.000147972
0.000146247
0.000127985
0.000118451
0.000118553
0.000133384
0.000138884
0.000140032
0.000141515
0.000145453
0.000152197
0.000156155
0.000159306
0.000159727
0.000166045
0.000179961
0.00018547
0.000157881
3.81833e-05
3.11882e-05
3.24171e-05
3.6517e-05
9.42794e-05
0.000269648
0.000919209
0.000563825
0.000173408
0.000159642
0.000150938
0.000145788
0.000140071
0.000138542
0.000140726
0.000144712
0.000147546
0.000145931
0.000134937
9.93639e-05
5.81929e-05
3.71074e-05
3.04605e-05
3.02685e-05
3.62286e-05
7.19403e-05
0.000136339
0.000142265
0.000143076
0.000143589
0.00014376
0.000142639
0.000138176
0.000135021
0.000136787
0.000141553
0.000143754
0.000145946
0.000139447
0.00012688
0.00012874
0.000141106
0.000147069
0.000146319
0.000145474
0.000141899
0.000122329
0.000118069
0.000132327
0.000145271
0.000147161
0.000148712
0.000144162
0.000132914
0.000142507
0.000158701
0.000173444
0.000180666
0.000184422
0.000156387
3.79431e-05
3.08385e-05
3.20677e-05
3.62239e-05
9.38026e-05
0.000264334
0.000922733
0.00057499
0.000165249
0.00013434
0.000131111
0.000130827
0.000126066
0.000116413
0.000107673
0.000110027
0.000120912
0.000135771
0.000142546
0.000138267
8.32244e-05
3.83746e-05
2.75468e-05
2.63735e-05
2.7503e-05
3.6569e-05
8.55731e-05
0.000143304
0.000145241
0.000142778
0.000140496
0.000140343
0.000140772
0.000141895
0.000144092
0.000145162
0.000145665
0.000147559
0.000146912
0.000143858
0.000145552
0.000147207
0.000147999
0.000147895
0.000147296
0.000146743
0.00014496
0.000142782
0.000143297
0.000144658
0.000147269
0.000146465
0.000138886
0.000132687
0.000140651
0.000150977
0.00016337
0.000187765
0.000195433
0.000114916
3.66864e-05
3.40507e-05
3.60939e-05
4.60465e-05
0.000149554
0.000300898
0.000879939
0.000572246
0.000177308
0.000145887
0.000137066
0.000129839
0.000111529
8.02068e-05
5.60381e-05
5.3519e-05
5.92117e-05
8.7028e-05
0.000130124
0.000126974
0.00010095
5.82482e-05
3.39233e-05
2.68424e-05
2.61733e-05
2.79e-05
4.25005e-05
0.000111313
0.000140412
0.000142249
0.00014299
0.00014311
0.000143739
0.000144517
0.000144792
0.00014534
0.000143679
0.000134392
0.000134198
0.000135568
0.000147531
0.000152463
0.000152471
0.00015218
0.000151379
0.000146128
0.000131691
0.000127586
0.000134596
0.00014624
0.000149967
0.00014835
0.0001443
0.000142986
0.000146838
0.000154562
0.000167944
0.000196052
0.000201657
9.57782e-05
3.69162e-05
3.64783e-05
3.93898e-05
5.80705e-05
0.000208506
0.000327156
0.000972354
0.000565681
0.000165676
0.000151673
0.000140037
0.000119245
8.89678e-05
7.72504e-05
8.54447e-05
0.000114837
0.000126466
0.000128058
0.000126744
0.000108192
6.52674e-05
4.04465e-05
3.49848e-05
3.53115e-05
3.83839e-05
5.05728e-05
8.94208e-05
0.000128353
0.000133776
0.000135903
0.00013763
0.00013954
0.000139556
0.00013646
0.000129485
0.000124953
0.000123626
0.000132226
0.000146562
0.000153856
0.000154502
0.000146697
0.000110761
0.000109805
0.00011575
0.000141512
0.000145681
0.000146008
0.000152671
0.000161373
0.000152387
0.000141267
0.000142677
0.000145397
0.00015199
0.000170794
0.000188498
0.000199501
0.000204066
0.000102678
3.59533e-05
3.5825e-05
3.87421e-05
5.87993e-05
0.000217933
0.000328675
0.00102547
0.000608814
0.000171561
0.00016104
0.000152097
0.000144582
0.000141312
0.000139531
0.000137319
0.000135134
0.000132014
0.000128723
0.000125469
0.000121472
0.000115186
0.000109481
0.000108869
0.000112041
0.000117694
0.000127213
0.000135954
0.000141012
0.000143412
0.000144335
0.00014469
0.000144248
0.000141789
0.000141089
0.000143441
0.00014553
0.000147964
0.0001522
0.000154557
0.000152646
0.000138073
0.000125005
0.000124725
0.000127847
0.000139181
0.000151405
0.00015466
0.000155542
0.000157138
0.000158367
0.000156778
0.000154303
0.000155889
0.000158845
0.000165543
0.000171185
0.000170085
0.000170448
0.000169287
7.85759e-05
3.25165e-05
3.22051e-05
3.54821e-05
5.04038e-05
0.00016856
0.000294625
0.00119567
0.00086937
0.000188959
0.000183016
0.000178497
0.000174042
0.000169383
0.000164101
0.000157878
0.00015369
0.000149058
0.000144834
0.000140945
0.000137589
0.000135409
0.000134972
0.000135872
0.000137527
0.00013979
0.000143233
0.0001478
0.000151971
0.00015374
0.000153693
0.000153195
0.000153104
0.000153898
0.000156485
0.000159104
0.000160908
0.000161558
0.000161325
0.000160639
0.000159902
0.000159067
0.000158143
0.000157305
0.000157013
0.000157146
0.000157113
0.000157023
0.000157268
0.000157346
0.000156946
0.000156206
0.00015416
0.000151477
0.00014874
0.000145924
0.000145299
0.00014842
0.000151105
0.000128976
5.78135e-05
3.57222e-05
3.34346e-05
3.64883e-05
5.19334e-05
0.000161561
0.000279706
0.00141871
0.000932345
0.000219911
0.000198415
0.000191857
0.000187244
0.000183164
0.00018008
0.000175749
0.000171167
0.00016724
0.000164023
0.000161255
0.000158826
0.000156727
0.000155009
0.000153317
0.000151467
0.000151407
0.000153652
0.000158088
0.000163486
0.000166335
0.000166288
0.00016534
0.000164957
0.000165692
0.000168001
0.00017241
0.000179111
0.000182761
0.000181876
0.000181298
0.000181206
0.000181459
0.000181959
0.000182771
0.000183699
0.000184545
0.000184873
0.000184219
0.000182038
0.000178083
0.000173123
0.000167576
0.000161846
0.000156791
0.000151848
0.000148399
0.000146432
0.000144017
0.000139854
0.00012404
8.59879e-05
5.85206e-05
5.04996e-05
5.33332e-05
7.40829e-05
0.000184851
0.00028439
0.0016911
0.000845844
0.000341905
0.000279549
0.000227443
0.000205195
0.00019489
0.000189791
0.000184987
0.000180825
0.00017723
0.000174252
0.000171773
0.000169634
0.000167665
0.000165956
0.000164126
0.000161597
0.000160765
0.000163024
0.000169321
0.000177778
0.000181434
0.000180714
0.000179244
0.000179449
0.000183156
0.000193932
0.000215151
0.000236873
0.00024208
0.000241709
0.000241638
0.00024144
0.000240579
0.000238616
0.000235314
0.000230409
0.000224118
0.000216786
0.000208887
0.000200734
0.000192312
0.000183788
0.000175442
0.0001674
0.000159807
0.000152608
0.000146016
0.000140696
0.000138382
0.00013975
0.000145589
0.000154129
0.000149285
0.000141617
0.000143436
0.000166537
0.000226419
0.000280714
0.00199352
0.000748398
0.000354978
0.000338978
0.000329395
0.000312099
0.000289472
0.000268241
0.000251427
0.00023891
0.000226293
0.000212845
0.000199881
0.000189906
0.000183718
0.000180132
0.000177515
0.00017494
0.000176524
0.000185539
0.000205015
0.000222728
0.000226205
0.000224204
0.000224237
0.000231516
0.000249272
0.00027518
0.000294128
0.000298959
0.000296281
0.000291542
0.000285893
0.000279231
0.000271543
0.000262904
0.000253456
0.000243359
0.00023283
0.000222111
0.00021143
0.000200951
0.00019081
0.000181218
0.000172322
0.000164251
0.000156945
0.000150232
0.000143828
0.000139237
0.00013811
0.000140802
0.000148156
0.00015968
0.000170339
0.000178408
0.000187807
0.000204279
0.000230642
0.000278946
0.00227402
0.000672452
0.000335576
0.000319841
0.000315825
0.000311235
0.000309196
0.000304569
0.000299636
0.000294172
0.000290925
0.000290854
0.00029512
0.000304322
0.000315359
0.000318141
0.000307972
0.000298999
0.00030914
0.000335574
0.000360395
0.000368553
0.000367644
0.000364869
0.000364305
0.000367414
0.000371306
0.000372003
0.000368435
0.000361957
0.000353362
0.000343086
0.00033098
0.000317095
0.000301954
0.000286154
0.000270176
0.000254471
0.000239475
0.000225437
0.000212335
0.000200033
0.000188512
0.000177913
0.00016834
0.000159591
0.000151473
0.000144192
0.000139057
0.000136721
0.000136541
0.000138414
0.000143982
0.000154454
0.000167602
0.000180776
0.000191067
0.000202492
0.000230826
0.000281193
0.0026674
0.000565657
0.000315501
0.000295802
0.000289774
0.000284326
0.000281473
0.000277444
0.000273644
0.000269735
0.000267225
0.000266931
0.000269711
0.000276642
0.000288392
0.000303503
0.000314384
0.000319855
0.00032564
0.000331727
0.000338045
0.000344637
0.000351413
0.000358264
0.00036481
0.00037084
0.000375893
0.00037981
0.000382445
0.000383813
0.000385464
0.000388218
0.000391111
0.000392989
0.000392329
0.000387653
0.000378105
0.000363976
0.00034638
0.000326255
0.000304184
0.00028065
0.00025613
0.000231675
0.000208246
0.000186673
0.000171396
0.000161552
0.000156208
0.000154758
0.000157302
0.0001636
0.000173127
0.000181906
0.000185686
0.000185832
0.000187923
0.000200942
0.000235057
0.000325969
0.00273327
0.000336582
0.000301742
0.000266671
0.000256375
0.000248995
0.000244548
0.00024113
0.0002385
0.000236368
0.00023476
0.000233828
0.000233685
0.000234429
0.000236042
0.000238513
0.000241702
0.000245326
0.000249136
0.000253192
0.000257527
0.000262218
0.000267358
0.000273047
0.000279084
0.00028546
0.000291904
0.00029846
0.000305175
0.000312325
0.000319866
0.000327747
0.000335853
0.000344164
0.000352572
0.000360933
0.000368909
0.0003761
0.000381918
0.00038581
0.000387465
0.000386801
0.000384177
0.000380432
0.000377641
0.000378906
0.000388568
0.000404315
0.000426328
0.000455823
0.000493733
0.000541089
0.000600926
0.000673934
0.000764601
0.000874944
0.00101451
0.00120551
0.00149177
0.00159661
0.00153179
0.00035427
0.000308916
0.000271772
0.000260284
0.000251805
0.000247206
0.000243466
0.000241006
0.000239234
0.000237956
0.000237347
0.000237111
0.000237603
0.000238527
0.000240206
0.000242376
0.000245233
0.000248625
0.000252621
0.000257279
0.000262427
0.000268004
0.000274027
0.000280435
0.000287284
0.00029446
0.00030202
0.000309867
0.000318041
0.000326494
0.000335325
0.000344528
0.000354066
0.000363701
0.000373182
0.000382214
0.000390373
0.000397021
0.000401417
0.00040291
0.00040105
0.000395988
0.000388922
0.000382335
0.000381825
0.00039123
0.000408639
0.000432736
0.000463228
0.000500056
0.000543614
0.000595529
0.000656548
0.000729827
0.000817119
0.000920676
0.00107679
0.00141196
0.0016029
0.00152568
0.000594656
0.000329745
0.000307764
0.000301768
0.00029713
0.000296365
0.000294122
0.000293957
0.000292573
0.000291573
0.00029015
0.000289793
0.00028986
0.000292199
0.000295617
0.000300869
0.000307204
0.000313958
0.000321317
0.000328634
0.000336173
0.000343506
0.000350458
0.000357335
0.000363765
0.000369702
0.000374979
0.000379343
0.000383124
0.00038668
0.000390241
0.000393413
0.000395358
0.000395091
0.00039196
0.000385554
0.00037588
0.000363358
0.00034808
0.000330098
0.000309342
0.000285932
0.000260342
0.000233273
0.000212618
0.000198575
0.000189646
0.000184805
0.000182827
0.00018287
0.000183972
0.000185349
0.000186153
0.000185923
0.00018369
0.00018187
0.000188316
0.000213847
0.000285477
0.00271376
0.000724154
0.000356075
0.000339133
0.000337526
0.00033615
0.000339715
0.000339675
0.000342902
0.000342387
0.00034197
0.000340085
0.000339419
0.000339731
0.000343955
0.000349612
0.000357343
0.000364886
0.000370313
0.000373552
0.000373885
0.000371867
0.00036783
0.000362298
0.000355791
0.000348262
0.000341384
0.000335737
0.000330177
0.000323588
0.000316386
0.000308469
0.000299693
0.000290201
0.000280226
0.000269945
0.000259584
0.000249274
0.000239117
0.00022899
0.000218703
0.00020802
0.000196883
0.000185496
0.000174414
0.00016411
0.000154845
0.000148964
0.000146294
0.000145896
0.000147608
0.000151514
0.000157223
0.000164037
0.0001708
0.000177319
0.000182795
0.000189671
0.000212927
0.000262192
0.00266803
0.000830941
0.000381178
0.000368001
0.000371134
0.000371344
0.000374127
0.0003683
0.000359566
0.000345952
0.000330884
0.000315499
0.000300374
0.00028568
0.00027192
0.000260287
0.00025109
0.000244409
0.000240072
0.00023731
0.000235363
0.000233908
0.000233091
0.000232763
0.00023259
0.00023229
0.000231718
0.000231595
0.000232322
0.00023276
0.000233115
0.000233493
0.000233463
0.00023223
0.000229044
0.000223768
0.000216858
0.000209014
0.000200804
0.000192541
0.000184342
0.000176169
0.000168024
0.000159892
0.000152009
0.000144704
0.000138014
0.000130602
0.00012052
0.000111037
0.000107887
0.000115504
0.00012871
0.000139702
0.0001503
0.000159463
0.000168993
0.000183309
0.000213613
0.000261554
0.0022788
0.000939295
0.000395583
0.00036733
0.000329942
0.000294684
0.000268287
0.000252071
0.000239503
0.000229547
0.000220806
0.000213203
0.000206601
0.000200997
0.000196394
0.000192757
0.000189954
0.000187911
0.00018659
0.000185967
0.000185737
0.000185432
0.000185191
0.000185483
0.000185927
0.000186026
0.00018599
0.000186253
0.00018736
0.000188751
0.000188909
0.000189152
0.000190285
0.000192734
0.00019611
0.000198954
0.000199425
0.000196485
0.000191876
0.000186531
0.000181194
0.000174633
0.000167772
0.000160963
0.000154284
0.000146883
0.000133184
0.000117756
0.000108886
0.000105398
0.000103755
0.000107633
0.000115283
0.000131677
0.000139876
0.000133543
0.000124681
0.000125018
0.000170946
0.000259186
0.00179674
0.00103269
0.000298108
0.000233659
0.000212354
0.000207024
0.000203868
0.000200914
0.000197519
0.00019412
0.000190309
0.000186809
0.000183749
0.000181092
0.000178767
0.000176607
0.000174522
0.000172568
0.00017086
0.000169608
0.000168818
0.000168121
0.000167439
0.000167256
0.000167218
0.000167078
0.000166859
0.000166834
0.000167355
0.000168076
0.000167286
0.000166032
0.000164691
0.000163613
0.000163018
0.000162971
0.000163591
0.00016471
0.000165635
0.000163244
0.00016658
0.000169177
0.000166304
0.000161089
0.000155138
0.000147717
0.000140032
0.000132699
0.000123751
0.000116709
0.000114873
0.000112606
0.000106133
0.000110818
0.000102113
7.35356e-05
5.65953e-05
5.75696e-05
9.90624e-05
0.000236692
0.00152517
0.00105524
0.000188795
0.000176889
0.000172824
0.000174157
0.000177089
0.000180085
0.000181353
0.000180256
0.00017796
0.000175478
0.000172756
0.000169703
0.000166432
0.000163237
0.000160326
0.000157868
0.000155777
0.000154151
0.000153099
0.000152139
0.000151549
0.000151375
0.000151336
0.000151368
0.000151435
0.000151631
0.000152033
0.000152544
0.00015219
0.000151157
0.000149775
0.000148313
0.000146993
0.000145812
0.000144936
0.000144186
0.00014351
0.000141668
0.00014059
0.000140291
0.000142303
0.000146173
0.000145597
0.00014401
0.000142649
0.000141194
0.000137392
0.000133061
0.000130502
0.00012977
0.0001271
8.94373e-05
4.99398e-05
3.34637e-05
3.14621e-05
3.76039e-05
8.41294e-05
0.00023815
0.00134039
0.000859279
0.00016477
0.000156756
0.000153437
0.000153988
0.000156355
0.000159814
0.000162918
0.000162269
0.000159559
0.000156775
0.000154855
0.000152411
0.000149142
0.000145556
0.000142545
0.000140545
0.000139199
0.000138078
0.000137423
0.000137102
0.000136988
0.0001371
0.000137302
0.000137631
0.000138006
0.000138375
0.000138637
0.000138777
0.000138745
0.000138302
0.000137338
0.000135937
0.000134402
0.000132769
0.000131315
0.000130111
0.000129349
0.000128836
0.000128694
0.000128984
0.000129058
0.000129358
0.000129806
0.000129595
0.000129102
0.000130197
0.000133864
0.000138192
0.000141138
0.000144398
0.000146214
8.42686e-05
3.2204e-05
2.7133e-05
2.9157e-05
3.67286e-05
0.000115881
0.000263273
0.00120311
0.000535999
0.00014993
0.000140285
0.000136848
0.000132833
0.000130123
0.000130761
0.000135524
0.000138162
0.000137146
0.000137594
0.000138273
0.000137528
0.000136082
0.000134379
0.000132603
0.000131228
0.000130551
0.000130384
0.000130524
0.00013088
0.000131289
0.000131737
0.000132175
0.000132606
0.000133068
0.000133637
0.000134306
0.000134821
0.000134853
0.000134675
0.000134524
0.000134293
0.000134117
0.000134212
0.000134698
0.000135834
0.000137227
0.000138296
0.000138695
0.000138492
0.000137953
0.00013766
0.000137627
0.00013848
0.000140261
0.000141394
0.000142808
0.000145129
0.000150563
0.000160301
0.000164506
9.81635e-05
2.99777e-05
2.86075e-05
3.08768e-05
4.15223e-05
0.000169459
0.000296947
0.00109885
0.000482529
0.000140414
0.000130467
0.000126274
0.000123046
0.000121212
0.000119144
0.000114938
0.000111775
0.000113653
0.000120154
0.00012563
0.000129946
0.000132565
0.000133526
0.000133273
0.000132264
0.000130744
0.000128834
0.000126783
0.000125541
0.000126411
0.000128556
0.000129348
0.000129526
0.000130327
0.000132229
0.00013448
0.00013563
0.000136157
0.000135623
0.000133217
0.000129617
0.000125298
0.000120531
0.000115978
0.000111866
0.000107789
0.000104132
0.000101745
0.000100523
0.000100212
0.00010068
0.000102311
0.000107144
0.000117771
0.000130865
0.000137865
0.000142012
0.000149168
0.000170592
0.000186362
0.000115545
3.47501e-05
3.38722e-05
3.67542e-05
4.74635e-05
0.000171451
0.000334675
0.000949472
0.000519773
0.000151129
0.00012269
0.000111928
0.000111635
0.000113788
0.000111899
0.000102507
8.79533e-05
7.88265e-05
7.99889e-05
9.019e-05
0.000117764
0.000132927
0.000135996
0.000137335
0.000138934
0.00014091
0.0001427
0.000144009
0.000144752
0.000145
0.0001451
0.000145498
0.000146214
0.00014693
0.000147579
0.000148125
0.000148351
0.000147533
0.000145268
0.000142532
0.000140364
0.000139066
0.000138562
0.000137745
0.000135741
0.00013239
0.000127511
0.000120808
0.000113487
0.000108884
0.000107932
0.000109085
0.000113559
0.000122245
0.000132109
0.000139988
0.00014853
0.000163383
0.00019262
0.000203571
0.000115788
3.83291e-05
3.82525e-05
4.17191e-05
5.68411e-05
0.000202562
0.0003504
0.000930418
0.000554308
0.000169819
0.000124247
9.63879e-05
6.87976e-05
5.21685e-05
4.44638e-05
3.77029e-05
2.96313e-05
2.55362e-05
2.48609e-05
2.76389e-05
4.90957e-05
0.00010478
0.00010563
0.000107196
0.000121625
0.00013469
0.00013755
0.000137818
0.000137345
0.0001339
0.000130456
0.000133754
0.00014251
0.000148191
0.000149051
0.000143524
0.000138414
0.000140023
0.000141705
0.000143226
0.000144111
0.000144173
0.000143292
0.000141642
0.00013978
0.000137552
0.000133397
0.000125462
0.000117323
0.000115966
0.000118343
0.000125296
0.000131091
0.000136343
0.000146468
0.000152903
0.000158507
0.000183416
0.000205731
0.000209333
7.8843e-05
3.83488e-05
3.92483e-05
4.29926e-05
6.71405e-05
0.000232804
0.000346591
0.000922273
0.00055008
0.000157577
0.000131181
0.000124948
0.000122252
0.000113314
0.000102053
8.06205e-05
5.42179e-05
3.9523e-05
3.67168e-05
3.99577e-05
5.24763e-05
5.52431e-05
5.49858e-05
6.18168e-05
9.06499e-05
0.0001276
0.000135732
0.000138364
0.00013955
0.000138649
0.000135604
0.000135822
0.000138871
0.000144378
0.000147868
0.000149516
0.000147707
0.000139232
0.000140446
0.000147721
0.000149556
0.000149417
0.000149732
0.000150025
0.000150129
0.000150288
0.000149879
0.00014861
0.000145652
0.000138781
0.000130563
0.000129755
0.000133591
0.000142507
0.000150778
0.000155396
0.000158656
0.000171768
0.00020003
0.00020494
9.05824e-05
3.86744e-05
3.86654e-05
4.19473e-05
5.98049e-05
0.000202618
0.000334321
0.000910784
0.000548538
0.000153393
0.000144206
0.000135671
0.000133691
0.000132003
0.000129934
0.000127122
0.000120886
0.000110484
9.81572e-05
7.79636e-05
5.79501e-05
4.63919e-05
4.69943e-05
5.90138e-05
0.000103353
0.000145132
0.000149794
0.000151118
0.000151644
0.00015201
0.000152505
0.000152772
0.000152547
0.000151775
0.000151085
0.000151275
0.000152122
0.000152811
0.000153156
0.000153403
0.000153307
0.000153151
0.000153228
0.000153093
0.000153105
0.000153637
0.000153794
0.000153034
0.000151878
0.000148596
0.000142345
0.000138824
0.000139928
0.000145381
0.000153872
0.000158314
0.000162664
0.000169808
0.000185837
0.000202407
0.000154142
4.06799e-05
3.60179e-05
3.8325e-05
4.54109e-05
0.000118512
0.000307795
0.000869835
0.000483298
0.00016355
0.000154046
0.000149842
0.000150217
0.000147167
0.000145337
0.000142904
0.00014056
0.000138391
0.000133165
0.000114206
9.06948e-05
8.74427e-05
9.64812e-05
0.000123363
0.000141451
0.000145962
0.000149236
0.000151226
0.000152172
0.000152632
0.000152896
0.000152934
0.000152529
0.000151531
0.000149519
0.000148027
0.000147577
0.000145332
0.000141694
0.000142091
0.000142577
0.000143268
0.000143747
0.000143853
0.000142965
0.000141233
0.00013879
0.00013801
0.00013849
0.000139988
0.000142667
0.000145826
0.00014976
0.000153744
0.000156885
0.000159813
0.000162362
0.000174976
0.000204173
0.000211801
0.000176918
4.27029e-05
3.55573e-05
3.66027e-05
4.026e-05
8.50526e-05
0.000274117
0.000846773
0.000463605
0.000192191
0.00018555
0.000179325
0.000173997
0.000169484
0.000165605
0.000160601
0.000155016
0.000150175
0.000145702
0.000141228
0.000138155
0.000137178
0.000137602
0.000139444
0.000141543
0.000141797
0.00014038
0.000138652
0.000137943
0.000138624
0.000140538
0.000143143
0.000145704
0.000146092
0.000137594
0.000137744
0.000139374
0.000145275
0.00014955
0.00014761
0.000130614
0.000122155
0.000132651
0.000142937
0.000141935
0.000132698
0.000122489
0.00012833
0.000137722
0.000144688
0.000143153
0.000138213
0.000147419
0.000153451
0.000156661
0.000155811
0.000158662
0.000171896
0.000190171
0.00020029
0.000171741
4.52095e-05
3.31786e-05
3.40594e-05
3.74449e-05
7.57299e-05
0.000244626
0.000947935
0.000558437
0.000191097
0.000182158
0.000175275
0.000169965
0.000165476
0.000161558
0.000157464
0.000152804
0.00014754
0.000142695
0.000138768
0.000136255
0.00013523
0.000135579
0.000137039
0.000138473
0.000139312
0.000139529
0.000139318
0.000138969
0.000138901
0.000139418
0.000140491
0.00014172
0.000141733
0.000139784
0.000140634
0.000143207
0.000145672
0.000146438
0.000144937
0.000141114
0.000140113
0.000140691
0.000142975
0.000143094
0.000141252
0.00014021
0.000142576
0.000147333
0.000151387
0.000153203
0.000151657
0.000142447
0.000147055
0.000152274
0.000157518
0.000166908
0.000177644
0.000181943
0.000182062
0.00012438
4.10591e-05
3.25573e-05
3.3473e-05