/*--------------------------------*- C++ -*----------------------------------*\
| =========                 |                                                 |
| \\      /  F ield         | OpenFOAM: The Open Source CFD Toolbox           |
|  \\    /   O peration     | Version:  2.1.1                                 |
|   \\  /    A nd           | Web:      www.OpenFOAM.org                      |
|    \\/     M anipulation  |                                                 |
\*---------------------------------------------------------------------------*/
FoamFile
{
    version     2.0;
    format      ascii;
    class       volVectorField;
    location    "0.0013";
    object      U;
}
// * * * * * * * * * * * * * * * * * * * * * * * * * * * * * * * * * * * * * //

dimensions      [0 1 -1 0 0 0 0];

internalField   nonuniform List<vector> 
36520
(
(-0.513434 -0.980239 -0.821169)
(-0.336153 -0.192175 -0.0393093)
(-1.57803 0.102436 0.180315)
(-2.04644 0.485725 0.150751)
(-2.58261 0.645665 0.140244)
(-2.97134 0.722443 0.114029)
(-3.26679 0.743787 0.0903888)
(-3.43583 0.775275 0.0648349)
(-3.55989 0.901047 0.0669518)
(-3.79857 1.14891 0.100513)
(-4.2647 1.45223 0.157084)
(-5.07576 1.71731 0.213651)
(-6.09 1.72907 0.230897)
(-7.08608 1.42099 0.184722)
(-7.72335 0.815732 0.0782441)
(-7.85317 0.132423 -0.0437245)
(-7.49572 -0.446247 -0.144048)
(-6.83078 -0.780563 -0.196044)
(-6.10455 -0.824794 -0.187754)
(-5.5499 -0.642614 -0.136658)
(-5.24934 -0.384466 -0.0859556)
(-5.1542 -0.15131 -0.0496788)
(-5.15919 0.0238793 -0.03124)
(-5.2052 0.153515 -0.0268898)
(-5.25102 0.253011 -0.0249401)
(-5.30098 0.337615 -0.0207475)
(-5.35813 0.413629 -0.0125261)
(-5.4394 0.480993 -0.000307797)
(-5.54759 0.540673 0.014291)
(-5.69401 0.589115 0.0288339)
(-5.87333 0.624249 0.0408799)
(-6.07897 0.645505 0.047376)
(-6.2874 0.656262 0.0467832)
(-6.47993 0.660238 0.0384847)
(-6.63836 0.666587 0.0261222)
(-6.7587 0.6812 0.0134017)
(-6.83818 0.711316 0.00383412)
(-6.89378 0.770593 -0.00156415)
(-6.94543 0.859234 -0.000709113)
(-7.0223 0.979261 0.00875497)
(-7.16097 1.1182 0.0297849)
(-7.37403 1.25083 0.0660403)
(-7.67791 1.34099 0.123422)
(-8.15309 1.33786 0.213559)
(-8.86357 1.16746 0.348276)
(-9.78648 0.821083 0.514204)
(-10.9378 0.329012 0.693849)
(-12.3855 -0.373657 0.861561)
(-14.0177 -1.1885 1.03728)
(-15.7506 -2.13094 1.17613)
(-17.2889 -3.17728 0.877738)
(-18.1089 -4.33356 0.596754)
(-18.2406 -5.39557 0.269235)
(-17.8317 -6.25676 0.0131295)
(-16.5741 -7.13746 -0.225593)
(-15.1187 -8.14242 -0.457468)
(-12.1705 -9.23985 -0.736431)
(-9.03644 -10.0522 -0.870582)
(-5.05817 -10.5245 -0.887974)
(-1.85427 -10.5228 -0.836277)
(-2.16103 -0.887617 -0.663282)
(-2.78301 0.233561 0.136311)
(-3.69707 0.348056 0.370847)
(-4.13552 0.720406 0.301048)
(-4.63979 0.772211 0.311814)
(-5.02636 0.844157 0.244715)
(-5.313 0.809512 0.196678)
(-5.46572 0.815288 0.131545)
(-5.59109 0.899776 0.15239)
(-5.79753 1.14716 0.245932)
(-6.26113 1.44663 0.413399)
(-7.06505 1.73128 0.578983)
(-8.09345 1.74084 0.64823)
(-9.10041 1.39742 0.524023)
(-9.72299 0.713075 0.240296)
(-9.81286 -0.032539 -0.0805128)
(-9.41868 -0.663469 -0.356216)
(-8.71658 -1.0137 -0.503637)
(-7.97677 -1.04068 -0.489333)
(-7.42595 -0.822612 -0.360865)
(-7.14296 -0.530882 -0.230861)
(-7.06735 -0.287295 -0.142583)
(-7.07681 -0.108727 -0.101937)
(-7.12553 0.0160129 -0.0932817)
(-7.15984 0.113486 -0.0926968)
(-7.20012 0.191645 -0.0830302)
(-7.23843 0.263996 -0.0577119)
(-7.30298 0.327884 -0.0220702)
(-7.39032 0.384424 0.0222986)
(-7.51809 0.428146 0.0702467)
(-7.67482 0.458013 0.114027)
(-7.85841 0.474568 0.144964)
(-8.04138 0.479496 0.156617)
(-8.2089 0.477307 0.149662)
(-8.34483 0.475554 0.132041)
(-8.44096 0.479753 0.112538)
(-8.50042 0.499429 0.0988694)
(-8.53519 0.540609 0.097836)
(-8.56335 0.606288 0.112617)
(-8.60862 0.705863 0.148593)
(-8.70111 0.826065 0.213234)
(-8.85064 0.942589 0.320642)
(-9.06007 1.02436 0.504125)
(-9.37496 1.01975 0.792848)
(-9.85123 0.844756 1.16117)
(-10.5225 0.533235 1.5717)
(-11.4437 0.135895 1.99536)
(-12.6505 -0.435658 2.42983)
(-14.0375 -1.17159 2.75017)
(-15.6206 -2.10064 2.71936)
(-17.1808 -3.37022 2.38426)
(-18.3103 -4.81377 1.45948)
(-18.7071 -6.14874 0.657001)
(-18.358 -7.23114 -0.144473)
(-17.3071 -8.1637 -0.822895)
(-15.6269 -9.05218 -1.49075)
(-12.5399 -10.1016 -2.37434)
(-9.26003 -10.8683 -2.78431)
(-5.04141 -11.31 -2.83447)
(-1.87914 -11.2324 -2.61043)
(-2.62198 -0.847233 -0.221475)
(-3.65263 0.30811 0.402064)
(-4.46944 0.464384 0.598639)
(-4.89891 0.798684 0.496964)
(-5.32604 0.843176 0.514543)
(-5.68877 0.906141 0.397051)
(-5.95349 0.824713 0.326272)
(-6.06261 0.800904 0.218755)
(-6.14138 0.868421 0.247061)
(-6.27843 1.17118 0.380918)
(-6.70608 1.54451 0.627097)
(-7.50487 1.9385 0.876712)
(-8.5903 2.00137 0.972738)
(-9.66076 1.60948 0.787539)
(-10.3105 0.784503 0.350886)
(-10.373 -0.131173 -0.119437)
(-9.91586 -0.885241 -0.535705)
(-9.11884 -1.29526 -0.761504)
(-8.29175 -1.29105 -0.733171)
(-7.70507 -0.991058 -0.533072)
(-7.43279 -0.622726 -0.336243)
(-7.38005 -0.338673 -0.204226)
(-7.40193 -0.139366 -0.144273)
(-7.45731 -0.0105381 -0.129253)
(-7.48176 0.0828338 -0.132491)
(-7.50984 0.160829 -0.122482)
(-7.53285 0.242984 -0.0867433)
(-7.58745 0.317678 -0.0330867)
(-7.66567 0.387025 0.0343764)
(-7.78909 0.440491 0.106346)
(-7.94342 0.476086 0.169749)
(-8.12738 0.493681 0.208095)
(-8.312 0.495144 0.210561)
(-8.4809 0.485746 0.18192)
(-8.61506 0.475777 0.137326)
(-8.7058 0.475158 0.0883286)
(-8.7578 0.493495 0.0401606)
(-8.77811 0.535433 0.0175756)
(-8.78933 0.607398 0.0211402)
(-8.81366 0.721008 0.0623854)
(-8.8776 0.865009 0.15327)
(-8.97994 1.02605 0.31723)
(-9.11767 1.18416 0.596395)
(-9.34583 1.29037 1.01422)
(-9.69049 1.29014 1.56848)
(-10.1328 1.17773 2.19661)
(-10.6556 0.94634 2.89734)
(-11.2582 0.455461 3.59454)
(-11.8471 -0.246241 4.08159)
(-12.3992 -1.2465 4.16294)
(-12.7778 -2.53374 3.62151)
(-13.6345 -4.30855 2.42725)
(-15.6154 -6.14985 0.961748)
(-17.0764 -7.53096 0.00587405)
(-16.944 -8.50359 -0.951798)
(-15.6412 -9.58407 -2.3977)
(-12.9851 -10.741 -3.83517)
(-9.43979 -11.4931 -4.66461)
(-5.029 -11.9284 -4.74796)
(-1.80151 -11.7526 -4.31531)
(-2.76799 -0.844288 0.309852)
(-3.88166 0.414425 0.600621)
(-4.6901 0.587711 0.722001)
(-5.14491 0.89836 0.600979)
(-5.53583 1.01881 0.61986)
(-5.89111 1.06019 0.500486)
(-6.13929 0.942724 0.406658)
(-6.20768 0.851172 0.293111)
(-6.21187 0.894517 0.349918)
(-6.27703 1.23392 0.503396)
(-6.66794 1.72098 0.804892)
(-7.50302 2.24606 1.09187)
(-8.69288 2.41064 1.19371)
(-9.8657 1.96413 0.95078)
(-10.5501 0.941688 0.421815)
(-10.5758 -0.228188 -0.127967)
(-10.0341 -1.18933 -0.606811)
(-9.1118 -1.71734 -0.870917)
(-8.1617 -1.67197 -0.829319)
(-7.52693 -1.24564 -0.581515)
(-7.2603 -0.76674 -0.354919)
(-7.24358 -0.422507 -0.22243)
(-7.28631 -0.197296 -0.177675)
(-7.35253 -0.0525293 -0.189873)
(-7.36926 0.0623158 -0.220455)
(-7.37833 0.165342 -0.227303)
(-7.38182 0.270631 -0.190104)
(-7.41839 0.367089 -0.112799)
(-7.47857 0.458493 -0.00538315)
(-7.58441 0.534141 0.112597)
(-7.72337 0.591072 0.218725)
(-7.89337 0.628815 0.286214)
(-8.06706 0.647209 0.294436)
(-8.22632 0.649478 0.242133)
(-8.35784 0.64808 0.153109)
(-8.45359 0.6575 0.0522032)
(-8.51183 0.682039 -0.0354846)
(-8.54042 0.727983 -0.0871985)
(-8.54824 0.799443 -0.106721)
(-8.55794 0.907576 -0.0794827)
(-8.58659 1.04586 0.0135528)
(-8.61696 1.2082 0.181202)
(-8.60843 1.3997 0.472497)
(-8.56017 1.60353 0.940979)
(-8.4431 1.75424 1.5283)
(-8.11147 1.78303 2.22529)
(-7.40805 1.70121 2.96889)
(-6.29832 1.34437 3.77064)
(-4.65987 0.753554 4.41644)
(-3.03906 0.0713648 4.74197)
(-2.15316 -0.978416 4.54034)
(-2.10822 -2.62961 3.7294)
(-4.7214 -4.51748 2.56239)
(-10.0584 -6.80357 0.875721)
(-13.1799 -8.63067 -0.949655)
(-13.8078 -9.88887 -2.94182)
(-12.8376 -11.5367 -5.24381)
(-9.63643 -12.6967 -6.82936)
(-4.96705 -13.0161 -6.75286)
(-1.67247 -12.6068 -5.91841)
(-2.70878 -0.498213 0.964545)
(-4.0328 0.55995 0.881132)
(-4.75684 0.674869 0.940161)
(-5.17222 0.999829 0.770663)
(-5.5611 1.1705 0.751487)
(-5.9693 1.1692 0.626224)
(-6.23171 0.990425 0.533903)
(-6.28443 0.824777 0.442285)
(-6.2046 0.850422 0.55086)
(-6.20235 1.30499 0.728437)
(-6.53055 2.00464 1.01636)
(-7.3389 2.77125 1.24696)
(-8.54543 3.11061 1.28191)
(-9.75026 2.61067 0.967329)
(-10.4116 1.31542 0.387196)
(-10.3366 -0.220548 -0.190789)
(-9.7199 -1.466 -0.62604)
(-8.7084 -2.13108 -0.852208)
(-7.63474 -2.01365 -0.81394)
(-6.94799 -1.42396 -0.578377)
(-6.67772 -0.807959 -0.371024)
(-6.6685 -0.402439 -0.257737)
(-6.70462 -0.150407 -0.231869)
(-6.73748 0.00672297 -0.255579)
(-6.69788 0.120862 -0.305311)
(-6.64545 0.227006 -0.331951)
(-6.59948 0.347956 -0.296132)
(-6.57996 0.470934 -0.20326)
(-6.58243 0.591386 -0.0706522)
(-6.61445 0.692487 0.0760142)
(-6.65931 0.768746 0.197761)
(-6.71212 0.81287 0.261779)
(-6.77316 0.835303 0.250516)
(-6.8457 0.835544 0.166402)
(-6.95797 0.831561 0.0385832)
(-7.09567 0.845405 -0.1082)
(-7.23792 0.894039 -0.246258)
(-7.36512 0.995241 -0.34528)
(-7.45531 1.1249 -0.40176)
(-7.54579 1.30762 -0.395201)
(-7.62047 1.54791 -0.335534)
(-7.64977 1.82733 -0.241871)
(-7.60491 2.20411 -0.0200811)
(-7.51925 2.71866 0.343122)
(-7.38872 3.2539 0.778844)
(-7.1345 3.72343 1.30613)
(-6.5546 4.05725 1.99368)
(-5.57125 4.16444 2.85801)
(-3.93186 3.93272 3.77244)
(-1.72755 3.14143 4.39396)
(2.69243 1.38672 4.06341)
(6.44378 -0.389629 3.32139)
(6.87229 -1.57912 2.82058)
(4.64004 -2.91751 2.21441)
(-0.605116 -5.2702 1.37757)
(-5.14425 -7.84966 -1.53261)
(-8.65981 -10.8856 -6.19858)
(-9.3923 -13.6152 -8.5601)
(-4.77981 -14.537 -8.92478)
(-1.43979 -13.7439 -7.34573)
(-3.06914 -0.186187 1.2068)
(-4.22045 0.750489 0.91556)
(-4.8619 0.865909 0.982277)
(-5.29441 1.19504 0.784647)
(-5.68604 1.4317 0.793019)
(-6.05442 1.44408 0.65773)
(-6.23273 1.18972 0.587291)
(-6.16767 0.929103 0.5425)
(-5.8956 0.945103 0.746489)
(-5.72531 1.49723 0.959894)
(-5.85906 2.38211 1.21125)
(-6.44728 3.32886 1.28814)
(-7.39771 3.76374 1.15006)
(-8.27058 3.18348 0.737908)
(-8.54203 1.57876 0.198344)
(-8.2091 -0.385453 -0.269703)
(-7.71595 -1.97526 -0.461632)
(-6.99206 -2.79042 -0.552774)
(-6.01943 -2.53673 -0.564243)
(-5.31294 -1.73331 -0.39871)
(-4.98153 -0.984352 -0.268331)
(-4.88369 -0.532897 -0.218539)
(-4.80168 -0.275679 -0.247617)
(-4.68547 -0.122297 -0.349391)
(-4.47773 -0.0021054 -0.484779)
(-4.24233 0.133399 -0.576578)
(-4.03351 0.307023 -0.579034)
(-3.81786 0.475609 -0.501466)
(-3.62619 0.623503 -0.362217)
(-3.41391 0.730453 -0.174286)
(-3.15818 0.786513 0.0167301)
(-2.83959 0.786332 0.158666)
(-2.53136 0.739899 0.209174)
(-2.31635 0.665573 0.169131)
(-2.28954 0.584524 0.0337929)
(-2.47316 0.567706 -0.187923)
(-2.75214 0.618407 -0.47009)
(-3.04744 0.727886 -0.709691)
(-3.31065 0.904309 -0.916187)
(-3.66512 1.13114 -1.06828)
(-4.02476 1.40114 -1.11011)
(-4.26255 1.67011 -1.06334)
(-4.46413 2.02882 -0.831638)
(-4.587 2.69362 -0.385687)
(-4.43121 3.45714 -0.0031405)
(-4.17436 4.12173 0.309885)
(-3.66931 4.67193 0.716805)
(-2.81419 5.02441 1.37845)
(-1.26848 4.87497 2.30194)
(2.18195 3.58671 2.70505)
(7.31571 1.17815 2.18771)
(9.78779 -0.328794 2.32549)
(11.4323 -0.868901 2.06467)
(12.94 -1.31551 0.95853)
(13.1548 -1.98235 -0.0594628)
(12.1746 -2.88444 -0.927108)
(7.78666 -5.48932 -3.48415)
(-5.15325 -12.7343 -9.16686)
(-4.35525 -16.2316 -11.0163)
(-1.01487 -15.1431 -8.47475)
(-3.34582 1.72103 2.0763)
(-4.26699 1.01239 1.17046)
(-4.89309 1.0705 1.18965)
(-5.16446 1.38987 0.936415)
(-5.45718 1.72488 0.867409)
(-5.71835 1.80051 0.630263)
(-5.66009 1.39631 0.52875)
(-5.31543 0.98964 0.579704)
(-4.68654 0.912053 0.9392)
(-4.11604 1.4449 1.30269)
(-3.73849 2.51695 1.52358)
(-3.61256 3.63004 1.37258)
(-3.53346 4.21549 0.871989)
(-3.07929 3.69501 0.243064)
(-2.2729 2.01891 -0.271297)
(-1.65847 -0.182947 -0.51388)
(-1.55572 -2.1133 -0.277746)
(-1.71872 -3.19275 0.192616)
(-1.44248 -2.91914 0.32959)
(-0.976061 -1.89652 0.151329)
(-0.757232 -1.00028 -0.037181)
(-0.736239 -0.484212 -0.170148)
(-0.691233 -0.218131 -0.333497)
(-0.585048 -0.0653168 -0.538424)
(-0.382528 0.0623488 -0.7367)
(-0.154437 0.226194 -0.885588)
(0.0208071 0.456924 -0.977668)
(0.268057 0.700166 -0.971967)
(0.56184 0.887733 -0.83113)
(0.963236 1.01902 -0.610697)
(1.43605 1.08242 -0.376927)
(2.00059 1.07189 -0.181605)
(2.61775 0.987078 -0.0246726)
(3.21994 0.841264 0.0679866)
(3.71052 0.665776 0.0942912)
(4.0345 0.504211 0.0240434)
(4.19367 0.392466 -0.166545)
(4.09105 0.368382 -0.386566)
(3.93835 0.46239 -0.653475)
(3.69036 0.668833 -0.936093)
(3.12618 1.02528 -1.1924)
(2.75283 1.37912 -1.44798)
(2.11683 1.66207 -1.53651)
(1.70289 2.12665 -1.3018)
(2.17468 2.58957 -1.18144)
(3.40503 3.14376 -1.19954)
(4.71615 3.59912 -1.19025)
(5.70039 3.82233 -0.566434)
(6.54257 3.71891 0.60296)
(7.6263 3.20226 1.34877)
(8.8645 2.30999 1.81023)
(10.3234 1.66542 2.29682)
(15.6432 0.521734 0.728088)
(18.3479 -0.439057 -0.473772)
(18.918 -1.00162 -0.90643)
(18.5884 -1.45083 -1.26202)
(17.3361 -2.16961 -1.95465)
(9.08167 -6.75892 -5.30536)
(-2.91325 -17.3455 -11.266)
(-0.377476 -16.7943 -9.23713)
(-4.04917 1.15084 1.40494)
(-4.52099 1.0039 0.648961)
(-4.2327 1.50733 0.914924)
(-4.08875 1.98938 0.426722)
(-3.68267 2.39309 0.268136)
(-3.41174 1.90647 -0.0167429)
(-2.46894 0.894453 0.292898)
(-1.31446 0.0993319 0.908353)
(-0.071147 -0.127642 1.65114)
(1.14146 0.602404 2.09402)
(2.55729 2.05688 2.06379)
(4.08721 3.29197 1.43938)
(5.64631 3.95384 0.294632)
(7.20634 3.76214 -0.665783)
(8.5529 2.66874 -1.11501)
(9.15529 1.04936 -1.11377)
(8.71943 -0.81657 -0.567419)
(7.48263 -2.07688 0.325201)
(7.00064 -2.2839 0.804345)
(7.45908 -1.78472 0.642191)
(7.80589 -1.15255 0.279479)
(7.76422 -0.844196 0.0505656)
(7.53 -0.791505 -0.129999)
(7.17753 -0.790008 -0.375122)
(6.76365 -0.66876 -0.656726)
(6.4024 -0.389082 -0.922952)
(6.1889 0.0103047 -1.09635)
(6.17923 0.42728 -1.20095)
(6.25386 0.786657 -1.19113)
(6.50161 1.06107 -1.02337)
(6.88519 1.23093 -0.751203)
(7.38917 1.29027 -0.481688)
(8.01978 1.25381 -0.244115)
(8.7122 1.13892 -0.057317)
(9.40809 0.956082 0.0465569)
(10.0297 0.72283 0.0601209)
(10.5707 0.494405 -0.0379677)
(10.8182 0.347038 -0.189464)
(11.006 0.279327 -0.400248)
(11.0886 0.330934 -0.627957)
(10.8881 0.495694 -0.865634)
(10.7749 0.785116 -1.21041)
(10.411 1.19516 -1.51314)
(9.98924 1.81983 -1.81416)
(10.3405 2.2687 -2.29857)
(11.0605 2.8653 -2.69103)
(11.6422 3.4655 -2.63156)
(12.0272 3.95198 -1.8368)
(12.5177 4.19891 -0.450259)
(13.4257 3.97775 0.260879)
(14.2394 3.92874 -0.164785)
(16.9059 3.20163 -1.84727)
(22.1288 0.436495 -1.877)
(22.2226 -0.408449 -0.819569)
(21.547 -0.886746 -0.870266)
(20.8771 -1.25664 -1.08986)
(19.9044 -1.80429 -1.48954)
(16.0378 -4.4945 -3.10216)
(0.80993 -17.1079 -9.03359)
(0.0344726 -18.7912 -9.37946)
(-3.58883 17.7513 4.11365)
(-4.43408 3.67375 0.782547)
(-2.97578 0.916279 0.928742)
(-2.13894 0.710686 0.258907)
(-0.775754 0.298267 0.245109)
(0.245407 0.370229 -0.0952986)
(1.17298 0.411974 -0.184485)
(2.6421 0.566574 0.111613)
(5.09356 0.680261 0.66104)
(8.31742 0.711507 1.08765)
(12.0066 0.71736 1.20295)
(15.521 0.832398 0.671581)
(17.6101 0.722947 -0.0758389)
(18.2303 0.477872 -0.523712)
(18.1185 0.173326 -0.667358)
(17.3082 -0.208829 -0.643515)
(16.1249 -0.520983 -0.428618)
(15.8305 -0.591337 -0.0876058)
(16.5724 -0.610724 0.164146)
(17.7274 -0.521271 0.228797)
(18.4367 -0.386792 0.1982)
(18.6766 -0.296707 0.194871)
(18.615 -0.243149 0.237931)
(18.2513 -0.220445 0.299285)
(17.5256 -0.162022 0.239699)
(16.3888 0.00961244 -0.076485)
(14.9786 0.318331 -0.625389)
(13.9536 0.570284 -1.11915)
(13.6479 0.631586 -1.28612)
(13.7363 0.575537 -1.18853)
(14.0881 0.501539 -0.878224)
(14.5598 0.463696 -0.585328)
(15.1997 0.381621 -0.35312)
(15.9804 0.244886 -0.162288)
(16.8344 0.126194 -0.0408236)
(17.6804 0.0587502 -0.000621869)
(18.3971 0.0529052 4.70378e-05)
(18.8749 0.0513224 -0.0144923)
(19.1242 0.0534136 -0.0518374)
(19.1749 0.0648191 -0.0976292)
(19.1503 0.0718439 -0.121668)
(19.0228 0.0899438 -0.160646)
(18.7693 0.16452 -0.309242)
(18.6101 0.283156 -0.527166)
(18.5577 0.544812 -0.980499)
(18.6238 0.948827 -1.60044)
(19.0369 1.24671 -1.96801)
(19.546 1.38806 -1.71147)
(20.7054 1.59124 -0.552897)
(23.9457 1.41327 0.390139)
(26.997 0.59569 0.126911)
(27.0298 0.17306 -0.426781)
(25.6498 0.475161 -1.53871)
(24.3385 -0.087057 -0.51837)
(22.6747 -0.724405 -0.514141)
(21.7805 -1.05737 -0.661611)
(20.7704 -1.56162 -0.900097)
(18.3765 -3.79683 -1.80751)
(5.36074 -17.0602 -6.36356)
(0.50106 -21.2797 -8.22863)
(-2.46985 19.4138 6.83819)
(-3.4126 3.68415 2.02769)
(-1.10692 0.964528 1.21145)
(0.0369624 0.818336 0.511932)
(2.35418 0.390041 0.337326)
(4.26677 0.236622 0.00712039)
(5.67709 0.155452 -0.394493)
(6.62509 0.102254 -0.731814)
(8.16021 0.098815 -0.751388)
(10.7795 0.343732 -0.291108)
(13.7765 0.60404 0.465878)
(16.3598 0.431884 1.04762)
(18.2191 0.127539 0.944228)
(19.3225 -0.0243247 0.357232)
(19.5586 -0.204774 0.0178636)
(19.3394 -0.34523 -0.110581)
(18.8419 -0.380108 -0.393606)
(18.7333 -0.308378 -0.676335)
(19.441 -0.196961 -0.872916)
(20.5285 -0.165446 -0.717749)
(21.1291 -0.142247 -0.339434)
(21.2582 -0.138305 -0.0154351)
(21.1207 -0.145629 0.185367)
(20.9109 -0.169804 0.312234)
(20.7163 -0.189175 0.365348)
(20.4525 -0.171612 0.342958)
(19.9201 -0.0747352 0.16518)
(18.6726 0.150702 -0.351918)
(17.0123 0.390737 -0.931723)
(16.0536 0.494431 -1.05907)
(16.0227 0.429999 -0.89424)
(16.5516 0.295884 -0.562631)
(17.4571 0.181003 -0.252386)
(18.4436 0.0786778 -0.0962068)
(19.4215 0.000873891 -0.0611815)
(20.2608 -0.0136525 -0.0728817)
(20.8109 0.0159357 -0.102678)
(21.0716 0.032078 -0.113342)
(21.1746 0.0328653 -0.112627)
(21.2064 0.0330964 -0.113104)
(21.2044 0.0290626 -0.101379)
(21.178 0.0353975 -0.0934065)
(21.1247 0.0437351 -0.120109)
(21.0978 0.0700318 -0.234076)
(20.9439 0.165975 -0.517239)
(20.8297 0.400401 -0.968525)
(21.1492 0.652765 -1.13258)
(21.9875 0.737685 -0.795493)
(24.4097 0.467497 0.0909324)
(28.5842 0.0105251 0.621033)
(30.6126 -0.252727 0.403832)
(30.2796 -0.138013 -0.168031)
(28.2351 0.738356 -0.787223)
(24.3887 -0.156895 -0.0465338)
(22.8018 -0.680771 -0.204096)
(21.8515 -1.01494 -0.397767)
(20.7937 -1.53464 -0.689772)
(18.4315 -3.81041 -1.51822)
(5.70758 -17.3093 -4.62501)
(0.526099 -22.1458 -5.65634)
(-1.9513 12.1535 4.81707)
(-2.11167 0.884933 1.54737)
(0.837254 -0.0248259 0.290933)
(2.11188 0.306727 -0.0428299)
(4.32413 0.501658 0.113225)
(5.5983 0.527475 0.159057)
(5.59517 0.407535 0.0989905)
(5.4176 0.278952 -0.47798)
(6.65661 0.233422 -1.10514)
(9.98984 0.564683 -0.938643)
(14.1703 0.756828 0.232135)
(17.8794 0.724254 1.29098)
(20.3129 0.328549 0.940353)
(21.3994 0.0437595 0.125183)
(21.6209 -0.0560373 -0.238318)
(21.4517 -0.176201 -0.383735)
(20.7893 -0.303215 -0.632094)
(19.8066 -0.166661 -1.29429)
(19.8731 -0.100976 -1.7846)
(20.7873 -0.219778 -1.57735)
(21.7587 -0.183618 -0.75236)
(22.0314 -0.126069 -0.146452)
(21.9261 -0.102012 0.147862)
(21.728 -0.102013 0.283497)
(21.5349 -0.109107 0.314801)
(21.3399 -0.105044 0.259374)
(21.0186 -0.0955792 0.160475)
(20.3155 -0.126604 0.0215735)
(18.5966 -0.170762 -0.23366)
(16.5072 -0.0781604 -0.564828)
(15.6889 0.108327 -0.696426)
(15.7836 0.193081 -0.646635)
(16.5605 0.245472 -0.475262)
(17.9185 0.239766 -0.289501)
(19.285 0.161486 -0.200605)
(20.4596 0.0916768 -0.137781)
(21.2307 0.0688653 -0.0875126)
(21.5234 0.0665277 -0.0856653)
(21.5811 0.0490195 -0.100063)
(21.581 0.00880431 -0.0888295)
(21.6343 -0.0183431 -0.0297725)
(21.6702 -0.0478964 0.0458146)
(21.6687 -0.0886327 0.0907265)
(21.6633 -0.117695 0.0783756)
(21.5998 -0.120872 0.0231353)
(21.5325 0.0150634 -0.145692)
(21.4796 0.502111 -0.325273)
(22.0356 1.60503 -0.395689)
(24.1275 2.50785 -0.2573)
(28.9188 1.79898 0.241707)
(31.0411 0.402471 0.215707)
(30.2702 -0.0512301 0.117778)
(27.9145 0.487494 1.21009)
(24.2337 -0.265864 0.375484)
(22.9022 -0.740464 0.0278794)
(21.947 -1.10375 -0.201415)
(20.7684 -1.64095 -0.589077)
(17.7261 -4.33651 -1.57742)
(5.11381 -17.9652 -3.17966)
(0.594557 -22.9935 -3.58074)
(-3.56205 1.632 3.34684)
(-3.54847 0.212174 1.0155)
(-1.42394 0.884992 0.458109)
(-1.19129 1.42615 0.556339)
(0.0285918 1.44083 0.999825)
(0.262083 0.768597 0.975794)
(0.97485 0.162297 0.380209)
(2.36814 -0.0101217 -0.847245)
(4.09236 0.617217 -1.72496)
(6.43497 1.86485 -1.58849)
(9.94555 2.76494 -0.561595)
(15.1653 2.69623 0.707504)
(20.7425 1.48418 1.15972)
(23.8499 0.135379 0.6085)
(24.9654 -0.608984 0.105122)
(24.9552 -0.912224 -0.203945)
(24.5752 -1.087 -0.554303)
(23.266 -1.00206 -1.0608)
(19.7415 -0.716348 -2.54661)
(19.1561 -0.722995 -2.75308)
(19.3055 -0.479805 -1.69891)
(19.2916 -0.237808 -0.430973)
(19.0216 -0.160148 0.194253)
(18.6253 -0.154703 0.453961)
(18.0905 -0.181421 0.525841)
(17.439 -0.243288 0.515026)
(16.7227 -0.360267 0.468555)
(15.8867 -0.559666 0.415598)
(14.958 -0.772985 0.178594)
(14.2542 -0.646162 -0.258336)
(13.8682 -0.146551 -0.519264)
(13.947 0.259119 -0.49134)
(14.4205 0.552658 -0.367122)
(15.2133 0.71272 -0.281521)
(16.084 0.643674 -0.304786)
(16.7482 0.476704 -0.32434)
(17.1343 0.336355 -0.270434)
(17.195 0.183291 -0.218471)
(17.2004 0.0466225 -0.198991)
(17.2113 -0.0154546 -0.149575)
(17.245 0.0149639 -0.0542741)
(17.2752 0.0532988 0.0717201)
(17.1815 0.0721761 0.181497)
(17.1935 0.0432813 0.262214)
(17.2973 0.0221166 0.302094)
(17.5843 0.103906 0.356989)
(17.8944 0.528987 0.552394)
(18.2894 2.00201 0.81558)
(20.2302 4.10634 1.16831)
(24.823 3.60591 1.25915)
(29.0305 0.640395 0.775795)
(28.3522 -1.22622 0.65047)
(26.9892 -1.21567 1.09259)
(24.1151 -0.70439 0.273714)
(22.7946 -0.987353 0.0958536)
(21.9638 -1.27487 0.0310238)
(21.0381 -1.70888 -0.0893861)
(18.3369 -3.78738 -0.487325)
(4.39626 -17.116 -0.434769)
(0.392261 -22.3754 -0.748625)
(-3.66211 1.22643 -3.1371)
(-4.02054 0.305859 -0.373656)
(-2.32414 1.50466 0.0131864)
(-2.09282 2.21793 0.666325)
(-0.861267 2.526 1.61121)
(0.0190061 1.80707 2.16554)
(1.60702 0.769813 1.33832)
(3.72353 -0.111522 -0.229747)
(6.00176 0.112083 -1.32081)
(8.82269 1.26053 -1.47387)
(12.527 2.60367 -0.662068)
(17.1321 3.21997 0.426779)
(22.0834 2.1183 0.783302)
(25.4891 0.221736 0.236421)
(26.7437 -1.02538 -0.21979)
(26.9235 -1.47887 -0.367669)
(26.6991 -1.64721 -0.458782)
(26.0779 -1.65208 -0.624727)
(24.5124 -1.44082 -1.08643)
(21.0569 -0.831723 -2.14708)
(19.9668 -0.404573 -1.55163)
(19.3941 -0.0882035 -0.243882)
(18.85 0.00944565 0.474808)
(18.3336 -0.000625908 0.750533)
(17.7843 -0.0705453 0.72642)
(17.1751 -0.196213 0.443607)
(16.6256 -0.342567 0.0570276)
(15.9689 -0.527167 -0.383257)
(14.994 -0.766851 -0.752658)
(13.9755 -0.724979 -0.688027)
(13.3508 -0.195714 -0.278499)
(13.2675 0.363851 -0.0127852)
(13.7604 0.586517 0.108912)
(14.6831 0.652588 0.169869)
(15.6132 0.579268 0.177471)
(16.348 0.411993 0.209811)
(16.7672 0.235055 0.178533)
(16.8553 0.133259 0.0830915)
(16.779 0.135355 0.0106924)
(16.5988 0.155036 0.0122664)
(16.443 0.131431 0.179552)
(16.3813 0.142804 0.439886)
(16.1297 0.220376 0.713109)
(15.7266 0.338385 0.946492)
(15.1064 0.570036 1.16606)
(14.6182 1.07337 1.75947)
(15.041 1.82964 2.67001)
(16.6574 3.06086 3.45001)
(20.1641 3.89148 3.73649)
(26.0275 2.58375 3.22887)
(28.8925 -0.225595 1.18569)
(27.6592 -1.62159 0.642077)
(26.3143 -1.1444 1.29628)
(24.0776 -0.616947 0.420573)
(22.7844 -0.958183 0.0871721)
(21.9549 -1.26979 0.036509)
(21.0143 -1.73798 0.16022)
(18.2672 -3.81228 0.909663)
(4.11217 -16.9174 2.42732)
(0.309039 -22.2644 1.68541)
(-1.90344 12.2063 -5.52434)
(-1.07356 0.68962 -0.946818)
(0.447016 0.464739 0.755018)
(0.936557 0.93051 1.68588)
(3.0456 1.2075 2.47306)
(7.7467 0.746402 2.54988)
(13.0651 -0.0973135 1.50816)
(15.82 -0.489106 0.236216)
(15.851 -0.0407188 -0.228646)
(15.2312 1.06832 -1.0184)
(16.1641 3.23795 -2.24702)
(19.6454 4.53977 -2.9232)
(24.4716 3.19491 -2.28643)
(29.1544 0.397126 -0.744921)
(30.5151 -0.949296 -0.139143)
(30.307 -1.44308 -0.0311755)
(29.7836 -1.78212 -0.0309208)
(29.2227 -1.84744 -0.197883)
(28.4123 -1.84202 -0.41903)
(26.4268 -1.62933 -0.855886)
(23.3207 -0.74485 -1.31579)
(22.3781 -0.187677 -0.375775)
(21.8606 0.0104911 0.286118)
(21.5613 0.0491959 0.485208)
(21.3631 0.0392301 0.474304)
(21.2111 -0.00212032 0.316368)
(21.0048 -0.061387 0.100769)
(20.4777 -0.145496 -0.0876227)
(19.122 -0.187908 -0.0665588)
(16.3869 -0.0546656 0.0926092)
(14.6076 0.198569 0.249627)
(14.3711 0.333744 0.270687)
(14.8551 0.346909 0.195684)
(16.3046 0.255045 0.0782862)
(17.8862 0.133472 5.87257e-05)
(19.2496 0.0461804 -0.0323231)
(20.1813 0.00458729 -0.0184744)
(20.6448 -0.0301465 0.0147833)
(20.7528 -0.0583737 0.0456841)
(20.6498 -0.066149 0.0915394)
(20.4632 -0.0582252 0.237528)
(20.4536 -0.0617139 0.390085)
(20.4139 -0.0655565 0.590049)
(20.252 -0.0290301 0.967801)
(19.6013 0.117222 1.51991)
(17.4602 0.70552 2.49207)
(16.6595 1.46185 3.47435)
(17.4354 2.22037 4.03184)
(19.5824 3.06204 4.10407)
(24.3623 2.15161 3.16986)
(26.4249 0.0769517 1.22214)
(25.0233 -0.951226 0.478058)
(24.4827 -0.550536 0.568243)
(23.685 -0.452933 0.254303)
(22.7591 -0.747999 0.122365)
(21.7761 -1.11672 0.219451)
(20.3885 -1.8104 0.694869)
(15.7318 -5.56511 2.70102)
(2.76496 -18.2675 4.65465)
(0.121663 -22.9191 4.15445)
(-2.28869 20.8115 -6.84503)
(-2.89424 6.1677 -1.67673)
(1.18071 1.68626 0.500175)
(4.42465 0.755794 1.80244)
(9.74375 0.221114 2.06146)
(16.0539 -0.272988 0.770553)
(21.3075 -1.07319 -0.179911)
(24.1994 -1.52185 -0.424754)
(25.8406 -1.22591 -0.603405)
(26.6511 -0.830603 -0.409992)
(26.9786 -0.279199 0.228416)
(27.5778 0.912368 0.357289)
(28.3253 1.66544 -1.55996)
(29.1098 0.845529 -2.93332)
(30.5434 0.415704 -2.47425)
(32.6408 -0.515429 -1.20313)
(33.3068 -1.45308 -0.404769)
(33.0388 -2.00864 0.0160233)
(31.8659 -2.14204 0.244652)
(29.4528 -2.26135 0.576589)
(24.3641 -2.02822 0.94941)
(21.0248 -0.65412 0.912795)
(19.8447 0.00966732 0.919503)
(19.3144 0.13055 0.883607)
(18.8878 0.119615 0.75592)
(18.1262 0.0600392 0.44832)
(16.9542 0.0374821 0.150131)
(15.3016 0.117614 0.270746)
(13.3858 0.343279 0.789275)
(12.2204 0.458081 1.02307)
(12.0619 0.406874 0.83537)
(12.4359 0.327506 0.494395)
(13.1681 0.254738 0.120816)
(13.9957 0.157101 -0.150384)
(14.7005 0.0601215 -0.181131)
(15.2095 0.0101359 -0.0448099)
(15.5011 0.038438 0.128189)
(15.5108 0.0972407 0.280064)
(15.2817 0.155584 0.435698)
(14.7722 0.253878 0.714724)
(14.7001 0.328341 0.989534)
(14.8307 0.435316 1.32077)
(14.9138 0.609967 1.82743)
(15.1311 0.901292 2.62755)
(15.1155 1.43854 3.59012)
(15.1801 1.91301 4.4377)
(15.7643 2.31322 5.12402)
(16.8977 2.69516 5.34161)
(18.7837 2.81071 4.58552)
(22.3567 2.00331 2.96515)
(24.6958 0.234998 0.930307)
(24.3834 -0.658975 -0.0114798)
(24.2319 -0.470585 0.205064)
(23.3464 -0.661007 0.23639)
(22.3575 -0.897133 0.30617)
(21.1842 -1.22677 0.478598)
(19.2909 -2.09079 0.9814)
(11.0191 -8.30708 3.12131)
(0.278111 -19.5526 5.07494)
(-0.211072 -22.0599 5.60451)
(-3.62448 17.6965 -2.98798)
(-4.05031 4.18401 -1.05429)
(-0.840899 0.605296 -2.2083)
(2.20559 0.361295 -2.17133)
(8.64803 -0.446361 -2.17288)
(14.7099 -0.821455 -1.59292)
(16.7869 -0.965178 -0.920288)
(16.2996 -0.771112 -0.402982)
(13.369 -0.0809232 0.313444)
(12.73 1.60422 0.199889)
(14.9873 3.85687 -0.881722)
(20.5302 4.31557 -1.87411)
(27.4874 2.48332 -2.13074)
(30.176 -0.0864702 -1.56931)
(29.7707 -1.11876 -1.20609)
(28.3857 -1.14445 -0.918326)
(27.8178 -0.70032 -0.337588)
(27.6965 -0.584721 0.54677)
(26.7895 -0.888617 1.3937)
(22.7939 -0.830808 2.74813)
(16.941 -0.224437 3.10806)
(15.3799 0.181872 1.92155)
(14.983 0.232661 1.19883)
(14.9981 0.20035 0.920131)
(14.9289 0.212521 0.849162)
(14.4002 0.269193 0.891188)
(13.0095 0.358337 1.00921)
(11.5501 0.466938 1.10745)
(10.7102 0.510415 1.0558)
(10.6571 0.444812 0.951961)
(11.0365 0.328238 0.763078)
(11.4474 0.311407 0.551646)
(11.7976 0.284998 0.398169)
(11.9128 0.283664 0.331088)
(11.8369 0.307741 0.34735)
(11.7747 0.308314 0.417152)
(11.8636 0.305913 0.552287)
(11.9095 0.340911 0.726575)
(11.984 0.431272 0.90898)
(12.124 0.54544 1.06419)
(12.3392 0.614048 1.14129)
(12.7659 0.754915 1.28404)
(13.1271 0.994875 1.55524)
(13.8354 1.45016 2.28173)
(14.8852 1.97623 3.49177)
(16.2028 2.57181 4.7984)
(17.1893 2.9223 5.46049)
(18.5332 3.09941 5.5808)
(20.6846 2.99407 4.82344)
(23.7522 2.35865 2.99144)
(25.1102 0.228821 0.650605)
(24.1669 -1.11392 -0.528412)
(23.999 -0.590943 -0.146443)
(22.9612 -0.737243 0.264657)
(22.1283 -0.913726 0.500836)
(21.0853 -1.18768 0.763067)
(19.237 -2.06005 1.18937)
(9.53542 -9.64289 3.01403)
(-0.28815 -20.2889 5.41606)
(-0.215215 -21.2206 6.85108)
(-4.23436 0.43577 -1.80843)
(-4.52484 0.524736 -1.13855)
(-4.13145 0.884239 -1.71583)
(-3.93226 1.01885 -2.10415)
(-3.38372 0.762325 -2.65672)
(-2.7695 0.151163 -1.708)
(-1.54457 -0.448391 -0.298878)
(-0.350996 -0.459962 0.721822)
(0.842785 0.116818 0.466393)
(2.0837 0.778265 -1.18828)
(3.23125 1.06373 -3.28315)
(4.78438 0.893075 -4.79419)
(8.1099 0.310592 -4.77537)
(12.8882 -0.694791 -3.30357)
(15.9841 -1.39725 -1.6052)
(16.5086 -1.44137 -0.609466)
(15.5424 -0.728933 -0.264351)
(13.2422 0.659463 1.23687)
(10.1891 1.76471 3.91148)
(8.06615 2.15208 4.97726)
(7.75345 1.89 3.80257)
(7.90803 1.32993 2.06936)
(7.92012 0.751638 1.25398)
(7.85863 0.293399 1.06435)
(7.62364 -0.0657771 1.18326)
(7.24818 -0.369502 1.40122)
(6.88673 -0.527654 1.49974)
(6.73712 -0.50503 1.41171)
(6.85283 -0.293158 1.18072)
(7.19147 0.0798596 0.917176)
(7.47859 0.495179 0.71354)
(7.74697 0.816225 0.554985)
(8.04733 0.916118 0.445585)
(8.41776 0.822836 0.453616)
(9.00286 0.612093 0.498769)
(9.53751 0.346794 0.536411)
(9.90739 0.11129 0.636768)
(10.1651 -0.030909 0.804793)
(10.3549 -0.0743729 1.04693)
(10.5404 0.0472352 1.34643)
(10.6902 0.227293 1.59475)
(10.8809 0.619897 2.01528)
(10.9559 1.26757 2.64956)
(11.3685 2.12198 3.49839)
(12.2551 3.01745 4.31834)
(13.7781 3.66863 5.07246)
(15.384 4.07844 5.50066)
(17.2857 4.45066 5.03659)
(19.989 4.44238 3.36313)
(22.5835 2.67922 1.30908)
(22.9811 -0.354749 0.0600566)
(22.2748 -1.50471 -0.300967)
(22.1885 -0.811901 -0.166706)
(21.7062 -0.796102 0.296942)
(21.1014 -1.02146 0.80838)
(20.2667 -1.41022 1.31997)
(18.7577 -2.30024 1.94601)
(10.9535 -8.53751 3.85505)
(-0.9391 -19.8853 6.54678)
(-0.126913 -19.1968 7.34952)
(-3.70209 1.60935 -1.84538)