/*--------------------------------*- C++ -*----------------------------------*\
| =========                 |                                                 |
| \\      /  F ield         | OpenFOAM: The Open Source CFD Toolbox           |
|  \\    /   O peration     | Version:  2.1.1                                 |
|   \\  /    A nd           | Web:      www.OpenFOAM.org                      |
|    \\/     M anipulation  |                                                 |
\*---------------------------------------------------------------------------*/
FoamFile
{
    version     2.0;
    format      ascii;
    class       volVectorField;
    location    "0.0013";
    object      UFLUK;
}
// * * * * * * * * * * * * * * * * * * * * * * * * * * * * * * * * * * * * * //

dimensions      [0 1 -1 0 0 0 0];

internalField   nonuniform List<vector> 
36520
(
(-8.13527e-05 -0.821132 0.980364)
(-0.000109683 -0.0392699 0.192356)
(1.02214e-05 0.180394 -0.10216)
(1.50373e-05 0.150872 -0.485365)
(2.22184e-05 0.140421 -0.645212)
(2.58681e-05 0.114266 -0.721906)
(2.81652e-05 0.0906884 -0.743173)
(3.0585e-05 0.0651982 -0.774583)
(3.52072e-05 0.0673825 -0.900267)
(4.48919e-05 0.101022 -1.14802)
(6.03611e-05 0.157692 -1.45118)
(8.14052e-05 0.214384 -1.71604)
(0.000105446 0.231789 -1.72751)
(0.000128718 0.185797 -1.41907)
(0.000148802 0.0795164 -0.813437)
(0.000142467 -0.0422537 -0.129804)
(9.16608e-05 -0.142469 0.449134)
(4.11298e-05 -0.194467 0.783682)
(3.44517e-05 -0.186221 0.828132)
(6.83773e-05 -0.135139 0.646153)
(0.000115594 -0.0843743 0.388152)
(0.000153226 -0.0479721 0.155072)
(0.000169932 -0.029373 -0.0201556)
(0.000164856 -0.0248566 -0.149963)
(0.000149961 -0.022763 -0.249802)
(0.000135144 -0.0184695 -0.334883)
(0.000130835 -0.0101937 -0.411471)
(0.000148487 0.00205101 -0.479442)
(0.000202828 0.016691 -0.539691)
(0.000299917 0.0313516 -0.588611)
(0.000425644 0.0436503 -0.62412)
(0.000548575 0.0505609 -0.645679)
(0.000629902 0.0505154 -0.656706)
(0.000637928 0.0428211 -0.660938)
(0.000559834 0.0310173 -0.667518)
(0.000404153 0.0187061 -0.682308)
(0.000192904 0.00931331 -0.712528)
(-4.37238e-05 0.00378888 -0.77183)
(-0.000282268 0.00418443 -0.86043)
(-0.000512958 0.0128485 -0.980362)
(-0.000719315 0.0327556 -1.11918)
(-0.000844253 0.0676325 -1.25174)
(-0.00080312 0.123475 -1.34233)
(-0.000628183 0.21028 -1.35341)
(-0.00194894 0.328666 -1.23493)
(-0.00309897 0.468718 -0.981866)
(-0.00177419 0.626249 -0.600462)
(-0.000406371 0.781089 0.0196606)
(0.0003002 0.961058 0.809253)
(0.000640255 1.12187 1.77086)
(0.000524503 0.839315 2.86558)
(0.000706439 0.575488 4.15444)
(0.00290934 0.264468 5.35303)
(0.00342262 0.0157257 6.25344)
(0.000250073 -0.221293 7.14901)
(-0.00101554 -0.455257 8.15255)
(-0.000613831 -0.735735 9.24333)
(-0.000169805 -0.870368 10.0532)
(-4.00975e-05 -0.887944 10.5246)
(-4.47117e-06 -0.836275 10.5228)
(-5.40748e-05 -0.663123 0.887865)
(-4.90956e-05 0.136579 -0.233236)
(3.73411e-05 0.371208 -0.347666)
(4.97234e-05 0.301488 -0.719989)
(5.41424e-05 0.312339 -0.771773)
(5.07952e-05 0.245312 -0.843719)
(5.05781e-05 0.197349 -0.809082)
(5.49423e-05 0.132287 -0.814873)
(6.74292e-05 0.153221 -0.89937)
(9.27986e-05 0.246867 -1.14676)
(0.000129525 0.414469 -1.44622)
(0.000170912 0.580206 -1.73085)
(0.000202746 0.649609 -1.74039)
(0.000211345 0.525517 -1.39696)
(0.000198433 0.241879 -0.712623)
(0.000181123 -0.078781 0.0329957)
(0.000161502 -0.354354 0.663885)
(0.000145675 -0.501682 1.01405)
(0.000140646 -0.487237 1.041)
(0.000137654 -0.358607 0.822908)
(0.00012854 -0.22843 0.531132)
(0.000104635 -0.139982 0.287493)
(6.165e-05 -0.0991932 0.108862)
(-1.83918e-06 -0.0904526 -0.0159572)
(-7.34302e-05 -0.0898582 -0.113558)
(-0.000135451 -0.0802511 -0.1919)
(-0.000178439 -0.0550143 -0.264313)
(-0.000188815 -0.0194716 -0.328236)
(-0.000158936 0.0247952 -0.384812)
(-9.87585e-05 0.0726676 -0.428559)
(-3.20172e-05 0.116394 -0.458467)
(1.88018e-05 0.147274 -0.475079)
(4.3767e-05 0.158838 -0.480074)
(4.69168e-05 0.151761 -0.477955)
(3.70381e-05 0.134006 -0.476271)
(1.87961e-05 0.114371 -0.48053)
(-7.85253e-06 0.100564 -0.500251)
(-4.40095e-05 0.0993538 -0.541449)
(-9.08167e-05 0.113883 -0.607107)
(-0.000152085 0.149509 -0.706616)
(-0.000246984 0.213638 -0.826939)
(-0.000511653 0.320056 -0.94558)
(-0.00623676 0.50098 -1.0349)
(-0.0274873 0.771008 -1.06044)
(-0.0395059 1.08952 -1.00218)
(-0.0225293 1.47379 -0.801255)
(-0.0123152 1.88745 -0.459638)
(-0.00651009 2.31913 0.0807695)
(-0.00227497 2.64623 0.800092)
(-0.000506039 2.62457 1.72005)
(0.000863327 2.29676 2.98485)
(0.00131253 1.38335 4.42983)
(0.00127982 0.592501 5.79216)
(0.00840667 -0.190787 6.96638)
(0.0230742 -0.80056 8.16189)
(-0.0045561 -1.47112 9.09704)
(-0.00732679 -2.36783 10.1231)
(-0.00213833 -2.78278 10.8727)
(-0.00030137 -2.83432 11.3105)
(-3.91427e-05 -2.61041 11.2325)
(-3.57906e-05 -0.221173 0.847409)
(-2.47784e-05 0.402407 -0.307968)
(1.88318e-05 0.599047 -0.464255)
(1.90487e-05 0.497405 -0.798586)
(1.23543e-05 0.515021 -0.843108)
(4.13826e-06 0.397556 -0.906103)
(-5.44414e-07 0.326819 -0.824705)
(-1.31351e-06 0.21934 -0.80094)
(2.09475e-06 0.2477 -0.868531)
(1.29972e-05 0.381615 -1.17138)
(2.98162e-05 0.627877 -1.54475)
(4.52408e-05 0.877571 -1.93877)
(5.14659e-05 0.973673 -2.00167)
(4.93937e-05 0.788574 -1.60981)
(4.6692e-05 0.352122 -0.784922)
(2.46389e-05 -0.117854 0.130614)
(-1.57403e-05 -0.534255 0.884446)
(-1.29958e-05 -0.760688 1.29419)
(-1.89404e-06 -0.732583 1.29006)
(-3.8875e-06 -0.532514 0.990065)
(-5.87577e-06 -0.335696 0.621638)
(-8.13121e-06 -0.203704 0.337446)
(-1.49813e-05 -0.143791 0.137988)
(-3.35898e-05 -0.128854 0.00891742)
(-6.39497e-05 -0.132437 -0.0855682)
(-5.08364e-05 -0.123697 -0.167904)
(-1.68238e-05 -0.0896964 -0.256034)
(-1.00286e-05 -0.0375015 -0.33593)
(-4.88102e-06 0.0285298 -0.410555)
(-6.11943e-07 0.0988799 -0.47003)
(-7.34249e-07 0.16054 -0.512165)
(-8.57582e-07 0.197084 -0.53666)
(-9.73536e-07 0.197825 -0.54488)
(-1.0744e-06 0.167705 -0.541413)
(-1.15201e-06 0.122059 -0.535807)
(-1.21303e-06 0.0723537 -0.53821)
(-1.26523e-06 0.0236759 -0.558693)
(-1.29926e-06 0.000877229 -0.601535)
(-2.01061e-06 0.0046268 -0.672932)
(-8.1224e-05 0.0467825 -0.783738)
(-0.000957401 0.139244 -0.92398)
(-0.00438576 0.305634 -1.08325)
(-0.0209206 0.583486 -1.24366)
(-0.127098 0.963984 -1.37183)
(-0.292994 1.45586 -1.40729)
(-0.348199 2.02802 -1.36482)
(-0.308625 2.65493 -1.22158)
(-0.285163 3.27748 -0.809104)
(-0.22798 3.69914 -0.188743)
(-0.0934192 3.77541 0.71819)
(-0.00922947 3.30396 1.91599)
(0.0120883 2.16586 3.66915)
(0.0172579 0.771872 5.57259)
(0.0237309 -0.12701 7.06076)
(0.0446336 -1.04374 8.1502)
(0.0349759 -2.29828 9.61955)
(-0.0270852 -3.79298 10.8046)
(-0.0162358 -4.65286 11.502)
(-0.00239112 -4.74654 11.9316)
(-0.000273999 -4.31518 11.7529)
(-4.93203e-05 0.310121 0.844297)
(-3.85015e-05 0.600914 -0.414467)
(-5.61144e-06 0.722352 -0.587807)
(-4.20715e-06 0.601382 -0.898503)
(-4.84942e-06 0.620354 -1.01897)
(-6.69863e-06 0.501071 -1.06035)
(-1.37601e-05 0.407353 -0.942912)
(-3.03041e-05 0.293884 -0.851518)
(-4.92672e-05 0.350824 -0.895074)
(-4.09704e-05 0.504479 -1.23477)
(-1.22217e-05 0.806338 -1.72229)
(-1.53775e-07 1.09379 -2.24895)
(-2.4666e-07 1.19632 -2.41716)
(-4.77981e-07 0.951072 -1.98708)
(-1.04851e-06 0.405666 -1.02538)
(-0.000271283 -0.170639 0.0541464)
(-0.000955495 -0.668303 0.960227)
(-0.000608813 -0.935195 1.49818)
(-0.000140771 -0.875139 1.51939)
(-5.65689e-05 -0.611328 1.14397)
(-4.50088e-05 -0.380295 0.678323)
(-3.86461e-05 -0.248324 0.331448)
(-4.07755e-05 -0.205473 0.0991886)
(-0.000112913 -0.219722 -0.0529707)
(-0.000390202 -0.251768 -0.173269)
(-0.000709907 -0.259049 -0.278558)
(-0.000809032 -0.221591 -0.38397)
(-0.000833759 -0.144809 -0.483173)
(-0.000979604 -0.0393498 -0.581891)
(-0.00114408 0.0761835 -0.666164)
(-0.00121966 0.179459 -0.732762)
(-0.00118146 0.243998 -0.780659)
(-0.000999716 0.249602 -0.808719)
(-0.000638575 0.195379 -0.818903)
(-0.000192926 0.105296 -0.822526)
(0.000177682 0.00440243 -0.83403)
(0.000556193 -0.0831602 -0.859247)
(0.0010176 -0.135405 -0.906679)
(0.00159532 -0.156686 -0.981488)
(0.00222244 -0.132023 -1.09401)
(0.00265878 -0.0414345 -1.23759)
(0.00248195 0.124097 -1.40587)
(-0.00625381 0.410012 -1.60623)
(-0.0657109 0.856648 -1.82226)
(-0.1941 1.3506 -1.94901)
(-0.249801 1.91015 -1.86821)
(-0.270199 2.56096 -1.74231)
(-0.323652 3.26785 -1.41459)
(-0.48267 3.81143 -0.937201)
(-0.609975 4.04046 -0.430701)
(-0.406175 3.65853 0.50306)
(-0.0620969 2.83117 2.0492)
(0.0988536 1.88793 3.84555)
(0.107812 0.491143 6.18251)
(0.0648608 -1.15798 8.11627)
(0.00270512 -3.0728 9.49004)
(-4.92551e-05 -5.3361 11.248)
(-0.00609522 -6.87047 12.5376)
(-0.0052128 -6.74339 13.0305)
(-0.00164202 -5.91775 12.6079)
(-5.60193e-05 0.964873 0.498082)
(-5.13e-05 0.881578 -0.560085)
(-3.91409e-05 0.940842 -0.675259)
(-2.01795e-05 0.771572 -1.0012)
(-1.17977e-07 0.752781 -1.17375)
(-1.35779e-05 0.628586 -1.17468)
(-0.000147239 0.537643 -0.999775)
(-0.000339024 0.447409 -0.840606)
(-0.000458542 0.558675 -0.87322)
(-0.000653679 0.741642 -1.342)
(-0.00189035 1.02274 -2.11232)
(-0.00324264 1.17423 -3.14296)
(-0.00444309 1.05791 -3.88248)
(-0.00613328 0.619551 -3.70412)
(-0.00616751 -0.0613677 -2.67942)
(-0.00577013 -0.726234 -1.38394)
(-0.0132424 -1.13784 -0.0887423)
(-0.030957 -1.21577 0.945083)
(-0.0181724 -1.05929 1.25415)
(-0.0100821 -0.737927 0.941316)
(-0.00905417 -0.491128 0.432647)
(-0.0100133 -0.368328 0.0449451)
(-0.0104881 -0.344435 -0.221706)
(-0.00913344 -0.373695 -0.40255)
(-0.00621154 -0.427545 -0.53539)
(-0.00310391 -0.454407 -0.646146)
(-0.00183611 -0.415421 -0.757262)
(-0.00310278 -0.32182 -0.876391)
(-0.00609461 -0.194441 -1.0126)
(-0.0112631 -0.0592706 -1.15085)
(-0.0176325 0.049475 -1.27001)
(-0.0199694 0.0987037 -1.36139)
(-0.0156342 0.0723704 -1.43028)
(-0.00815561 -0.0238417 -1.46769)
(0.00256342 -0.157399 -1.48345)
(0.0116285 -0.303251 -1.49828)
(0.0142553 -0.437894 -1.53611)
(0.0132875 -0.520331 -1.5903)
(0.0123412 -0.556302 -1.66154)
(0.0112007 -0.526391 -1.77332)
(0.00857042 -0.445408 -1.94514)
(0.00532101 -0.341471 -2.18776)
(0.00208108 -0.119316 -2.55689)
(-0.00566004 0.242864 -3.07556)
(-0.0303852 0.667931 -3.62822)
(-0.0761357 1.15826 -4.11826)
(-0.163543 1.79055 -4.47274)
(-0.333504 2.59802 -4.59175)
(-0.598768 3.4455 -4.33801)
(-0.807456 3.97888 -3.56631)
(-0.624894 3.34645 -1.90583)
(-0.185284 2.30612 0.0714258)
(-0.0148766 1.80104 1.20679)
(0.080026 1.43154 2.24069)
(0.0770733 0.962415 4.55351)
(0.0247886 -1.74253 7.26817)
(0.0164949 -6.34614 10.458)
(0.0553002 -8.64763 13.3518)
(0.174209 -8.9166 14.5417)
(-0.00716537 -7.34315 13.7471)
(-5.74154e-05 1.20674 0.184153)
(-0.000184545 0.91316 -0.762584)
(-0.000896873 0.976339 -0.898594)
(-0.00223068 0.779461 -1.25553)
(-0.00286413 0.798001 -1.52673)
(-0.00305122 0.661198 -1.62775)
(-0.00415161 0.56869 -1.51191)
(-0.00283351 0.455044 -1.46481)
(-0.00245246 0.581246 -1.70833)
(-0.00887643 0.711785 -2.52583)
(-0.0283578 0.849644 -3.75008)
(-0.0731241 0.744916 -5.11099)
(-0.133886 0.276112 -6.00192)
(-0.162557 -0.770391 -5.76949)
(-0.125238 -2.2548 -4.12119)
(-0.00672542 -3.26945 -2.14253)
(0.0926766 -3.24556 -0.629099)
(0.0777214 -2.22638 0.128518)
(-0.111608 -1.26656 0.355474)
(-0.0807931 -0.952673 0.141346)
(-0.0678744 -0.756863 -0.3228)
(-0.0941135 -0.705695 -0.689515)
(-0.137307 -0.754071 -0.950112)
(-0.156836 -0.887261 -1.14229)
(-0.135878 -1.04508 -1.29796)
(-0.102589 -1.13902 -1.44847)
(-0.0739968 -1.11391 -1.61693)
(-0.0453987 -0.998493 -1.79157)
(-0.026851 -0.845868 -1.96293)
(-0.0302128 -0.678882 -2.13388)
(-0.0632003 -0.537331 -2.30734)
(-0.11089 -0.455209 -2.44949)
(-0.138486 -0.468638 -2.55352)
(-0.109684 -0.574923 -2.60498)
(-0.0307054 -0.784497 -2.57953)
(0.0531858 -1.03584 -2.55013)
(0.0840956 -1.32691 -2.54372)
(0.0692825 -1.57201 -2.51857)
(0.0496013 -1.7493 -2.54792)
(0.0301668 -1.86182 -2.59917)
(0.0266896 -1.82758 -2.6579)
(0.0235676 -1.65338 -2.76375)
(0.0268053 -1.19551 -2.94851)
(0.0152667 -0.61234 -3.41625)
(-0.00821762 -0.213118 -4.15008)
(-0.0448411 0.10194 -4.81537)
(-0.101835 0.511208 -5.37757)
(-0.177082 1.17623 -5.7448)
(-0.331721 2.08959 -5.61032)
(-0.886812 2.53494 -4.21563)
(-1.41205 2.11132 -1.50415)
(-1.23748 1.62012 0.186456)
(-0.209397 1.01459 0.585852)
(-0.0366566 0.20004 0.477237)
(0.0307857 -0.578148 1.04225)
(0.0801183 -1.27158 2.04014)
(0.177468 -3.70892 4.8535)
(0.496923 -9.26444 12.4378)
(0.34051 -11.0168 16.2298)
(-0.0123511 -8.46633 15.1498)
(-0.0163116 2.07378 -1.73624)
(-0.0353049 1.16881 -1.0593)
(-0.0493743 1.23996 -1.15221)
(-0.0367719 1.16558 -1.51704)
(-0.079043 1.35031 -1.73293)
(-0.19593 1.3516 -1.8177)
(-0.0250566 0.257886 -2.65385)
(-0.022979 0.210448 -2.54112)
(-0.0431244 0.0502724 -2.63863)
(-0.0995433 0.103646 -3.4837)
(-0.21001 0.123179 -5.07166)
(-0.307885 -0.503398 -6.73807)
(-0.344763 -2.42201 -7.18845)
(-0.211466 -4.87454 -4.75994)
(-0.0847397 -6.19532 -1.75571)
(-0.0143839 -6.77676 0.781452)
(0.0564277 -6.58952 2.67059)
(0.114113 -5.80204 3.5927)
(0.164753 -4.87868 2.27851)
(-0.289145 -1.11278 -2.15847)
(-0.183349 -1.01954 -2.66698)
(-0.119327 -1.14029 -2.95913)
(-0.14615 -1.32071 -3.10163)
(-0.180186 -1.54844 -3.17748)
(-0.159185 -1.87017 -3.20898)
(-0.162125 -2.34848 -3.16819)
(-0.329857 -2.78483 -3.09826)
(-0.492949 -2.86833 -3.18557)
(-0.444009 -2.49458 -3.50077)
(-0.319994 -1.93055 -3.85139)
(-0.243643 -1.35352 -4.14228)
(-0.190042 -0.994357 -4.33837)
(-0.184877 -1.01086 -4.41468)
(-0.188283 -2.28222 -3.78688)
(-0.100949 -3.18873 -2.88769)
(-0.059338 -2.61201 -3.6074)
(-0.026459 -2.23057 -3.89849)
(0.0568857 -1.42379 -4.15394)
(0.166428 -1.36992 -4.10435)
(0.13235 -1.85738 -4.02323)
(-0.0253989 -2.18381 -4.05194)
(-0.185631 -2.15643 -4.19348)
(-0.28227 -2.02566 -4.20007)
(-0.104557 -1.76623 -4.22687)
(-0.0876733 -2.13051 -4.10311)
(-0.245507 -2.28028 -4.23871)
(-0.539149 -2.03264 -4.60849)
(-0.905777 -0.967414 -4.76528)
(-1.05009 0.66656 -4.56689)
(-1.00053 2.0433 -3.52891)
(-0.82825 2.55392 -1.80091)
(-1.36755 2.68533 -1.31778)
(-1.55977 0.822398 -0.404919)
(-0.72727 -1.26511 -0.0855715)
(-0.00581498 -1.4611 0.1342)
(0.203489 -1.71228 0.649953)
(0.692679 -2.29955 1.55174)
(1.05539 -5.38521 6.62417)
(0.522577 -11.2685 17.3396)
(0.151245 -9.23476 16.7942)
(-0.0394625 1.41152 -1.14779)
(-0.0557614 0.729165 -0.958547)
(-0.0569868 1.28856 -1.40571)
(0.0552716 1.31154 -1.88967)
(0.000909777 -1.32781 -2.00118)
(-0.00662261 -2.10694 -1.39496)
(-0.0110303 -2.3005 -0.265573)
(-0.0102855 -2.23409 0.572803)
(-0.0127287 -1.96758 0.615112)
(-0.133187 -1.4415 -2.39163)
(-0.269457 1.24658 -6.32449)
(-0.215119 0.625973 -8.21839)
(-0.117391 -0.848838 -9.50185)
(-0.0669508 -3.01526 -9.56422)
(-0.0333672 -6.9152 -5.98753)
(-0.00445076 -8.13245 -1.06169)
(0.0298349 -7.74899 2.01612)
(0.0814855 -6.9337 3.51821)
(0.174518 -6.54643 2.85516)
(0.117243 -3.12877 -4.25645)
(-0.10068 -0.750197 -5.61349)
(-0.169115 -0.555887 -5.71739)
(-0.236735 -0.418218 -5.50048)
(-0.194278 -0.497096 -5.16714)
(-0.0714507 -0.72293 -4.92773)
(-0.0121702 -1.14012 -4.90485)
(-0.0951466 -1.7719 -5.08638)
(-0.279887 -2.39785 -5.29037)
(-0.409017 -2.6024 -5.50401)
(-0.464187 -2.48757 -5.69174)
(-0.485346 -2.20664 -5.83146)
(-0.442436 -1.69149 -5.97865)
(-0.472902 -1.12067 -6.07064)
(-0.912729 -0.67106 -6.05239)
(-1.79167 -0.459515 -5.86656)
(-1.54864 -0.348814 -5.75741)
(-0.198596 -0.32252 -5.66207)
(0.552172 -0.373448 -5.42957)
(0.369571 -0.586849 -5.18648)
(0.0462182 -0.853021 -4.99298)
(-0.0396153 -1.08572 -4.84565)
(-0.0150921 -1.33953 -4.79055)
(0.0458839 -1.48262 -4.86881)
(0.102572 -1.7029 -5.12808)
(0.0921832 -2.07091 -5.20847)
(-0.0029697 -2.16828 -5.46847)
(-0.380049 -1.27358 -5.44741)
(-0.909348 0.1904 -4.19982)
(-0.426427 1.16196 -3.43104)
(0.141725 1.23489 -2.68339)
(-0.00682398 0.591321 -2.62904)
(-0.565572 -1.14724 -2.00232)
(-1.70365 -1.61406 -0.0255306)
(-1.66384 -0.758347 0.633982)
(-0.501353 -1.58836 0.189126)
(0.524911 -1.72216 0.679566)
(1.03521 -1.90988 1.50179)
(1.14068 -3.2275 4.41417)
(0.710227 -9.04951 17.095)
(0.246672 -9.37915 18.7914)
(0.000630246 3.4999 -17.9735)
(0.000958853 -0.00233387 -4.00986)
(0.00151505 -0.396447 -1.46995)
(0.00202277 -1.54861 -1.45352)
(0.00240851 -1.92643 -1.19816)
(0.0027695 -2.60954 -1.42492)
(0.00142082 -2.8904 -1.57472)
(-0.00734069 -2.78394 -1.83397)
(-0.0736061 -2.4307 -2.10543)
(-0.177265 -2.2473 -2.26712)
(-0.257185 -2.44629 -2.34832)
(-0.209333 -3.33001 -2.51435)
(-0.109221 -4.42084 -2.49995)
(-0.0365601 -5.17352 -2.41097)
(0.0320777 -5.54871 -2.28431)
(0.103391 -5.71951 -2.07176)
(0.135455 -5.69383 -1.89848)
(0.0721161 -5.55325 -1.89424)
(0.0249073 -5.4749 -1.9222)
(0.0185006 -5.55175 -2.03509)
(0.0197553 -5.69365 -2.17793)
(0.0205547 -5.75744 -2.26301)
(0.0163329 -5.72898 -2.29686)
(0.00986204 -5.64902 -2.28122)
(0.00748807 -5.65619 -2.27995)
(0.00803006 -5.86241 -2.36564)
(0.00630225 -6.22365 -2.57301)
(-0.00366153 -6.48963 -2.75873)
(-0.039565 -6.43663 -2.83008)
(-0.0571076 -6.16245 -2.7818)
(-0.0618839 -5.6955 -2.7282)
(-0.075588 -5.27743 -2.68767)
(-0.076754 -4.96785 -2.56354)
(-0.0585728 -4.73988 -2.35502)
(-0.037207 -4.60108 -2.14862)
(-0.0209654 -4.54521 -1.99418)
(-0.0121691 -4.51082 -1.93295)
(-0.00867423 -4.478 -1.8931)
(-0.00803926 -4.44339 -1.8537)
(-0.00742356 -4.38496 -1.80804)
(-0.00515338 -4.2677 -1.73677)
(-0.00201732 -4.12137 -1.65329)
(0.00177048 -4.04451 -1.61185)
(0.00793431 -4.013 -1.60644)
(0.0174348 -4.18871 -1.73333)
(0.0270907 -4.524 -2.00682)
(0.0280683 -4.65223 -2.20466)
(0.015592 -4.21488 -2.28277)
(0.00434326 -2.88348 -2.42599)
(0.00210839 -1.76242 -2.18943)
(0.00203297 -1.8853 -1.32136)
(-0.0629624 -2.24454 -0.791624)
(-2.23532 -1.89165 -0.608879)
(-1.97968 -0.599288 0.227684)
(-1.18927 -1.34807 0.75771)
(0.577157 -1.50469 0.799723)
(0.85796 -1.4382 1.30355)
(1.06489 -2.03254 3.67776)
(0.82043 -6.4039 17.0383)
(0.367999 -8.22833 21.2798)
(0.000502738 6.26163 -19.5311)
(0.00076001 1.35235 -3.85065)
(0.00127182 -0.0577967 -1.26131)
(0.00158223 -1.12267 -1.18771)
(-0.000453565 -1.59892 -0.827834)
(-0.000904711 -2.17344 -0.728412)
(0.000898723 -2.75934 -0.693299)
(0.00190235 -3.23535 -0.6781)
(-0.00262112 -3.37724 -0.703278)
(-0.0570055 -3.0715 -0.958413)
(-0.168464 -2.5191 -1.21958)
(-0.199981 -2.17002 -1.08286)
(-0.129757 -2.50218 -0.910324)
(-0.0596169 -3.308 -0.925667)
(-0.0137235 -3.8619 -0.884095)
(0.0378863 -4.18959 -0.836864)
(0.0768555 -4.66599 -0.818626)
(0.0664825 -5.10295 -0.856248)
(0.0177619 -5.38481 -0.973337)
(0.00478623 -5.29441 -1.00961)
(0.0039818 -5.01504 -1.03943)
(0.00433228 -4.84125 -1.06845)
(0.00618444 -4.81305 -1.0983)
(0.0108131 -4.85765 -1.11232)
(0.0186194 -4.97543 -1.12684)
(0.0253324 -5.17466 -1.17357)
(0.0217492 -5.51903 -1.29421)
(0.0104676 -6.11084 -1.52676)
(-0.000565513 -6.60356 -1.74534)
(-0.025339 -6.51775 -1.80475)
(-0.0587103 -6.09102 -1.72467)
(-0.0599131 -5.52484 -1.54191)
(-0.0632996 -5.03702 -1.34683)
(-0.0571944 -4.75206 -1.18564)
(-0.0345526 -4.62529 -1.08706)
(-0.0128513 -4.57222 -1.0728)
(-0.00210149 -4.55101 -1.10749)
(0.00126254 -4.50417 -1.1225)
(0.00193143 -4.42504 -1.11024)
(0.00226825 -4.31545 -1.08408)
(0.00275563 -4.15263 -1.03908)
(0.00283286 -3.9587 -0.992199)
(0.00405658 -3.76814 -0.935846)
(0.00721247 -3.63599 -0.887908)
(0.0104053 -3.64901 -0.900635)
(0.0111994 -3.79682 -1.04455)
(0.00783063 -3.62395 -1.20534)
(0.00251556 -2.95121 -1.21117)
(0.000640629 -1.79724 -0.884512)
(0.00192923 -1.08494 -0.393471)
(0.00651685 -1.13271 -0.0974161)
(-0.0225305 -1.52817 -0.176376)
(-1.42637 -1.33741 -0.899112)
(-1.41257 -0.328068 -0.016119)
(-0.654515 -0.998431 0.637802)
(0.382918 -1.14122 1.05071)
(0.669975 -1.24849 1.50818)
(0.976261 -1.78345 3.77701)
(0.821363 -4.67192 17.3027)
(0.38736 -5.656 22.1459)
(0.000155447 4.34148 -12.2416)
(0.000253202 0.923201 -1.0189)
(0.000476586 -1.09108 -0.235375)
(0.000673117 -2.01283 -0.66746)
(0.000758047 -2.11563 -0.907291)
(0.000845554 -2.31026 -0.979798)
(0.000706585 -2.52106 -0.891133)
(-0.000212823 -3.20105 -0.782419)
(-0.0111091 -3.93222 -0.728043)
(-1.48483 -2.20087 1.73233)
(-0.664751 -2.96451 -0.746908)
(-0.323338 -2.21428 -1.27167)
(-0.213214 -2.97273 -1.10548)
(-0.100968 -4.18546 -1.02872)
(-0.0242631 -4.86786 -1.12028)
(0.0780694 -5.29795 -1.08041)
(0.182601 -5.7959 -0.98617)
(0.175189 -6.6686 -1.03989)
(0.0307967 -7.27509 -1.07537)
(-0.000226015 -7.1265 -0.969069)
(-0.00261865 -6.36008 -1.00677)
(-0.00207369 -5.82535 -1.07355)
(0.000232644 -5.63674 -1.11741)
(0.00341714 -5.63933 -1.15052)
(0.00734978 -5.77559 -1.19063)
(0.00980422 -6.01775 -1.25684)
(0.00876327 -6.30228 -1.32251)
(0.0054824 -6.59009 -1.31507)
(-0.00176105 -6.89117 -1.25627)
(-0.0557862 -7.10713 -1.26184)
(-0.357905 -6.98452 -1.40448)
(-0.0917646 -6.64833 -1.62463)
(0.112649 -6.36216 -1.32178)
(0.0258453 -6.10629 -1.07856)
(0.0004276 -5.9489 -1.13452)
(-0.000714573 -5.85778 -1.20646)
(-0.000923014 -5.80629 -1.27313)
(-0.00147001 -5.79052 -1.34534)
(-0.00220115 -5.75805 -1.35377)
(-0.00184486 -5.65619 -1.29871)
(-0.000501072 -5.44784 -1.20328)
(0.000722611 -5.16139 -1.1132)
(0.00178126 -4.85446 -1.00571)
(0.00259518 -4.54135 -0.895742)
(0.00513267 -4.20867 -0.79331)
(0.0104692 -3.91804 -0.803335)
(0.0103999 -3.57086 -1.1533)
(-0.000238031 -3.09967 -2.11536)
(-0.00923662 -2.50042 -2.91375)
(0.00832287 -1.68442 -2.12818)
(0.041408 -1.4853 -0.647419)
(-0.207996 -1.33949 -0.248679)
(-1.70683 1.00157 -0.547002)
(-1.54019 0.145309 0.125456)
(-0.656928 -0.715252 0.285068)
(0.50467 -0.89324 0.711589)
(0.785005 -1.15617 1.46793)
(1.01268 -1.86904 4.29791)
(0.828544 -3.24724 17.9631)
(0.396408 -3.57974 22.9935)
(0.0512571 3.74454 -1.75101)
(-0.00229684 1.05111 -0.920816)
(-0.0385232 -0.470219 -1.50901)
(-0.00284132 -0.906368 -2.12935)
(0.00116449 -0.89169 -2.29612)
(-8.47158e-05 -1.31291 -1.798)
(-0.00323943 -2.12964 -1.31961)
(-0.0292391 -3.45937 -1.309)
(-0.209373 -4.36825 -1.99195)
(-0.53782 -4.62996 -2.6967)
(-1.27643 -3.85139 -3.1733)
(-2.79626 -2.49123 -3.33487)
(-3.74682 -2.15958 -2.51434)
(-1.83192 -3.70057 -2.17996)
(-0.14896 -4.48429 -2.09575)
(0.157923 -4.93907 -2.17455)
(0.251465 -5.46679 -2.33209)
(0.312721 -6.11361 -2.7189)
(0.324132 -7.74136 -3.06953)
(-0.0104308 -8.78471 -1.87674)
(-0.0864179 -8.07048 -1.79538)
(-0.111067 -6.92034 -2.14845)
(-0.0574993 -6.36255 -2.34774)
(-0.0530554 -6.20392 -2.40723)
(-0.154933 -6.218 -2.51854)
(-0.15131 -6.21731 -2.79607)
(0.260639 -6.14783 -3.09778)
(1.40265 -6.0774 -2.99395)
(2.8323 -6.87431 1.21953)
(-6.96552 -3.83365 4.45889)
(-5.5414 -1.01296 5.46335)
(-4.68896 -3.84823 3.94697)
(0.932932 -4.65201 -4.9074)
(1.14941 -5.21736 -4.34682)
(0.847177 -6.26898 -2.70822)
(0.120258 -6.67707 -1.60698)
(-2.7 -6.46046 -1.28543)
(-5.49595 -5.59591 -0.616584)
(-3.72979 -6.24634 -0.543264)
(3.91445 -3.16396 -5.00375)
(3.4619 -3.48411 -4.67932)
(1.03205 -5.56318 -2.13016)
(-0.039987 -5.4322 0.935146)
(0.227641 -4.85866 0.991285)
(0.791179 -4.21925 0.881948)
(0.651952 -3.54533 -0.756645)
(0.0957448 -1.54098 -2.64207)
(-0.225848 -0.866681 -3.52331)
(-0.343183 -0.436678 -5.02026)
(0.462764 -0.461966 -3.77155)
(1.0007 -0.699537 -0.441621)
(-2.07019 0.766732 1.17379)
(-2.01089 1.08864 1.21172)
(-1.88663 0.132221 0.660782)
(-1.18208 -0.688932 0.598623)
(0.841505 -0.691561 0.744929)
(1.35118 -0.357961 1.48962)
(1.29287 -0.545451 3.75891)
(0.859566 -0.447426 17.1145)
(0.349844 -0.747985 22.3753)
(-0.38527 -2.78163 -1.10475)
(-0.829457 -0.0722593 -0.341215)
(-0.294061 -0.981615 -1.21637)
(-0.0646189 -0.771844 -1.88774)
(-0.0221294 -0.154285 -1.94906)
(-0.0175754 -0.11179 -1.08099)
(-0.0368643 -1.46693 -0.536307)
(-0.0605648 -2.28886 -1.91361)
(-0.0604677 -2.46224 -2.79582)
(-0.281513 -2.91186 -4.06379)
(-2.29328 -3.49045 -3.08744)
(-2.99555 -2.0383 -1.66661)
(-3.05321 -1.74604 0.0278559)
(-2.26093 -2.97705 1.9872)
(-0.977609 -4.34349 2.47271)
(-0.309022 -5.10248 1.36298)
(0.45178 -5.43908 0.201776)
(1.50561 -5.38448 -1.47217)
(3.22576 -4.76346 -3.24709)
(4.86242 -6.37311 -3.31343)
(0.288533 -8.07187 3.00245)
(0.010512 -6.81954 2.99745)
(-0.000555911 -6.1936 2.88613)
(-0.0316585 -6.02261 2.82534)
(-0.180753 -6.10561 2.93655)
(-0.333331 -6.39532 3.19551)
(-0.113998 -6.79032 3.42181)
(1.42287 -7.14295 3.61729)
(6.08231 -6.24046 3.5609)
(2.29343 -5.94019 5.20997)
(-5.03234 -0.933077 5.72199)
(-7.48533 -0.719826 2.99486)
(-3.67083 -4.71981 2.28016)
(2.61957 -5.52702 1.10517)
(2.65667 -5.77997 0.489679)
(0.840684 -6.14862 0.509552)
(0.0283983 -6.29607 0.81485)
(-0.356222 -5.49204 3.36035)
(-2.60065 -4.44835 4.28287)
(-3.7241 -3.51923 4.51322)
(3.32627 -5.10605 2.32911)
(4.75742 -4.53 0.661344)
(1.65808 -4.71504 0.826956)
(0.0595102 -3.94217 1.14013)
(-0.829691 -3.0729 0.478793)
(-2.75571 -0.868379 -2.18198)
(-0.787602 1.86907 -3.93129)
(0.806104 2.41034 -4.45038)
(0.729222 2.3236 -4.6429)
(0.560983 1.67326 -3.16904)
(0.676063 -0.622333 0.267528)
(-2.29426 0.593505 1.39132)
(-2.26768 1.24917 1.03199)
(-2.04709 0.13066 0.325477)
(-1.12238 -0.706656 1.70536)
(0.686962 -0.54023 2.16641)
(1.33843 -0.10461 2.15814)
(1.34012 0.85227 3.8809)
(0.87051 2.41494 16.9243)
(0.347015 1.68605 22.2643)
(-7.18729e-05 -6.03302 -12.1103)
(-0.000252785 -1.65597 -0.534874)
(-0.00351276 -0.860479 -0.190551)
(-0.00832916 -0.372141 -0.603706)
(-0.00978776 0.10553 -0.833221)
(-0.0118625 -0.277256 -0.293997)
(-0.01356 -1.79901 0.561395)
(-0.00810768 -3.38773 0.743847)
(0.00860357 -3.91248 0.0706215)
(0.0540101 -4.40345 -1.96894)
(0.1975 -3.06041 -6.2541)
(-1.39212 -0.706168 -2.61736)
(-2.89013 -1.20509 -1.07466)
(-3.98438 -0.511814 1.19481)
(-3.05329 -2.48154 2.28529)
(-0.633086 -3.60874 2.22734)
(0.0504665 -4.08327 2.20218)
(0.697287 -4.788 1.91731)
(1.80158 -5.52227 1.06457)
(2.23812 -6.57566 1.0132)
(0.235551 -7.5662 1.78245)
(-0.0047907 -6.79613 1.37881)
(-0.00819416 -6.25084 1.22777)
(-0.00472893 -6.12276 1.2193)
(-0.000955949 -6.16997 1.24968)
(0.00178725 -6.34844 1.31004)
(0.00629423 -6.60564 1.38082)
(0.00912379 -6.87626 1.45963)
(0.00581896 -6.91139 1.47441)
(-0.00300481 -6.61784 1.25812)
(-0.118907 -6.21745 0.239145)
(-1.32019 -5.61868 -1.76419)
(-0.732278 -5.37326 1.48304)
(0.0200528 -5.40082 1.53624)
(0.0127676 -5.63175 0.991367)
(0.000499816 -5.68789 1.00876)
(-0.00292246 -5.68584 1.06489)
(-0.0032148 -5.64035 1.09848)
(-0.00514854 -5.55004 1.10664)
(-0.00788466 -5.3902 1.0968)
(-0.00410573 -5.07758 1.0447)
(0.00180524 -4.70919 0.977052)
(0.00537052 -4.24699 0.921847)
(0.00345556 -3.54814 0.814978)
(-0.010303 -2.58345 0.573301)
(-0.0253596 -0.999819 -0.137719)
(-0.0114009 0.697949 -1.01009)
(0.0166311 1.84133 -1.89324)
(0.0269754 2.29268 -2.84891)
(0.131206 1.53374 -2.02674)
(0.148642 -0.284824 0.196828)
(-1.01267 -0.692007 1.17097)
(-1.72952 0.359776 0.507295)
(-1.25368 -0.390452 0.00189188)
(-0.297329 -0.776345 1.33317)
(0.444726 -0.397866 1.81078)
(0.80437 0.180693 2.31503)
(1.09665 2.41092 5.73173)
(0.806154 4.54196 18.2943)
(0.379292 4.16115 22.9185)
(-0.000177448 -7.39193 -20.7006)
(-0.0520629 -2.12917 -6.04568)
(-0.071957 -0.656848 -1.40989)
(-0.0590881 0.253074 -0.432002)
(-0.0617194 0.301341 0.119871)
(-0.0973947 -1.13687 0.617719)
(-0.116721 -2.16255 1.45842)
(-0.0430391 -2.55172 1.95779)
(0.00931904 -2.98341 1.71182)
(0.0529523 -3.09286 1.37001)
(0.0772643 -2.73928 0.874888)
(0.052346 -2.84154 -0.254817)
(-0.141316 -4.98679 -0.990823)
(-1.77157 -6.31958 -0.352547)
(-3.71825 -3.67303 1.92088)
(-2.34638 -2.38393 3.72454)
(-0.648176 -3.84363 3.35358)
(0.144643 -4.13577 3.34673)
(0.904317 -4.65076 3.25119)
(2.62441 -4.89282 3.29673)
(3.57339 -4.85651 3.14373)
(0.226418 -5.55333 1.94953)
(-0.00171131 -5.58558 1.33785)
(0.00185677 -5.66402 1.25623)
(0.00782214 -5.86844 1.29678)
(0.0114815 -6.23343 1.36146)
(0.00515963 -6.52432 1.33859)
(-0.00781992 -6.27897 1.11789)
(-0.055136 -5.50789 0.597603)
(-0.688894 -4.97154 -0.783425)
(-2.99581 -1.1255 -5.07814)
(-2.10045 3.87885 -4.17428)
(4.66061 2.15264 3.23681)
(4.37948 -2.09873 3.48178)
(0.525929 -5.3031 1.20504)
(0.000634632 -5.09074 -1.60518)
(-0.0190624 -5.13982 -0.581855)
(-0.109278 -4.93321 -0.120921)
(-0.415165 -4.53055 0.617542)
(-0.472787 -3.98301 0.519815)
(0.0114419 -3.42831 0.374653)
(0.564776 -2.76483 0.350438)
(0.493825 -1.91665 0.360712)
(0.0530559 -0.943327 -0.374504)
(-0.107478 0.318364 -1.20901)
(-0.078328 1.60596 -1.53731)
(-0.0341082 2.76521 -1.92566)
(-0.00600871 3.38639 -2.39087)
(0.0223007 2.95612 -2.4967)
(0.106302 1.56208 -1.66637)
(0.0791005 -0.330353 0.0419966)
(-1.39942 -0.313134 0.887258)
(-1.40237 0.365373 0.47746)
(-1.0783 -0.267045 0.333451)
(-0.0373236 -0.583398 0.921026)
(0.463324 -0.25365 1.4389)
(0.758538 0.416034 2.32692)
(0.940652 2.81362 8.42246)
(0.656768 4.94233 19.5833)
(0.311538 5.60827 22.0594)
(-0.000172374 -3.52568 -17.5222)
(-0.000207444 -1.64067 -3.9533)
(-0.0506164 -3.27499 -0.1638)
(-0.152543 -3.65199 0.256145)
(-0.138746 -4.05127 1.20644)
(-0.048257 -3.91184 1.72528)
(0.0017747 -3.69961 2.05425)
(0.0415111 -3.57658 2.13265)
(0.0621846 -3.07685 1.80107)
(0.0556503 -2.26852 1.57543)
(-0.10307 -0.405224 0.459011)
(-3.13672 -4.94169 -1.98026)
(-3.20077 -6.04711 -0.812981)
(-1.80319 -6.22743 1.9593)
(-0.465138 -6.29208 3.17333)
(-0.112787 -6.22388 3.67708)
(0.115056 -5.29617 4.54422)
(0.540397 -2.80308 6.17015)
(1.33434 0.262932 7.48731)
(2.84253 1.40808 7.42675)
(3.7281 -1.90456 4.56376)
(-0.00973206 -4.40799 2.51434)
(-0.00423745 -5.04983 2.27385)
(0.0228603 -5.28421 2.2067)
(0.0112143 -5.31948 2.13206)
(-0.0293634 -5.21734 1.9887)
(-0.102773 -4.92934 1.78875)
(-0.155526 -4.54513 1.56469)
(-0.187582 -4.31182 1.3818)
(0.313189 -4.19396 1.32658)
(5.4175 0.619636 3.25238)
(3.93569 1.52995 3.81193)
(1.27797 1.54758 4.41012)
(-2.91407 2.3166 -4.26726)
(-5.24281 1.06454 -3.42954)
(-4.44001 1.50926 -3.65859)
(0.902728 -1.5096 -4.19243)
(3.9932 -2.70875 -0.349859)
(2.50719 -2.45211 1.21565)
(0.103054 -1.87039 1.85905)
(0.180822 -1.41547 1.77257)
(0.530866 -1.20883 1.30403)
(-0.129195 -0.939658 0.729075)
(-3.41699 3.49744 -0.811889)
(-1.3248 5.93015 -2.33984)
(0.00139188 7.18768 -2.57492)
(0.256976 7.43308 -2.39049)
(0.99442 6.88335 -2.32085)
(0.842379 5.83748 -2.1607)
(0.413229 4.08325 -1.62476)
(0.0278061 1.90811 -0.191222)
(-0.489326 0.583222 1.13894)