/*--------------------------------*- C++ -*----------------------------------*\
| =========                 |                                                 |
| \\      /  F ield         | OpenFOAM: The Open Source CFD Toolbox           |
|  \\    /   O peration     | Version:  2.1.1                                 |
|   \\  /    A nd           | Web:      www.OpenFOAM.org                      |
|    \\/     M anipulation  |                                                 |
\*---------------------------------------------------------------------------*/
FoamFile
{
    version     2.0;
    format      ascii;
    class       volScalarField;
    location    "0.0015";
    object      alpha1;
}
// * * * * * * * * * * * * * * * * * * * * * * * * * * * * * * * * * * * * * //

dimensions      [0 0 0 0 0 0 0];

internalField   nonuniform List<scalar> 
36520
(
-3.86578e-12
-3.14307e-13
-3.44043e-13
-4.02106e-13
-4.9854e-13
-5.95245e-13
-6.99584e-13
-8.1541e-13
-9.54621e-13
-1.13494e-12
-1.38352e-12
-1.72575e-12
-2.21136e-12
-2.88925e-12
-3.82583e-12
-5.07531e-12
-6.69457e-12
-8.71885e-12
-1.11548e-11
-1.39543e-11
-1.70203e-11
-2.02135e-11
-2.33919e-11
-2.64329e-11
-2.92689e-11
-3.18323e-11
-3.41844e-11
-3.59052e-11
-3.70848e-11
-3.83386e-11
-4.00573e-11
-4.21359e-11
-4.41452e-11
-4.53348e-11
-4.49629e-11
-4.22416e-11
-3.68588e-11
-2.94708e-11
-2.10549e-11
-1.28839e-11
-6.26716e-12
-1.9831e-12
-5.56288e-16
7.00941e-17
1.16315e-11
8.6633e-11
6.47282e-10
2.75604e-09
6.09374e-09
8.32189e-09
1.59785e-08
-5.73984e-09
9.91489e-06
0.00312912
0.070795
0.329661
0.492448
0.557227
0.765631
0.900563
-5.67553e-12
-3.32706e-12
-3.28555e-12
-3.56762e-12
-3.96437e-12
-4.31795e-12
-4.78608e-12
-5.36928e-12
-6.15389e-12
-7.22924e-12
-8.69643e-12
-1.06516e-11
-1.32225e-11
-1.64306e-11
-2.02906e-11
-2.46108e-11
-2.92451e-11
-3.39731e-11
-3.86252e-11
-4.29581e-11
-4.67517e-11
-4.974e-11
-5.17579e-11
-5.26446e-11
-5.25069e-11
-5.15612e-11
-4.89238e-11
-4.43189e-11
-3.84564e-11
-3.37682e-11
-3.27254e-11
-3.06233e-11
-2.75429e-11
-2.46134e-11
-2.15229e-11
-1.74894e-11
-1.129e-11
-2.33696e-12
1.44441e-11
2.20151e-10
7.05731e-10
9.98781e-10
8.60553e-10
1.85888e-10
1.19171e-11
1.18842e-11
9.89397e-11
1.42396e-09
5.57482e-09
2.49389e-08
7.27422e-07
1.30648e-05
3.75821e-05
3.61705e-05
3.56897e-06
3.95637e-06
0.000473647
0.00389525
0.131404
0.947646
-8.6839e-12
-6.82759e-12
-6.29246e-12
-6.11583e-12
-5.99931e-12
-5.78665e-12
-5.70865e-12
-5.7616e-12
-6.09796e-12
-6.75044e-12
-7.73727e-12
-8.96428e-12
-1.02969e-11
-1.14178e-11
-1.20323e-11
-1.1882e-11
-1.12166e-11
-1.04489e-11
-9.74328e-12
-8.36774e-12
-6.23782e-12
-3.16457e-12
-3.51956e-13
1.63392e-17
-1.0876e-17
7.85425e-12
1.95005e-11
3.01322e-11
6.28182e-11
1.01653e-10
8.40112e-11
4.10704e-11
1.89146e-11
1.06109e-11
8.03427e-12
7.78453e-12
2.75905e-11
1.09909e-10
2.70709e-10
4.33688e-10
5.10422e-10
5.44267e-10
5.42875e-09
4.50861e-08
8.79588e-08
7.96875e-08
1.65875e-08
8.57884e-09
2.03944e-08
3.18732e-07
4.93206e-06
5.73318e-05
0.000476474
8.90965e-05
3.88902e-06
4.98647e-06
0.00013418
0.00188029
0.0566026
0.911555
-1.00885e-11
-7.41631e-12
-6.36232e-12
-5.40985e-12
-4.38065e-12
-3.00015e-12
-1.22881e-12
-9.66852e-21
-2.37268e-20
-5.71879e-21
5.64341e-20
7.27737e-20
-2.1008e-19
5.89579e-19
1.80826e-13
9.8958e-13
1.36862e-12
4.21078e-12
3.14338e-11
1.19536e-10
3.19589e-10
7.35184e-10
1.56562e-09
3.02739e-09
5.45766e-09
8.71025e-09
1.13327e-08
1.27254e-08
1.60437e-08
2.1935e-08
2.64509e-08
2.39188e-08
1.95301e-08
1.48148e-08
1.11156e-08
8.25564e-09
6.00722e-09
4.58867e-09
4.05959e-09
4.04791e-09
4.36896e-09
4.55247e-09
6.58197e-09
2.7129e-08
7.94298e-08
1.01809e-07
8.73685e-08
1.02912e-07
2.01841e-07
1.11441e-06
1.34886e-05
0.000164933
0.000612282
0.00026675
1.66505e-05
6.52333e-06
0.000181007
0.00494069
0.0324747
0.853559
-6.72202e-12
-2.58328e-12
-5.00429e-19
5.63693e-19
1.76856e-12
1.23904e-11
2.70027e-11
4.70785e-11
7.6579e-11
1.23903e-10
1.79688e-10
2.47433e-10
3.37421e-10
4.68958e-10
6.54167e-10
9.44759e-10
1.40269e-09
2.215e-09
3.87437e-09
7.72918e-09
1.71434e-08
3.81259e-08
8.28592e-08
1.79816e-07
3.87029e-07
7.51765e-07
1.12659e-06
1.16073e-06
7.89097e-07
5.51968e-07
5.41681e-07
6.06562e-07
6.24865e-07
5.58411e-07
4.47958e-07
3.41351e-07
2.47144e-07
1.49804e-07
9.32184e-08
7.68612e-08
7.54651e-08
8.4962e-08
1.05079e-07
1.19316e-07
1.16998e-07
8.77955e-08
7.3509e-08
7.19787e-08
7.83171e-08
3.98319e-07
5.75121e-06
5.34303e-05
0.000140826
0.000182675
9.13495e-05
6.85881e-06
6.85501e-06
0.0010368
0.0475407
0.875306
-1.30898e-12
6.38491e-12
7.84824e-11
2.73139e-10
6.45377e-10
1.16192e-09
1.69448e-09
2.31214e-09
3.06262e-09
4.21074e-09
5.99214e-09
9.03764e-09
1.38837e-08
2.21544e-08
3.19102e-08
4.97299e-08
7.01579e-08
1.03745e-07
1.64851e-07
2.91097e-07
5.62122e-07
1.12794e-06
2.22112e-06
4.48684e-06
9.80372e-06
1.98417e-05
3.04618e-05
3.21802e-05
2.16676e-05
7.4067e-06
3.10948e-06
3.19207e-06
3.70216e-06
4.19136e-06
4.41206e-06
4.42368e-06
4.78402e-06
4.58074e-06
2.75917e-06
1.95302e-06
1.68312e-06
1.69518e-06
2.32601e-06
2.85273e-06
2.44554e-06
1.59394e-06
1.17508e-06
8.86285e-07
6.98962e-07
6.54927e-07
2.69813e-06
1.32522e-05
0.00010332
0.000590383
0.000369235
2.05705e-05
9.6887e-06
0.00258706
0.310523
0.950032
2.97172e-10
1.81202e-09
5.21041e-09
1.14709e-08
1.86138e-08
2.56974e-08
3.04493e-08
3.89812e-08
4.82588e-08
6.03064e-08
8.61105e-08
1.50358e-07
2.70766e-07
4.3432e-07
5.91284e-07
7.75369e-07
1.014e-06
1.30129e-06
1.6942e-06
2.53211e-06
4.45644e-06
8.20116e-06
1.27472e-05
1.77922e-05
2.78989e-05
5.2853e-05
0.000101977
0.000133803
0.000116202
5.32407e-05
1.33073e-05
8.79265e-06
9.60684e-06
1.16799e-05
1.42258e-05
1.45367e-05
1.56297e-05
2.12662e-05
3.08006e-05
3.86784e-05
3.81883e-05
3.35495e-05
3.04169e-05
3.73213e-05
4.39899e-05
4.21833e-05
3.61088e-05
3.23783e-05
3.0215e-05
2.81846e-05
2.49217e-05
2.55319e-05
0.000214101
0.000794702
0.000497621
4.803e-05
2.02879e-05
0.00310533
0.616037
0.971544
4.34253e-10
4.26632e-09
1.37803e-08
2.60347e-08
2.90044e-08
2.01999e-08
1.33389e-08
3.72054e-10
3.69849e-16
4.74272e-16
6.08579e-16
-3.26265e-16
-2.00529e-16
1.05847e-11
5.47765e-10
1.64948e-09
1.07283e-05
2.3087e-05
2.62706e-05
2.94497e-05
4.62396e-05
8.15778e-05
0.000125183
0.000161551
0.000175533
0.000173485
0.000178051
0.000239645
0.000265486
0.000176093
4.95587e-05
2.44457e-05
2.69798e-05
3.27391e-05
4.82462e-05
4.86132e-05
3.24665e-05
2.3252e-05
6.04899e-05
0.00022824
0.000236722
0.000236657
0.000140198
0.000117912
0.000163728
0.000211811
0.000222947
0.000233182
0.000247814
0.000247677
0.000250062
0.000230849
9.86729e-05
8.40999e-05
7.4997e-05
5.02651e-05
9.18742e-05
0.00239085
0.499201
0.968813
4.73098e-16
7.731e-17
1.74218e-16
-6.79681e-17
4.13528e-17
-1.62928e-16
1.56752e-16
1.99961e-14
9.7332e-07
1.98517e-06
7.35179e-06
2.56778e-05
7.63435e-05
0.000101084
2.70322e-05
7.98211e-10
1.43266e-08
2.12397e-05
6.79235e-05
0.000211253
0.00073552
0.00233607
0.00557044
0.0078427
0.00751707
0.00557729
0.003475
0.00247368
0.00187211
0.00132552
0.00091457
0.00062564
0.000360124
0.000155883
0.000103435
0.000112981
0.000141788
0.000167083
0.000166602
0.00015742
0.000155228
0.000168326
0.000198544
0.000243369
0.000312146
0.000405545
0.000512897
0.000626748
0.000751128
0.00078696
0.000745578
0.000575694
0.000165115
0.000129466
0.000310127
0.00122773
0.00207937
0.0143214
0.502006
0.96751
6.75718e-15
-1.40374e-15
2.16037e-14
1.80876e-15
-2.09952e-15
-3.45885e-17
6.56082e-14
2.08822e-05
6.14931e-05
0.000106465
0.000156931
0.000240231
0.000436449
0.000736732
0.000664627
0.000145883
2.77836e-09
5.22881e-06
4.59961e-05
0.000131701
0.000482942
0.00221561
0.00788884
0.0178027
0.0204177
0.0160281
0.00791392
0.00408405
0.00323731
0.00277266
0.00237588
0.00210376
0.00182174
0.00135176
0.000704582
0.000220524
0.000117892
0.000130893
0.000167911
0.000226513
0.000286948
0.00036132
0.000462807
0.000579983
0.000685906
0.000760971
0.00078852
0.000795892
0.000800119
0.000775553
0.000717134
0.000564168
0.000210609
0.000196481
0.000477218
0.00176341
0.00309097
0.0221497
0.619203
0.979918
-1.23127e-14
3.26009e-13
-2.98068e-12
1.95899e-08
-9.48895e-15
5.26484e-15
-4.38387e-12
5.33728e-12
-1.33639e-12
-2.9768e-15
3.88572e-06
3.24798e-05
0.000166709
0.000528669
0.000512031
0.000125406
7.94562e-08
3.51202e-06
5.09463e-06
1.04162e-05
0.000122747
0.00200072
0.0126177
0.0348835
0.0441293
0.0373821
0.0205808
0.00824288
0.0042486
0.00256234
0.0014384
0.000947469
0.000817154
0.000685415
0.000444947
0.000224252
0.00017266
0.000178636
0.000198335
0.000197815
0.000189185
0.000193546
0.000206395
0.000223137
0.000247129
0.000277844
0.000308157
0.000344158
0.000387667
0.000447351
0.000492075
0.000481248
0.000373968
0.000293919
0.000234053
0.000463436
0.00151013
0.0238111
0.680441
0.982314
6.44604e-09
5.65851e-08
4.51379e-07
1.14766e-06
1.1786e-06
2.38976e-07
1.35423e-07
1.7041e-07
2.74258e-07
5.13154e-07
1.9844e-06
7.66945e-06
2.18346e-05
4.69322e-05
4.33324e-05
1.32585e-05
5.41594e-06
1.07374e-05
2.02159e-05
3.1611e-05
3.23151e-05
3.23538e-05
4.47045e-05
0.000520339
0.00758468
0.0919966
0.156864
0.127315
0.0516067
0.00628606
8.98822e-05
3.6503e-05
7.34299e-05
0.000133096
0.000129728
0.000116249
0.000183021
0.000337822
0.000316715
0.000117872
8.91761e-05
9.03521e-05
9.57546e-05
0.000267277
0.000778002
0.000784535
0.000784524
0.000408585
0.000175438
0.000231386
0.000225807
0.000132554
0.000131039
0.000230123
0.000251707
0.000107757
9.30654e-05
0.00501688
0.69387
0.943029
1.48801e-08
1.22565e-07
7.78568e-07
2.09519e-06
2.92612e-06
3.9895e-06
5.90143e-06
8.83582e-06
1.39288e-05
2.18686e-05
2.93832e-05
2.99511e-05
1.98996e-05
1.30642e-05
1.29186e-05
2.97411e-05
0.000152744
0.000464224
0.000862845
0.000913873
0.00052417
7.88864e-05
2.83047e-05
7.871e-05
0.00114432
0.0188609
0.186752
0.331512
0.225885
0.0609163
0.00418367
7.43205e-05
8.43803e-05
8.28552e-05
7.506e-05
6.6298e-05
0.000102535
0.00029852
0.000332534
0.000300371
0.000119724
0.000139109
0.000182272
0.000182271
0.000234256
0.000719188
0.00062168
0.000266082
0.000186225
0.000268343
0.000249808
0.00013295
0.000113004
0.000393431
0.000444317
0.000177193
9.25678e-05
0.00658805
0.767611
0.873192
-7.56251e-15
3.80165e-14
1.53499e-07
4.67067e-06
4.05998e-06
4.96087e-06
9.62454e-06
1.87443e-05
3.21812e-05
5.16253e-05
8.30789e-05
0.000138809
0.000253603
0.00059275
0.00176437
0.00483961
0.0116428
0.0195691
0.019831
0.0130365
0.00347429
0.000256832
2.80614e-05
3.47041e-05
0.000111989
0.00114568
0.0265864
0.323842
0.49463
0.286797
0.0552954
0.00299238
0.000689743
0.000675252
0.000612707
0.000462138
0.000264311
0.000162737
0.000161023
0.000171963
0.000197307
0.000232865
0.000255925
0.000255418
0.000259998
0.000295027
0.000341184
0.000357795
0.000363593
0.000408597
0.000488426
0.000466591
0.000365855
0.00048033
0.00100818
0.00101816
0.00192162
0.0322181
0.778072
0.807087
1.99878e-14
5.74115e-14
2.70293e-14
1.20147e-05
2.16054e-05
3.07667e-05
3.9964e-05
5.53017e-05
9.78063e-05
0.000185537
0.0002528
0.000351167
0.000580569
0.0014091
0.0060591
0.0309917
0.096178
0.11076
0.086867
0.0374298
0.00660108
0.000413888
0.000124847
0.00014828
0.000201253
0.000665362
0.00321031
0.018337
0.123343
0.259965
0.189396
0.0504438
0.00331511
0.000252555
0.000228602
0.000232839
0.00028575
0.000297939
0.00022768
9.49934e-05
7.19776e-05
7.52056e-05
9.02388e-05
0.000144718
0.000254365
0.000402709
0.000448582
0.000420879
0.000346268
0.000295572
0.000282441
0.000270666
0.00027977
0.000424579
0.00102864
0.00131768
0.00151602
0.0199604
0.736744
0.751591
4.05811e-15
1.21479e-13
-1.53896e-13
5.81439e-06
3.15486e-05
5.88147e-05
8.5558e-05
0.000111053
0.000136774
0.000169719
0.000246419
0.000556851
0.00205487
0.00763413
0.0188628
0.0194841
0.0114144
0.00224651
5.10913e-05
5.99328e-07
7.33457e-07
5.55297e-06
4.36689e-05
0.000114529
0.000247459
0.000716622
0.0025711
0.00852688
0.0215153
0.0323614
0.0290086
0.0132439
0.00189682
0.000550127
0.000604443
0.000590978
0.000430392
0.000178445
9.29006e-05
0.000285982
0.00106275
0.00108694
0.000839006
0.000161415
6.62909e-05
0.00036358
0.000482589
0.000482308
0.000459562
0.000185139
8.65785e-05
7.09878e-05
0.000132505
0.000570801
0.00151157
0.00164713
0.00149189
0.0155491
0.647021
0.619756
1.53897e-10
4.11049e-10
3.67208e-10
1.01453e-16
1.26676e-16
1.03725e-16
1.44651e-16
1.28208e-16
-3.41684e-15
1.28996e-08
1.55578e-08
6.5005e-09
1.28805e-12
4.06437e-11
9.3515e-11
8.75911e-11
4.40255e-10
8.31732e-10
9.36255e-07
9.899e-07
7.38066e-07
3.07941e-07
1.71974e-08
3.6912e-13
3.2498e-12
5.41485e-06
5.24024e-05
0.000263923
0.000797045
0.00123083
0.00118683
0.00068949
0.000207945
0.000118255
8.49504e-05
4.26219e-05
3.05314e-05
4.13658e-05
0.000486278
0.000896222
0.000896305
0.000568081
0.000219213
5.93512e-05
6.16932e-05
0.000136837
0.000247147
0.000259998
0.000179856
7.40472e-05
2.39654e-05
2.26713e-05
4.10484e-05
0.000249383
0.000432275
0.00023007
0.000222092
0.00360012
0.538938
0.886945
-8.87508e-14
7.47679e-11
1.29006e-10
1.17478e-10
1.14263e-10
7.93684e-11
6.44241e-11
7.49415e-11
1.13268e-10
1.31188e-10
1.48666e-10
1.85795e-10
3.01695e-10
3.21948e-10
1.24541e-10
9.19857e-11
8.27825e-10
8.38235e-10
8.02557e-09
3.44244e-08
7.85589e-08
1.22009e-07
2.52282e-07
4.30815e-07
4.84688e-07
4.85342e-07
2.25952e-07
1.01293e-12
7.58577e-12
2.31322e-11
6.66615e-06
1.67776e-05
1.8672e-05
1.44919e-05
1.07813e-05
1.16889e-05
2.82568e-05
0.000106889
0.000194552
0.000193331
0.000108503
3.97165e-05
1.78585e-05
1.87539e-05
1.94967e-05
1.88937e-05
2.99801e-05
3.23936e-05
2.46321e-05
1.53009e-05
1.53014e-05
3.73884e-05
3.75859e-05
4.0782e-05
4.38551e-05
8.53453e-06
6.95024e-06
0.00139011
0.596503
0.982149
-1.30733e-10
-1.0481e-10
-7.75537e-11
-4.5239e-11
-2.69458e-11
-1.30823e-11
-7.81885e-12
-1.1057e-12
2.7093e-18
9.32071e-19
-3.46462e-17
6.22293e-17
1.07318e-10
5.2906e-10
7.46706e-10
7.59183e-10
7.16248e-10
1.15853e-09
3.57369e-09
1.31406e-08
6.26419e-08
2.73854e-07
7.97773e-07
1.33104e-06
1.33101e-06
9.34138e-07
1.13075e-06
1.34638e-06
1.28734e-06
1.20937e-06
1.08741e-06
9.8761e-07
1.32354e-06
1.88214e-06
3.05438e-06
5.91765e-06
1.0082e-05
1.31436e-05
4.63941e-06
2.88817e-06
1.92696e-06
1.36139e-06
1.04415e-06
1.29496e-06
6.52939e-07
3.49499e-07
5.06921e-07
8.25743e-07
3.09006e-06
1.93777e-05
9.77955e-05
0.000291481
0.000297694
0.00017047
1.9664e-05
2.35483e-07
7.46928e-08
0.000560899
0.364901
0.97114
-1.88011e-10
-2.03031e-10
-2.33758e-10
-2.64044e-10
-2.99224e-10
-3.36859e-10
-3.79813e-10
-4.23785e-10
-4.71713e-10
-5.16521e-10
-5.53363e-10
-5.65763e-10
-5.38391e-10
-4.57305e-10
-3.32128e-10
-1.81465e-10
2.31519e-12
3.66555e-10
1.50272e-09
2.08782e-09
2.82816e-09
3.53297e-09
5.66625e-09
2.43904e-08
6.04573e-08
1.26575e-07
1.87629e-07
2.05665e-07
1.75396e-07
1.02023e-07
5.11771e-09
-1.59795e-14
5.80041e-09
4.09959e-08
9.82619e-08
1.65445e-07
9.35231e-08
1.02709e-08
1.38198e-09
1.22721e-08
2.1215e-08
3.53282e-08
5.14678e-08
7.23976e-08
1.32865e-07
3.1974e-07
8.90499e-07
2.36228e-06
5.82466e-06
1.51232e-05
5.09517e-05
0.000315728
0.000993251
0.000806189
0.000141767
2.28299e-06
7.50837e-08
9.37121e-05
0.0908157
0.961412
-1.51798e-10
-1.77762e-10
-2.26045e-10
-2.78558e-10
-3.34769e-10
-3.95251e-10
-4.6032e-10
-5.30099e-10
-6.0809e-10
-6.92313e-10
-7.83209e-10
-8.75356e-10
-9.56491e-10
-1.00499e-09
-9.95281e-10
-9.09018e-10
-7.66767e-10
-5.91122e-10
-4.38214e-10
-3.0323e-10
-1.91285e-10
-1.08841e-10
-4.07885e-11
-1.33035e-16
2.5145e-10
6.11868e-10
8.81518e-10
8.6872e-10
5.85874e-10
1.7479e-11
-3.24446e-10
-3.1855e-10
-7.87564e-15
-1.31328e-14
6.32499e-15
9.41994e-13
3.63055e-12
3.26662e-10
1.381e-09
4.48822e-09
1.26223e-08
3.59643e-08
1.06146e-07
2.7578e-07
6.07007e-07
1.18981e-06
2.28501e-06
4.28726e-06
7.58427e-06
1.31759e-05
2.73228e-05
6.35832e-05
0.00069091
0.000888682
0.000161861
2.51063e-06
2.08174e-06
3.86646e-05
0.0407447
0.953815
-6.51894e-11
-7.46572e-11
-9.77745e-11
-1.26419e-10
-1.58418e-10
-1.9234e-10
-2.29914e-10
-2.70131e-10
-3.15864e-10
-3.67552e-10
-4.27518e-10
-4.95994e-10
-5.70564e-10
-6.45461e-10
-7.13767e-10
-7.68642e-10
-8.1075e-10
-8.37975e-10
-8.5017e-10
-8.44432e-10
-8.26739e-10
-8.10576e-10
-8.10215e-10
-8.20842e-10
-9.01995e-10
-1.01818e-09
-1.11926e-09
-1.15326e-09
-1.08938e-09
-1.02074e-09
-8.96857e-10
-6.78911e-10
-4.39545e-10
-2.4913e-10
-1.0978e-10
8.87888e-13
1.62429e-10
9.51828e-10
2.37815e-09
5.72345e-09
1.68865e-08
5.76728e-08
1.91075e-07
4.72266e-07
8.41938e-07
1.14348e-06
1.31883e-06
1.61615e-06
2.50871e-06
5.0998e-06
1.19873e-05
3.05987e-05
9.67859e-05
0.000378838
0.000224133
8.93325e-05
8.7308e-05
0.000725841
0.0663059
0.957397
-1.49916e-11
-1.26112e-11
-1.65852e-11
-2.22415e-11
-2.90438e-11
-3.63648e-11
-4.49091e-11
-5.4134e-11
-6.49247e-11
-7.72084e-11
-9.18295e-11
-1.08874e-10
-1.28513e-10
-1.50258e-10
-1.73764e-10
-1.98758e-10
-2.24504e-10
-2.53649e-10
-2.86866e-10
-3.24586e-10
-3.67466e-10
-4.14999e-10
-4.66571e-10
-5.19348e-10
-5.69982e-10
-6.12745e-10
-6.41276e-10
-6.4927e-10
-6.30726e-10
-5.81665e-10
-5.06297e-10
-4.2042e-10
-3.38306e-10
-2.65396e-10
-1.98538e-10
-1.32861e-10
-7.51047e-11
-3.42469e-11
-1.95039e-11
-6.24521e-12
6.17003e-12
8.36922e-10
5.87689e-09
2.01663e-08
5.10092e-08
1.06423e-07
1.98614e-07
3.16098e-07
4.08145e-07
7.63299e-07
2.33072e-06
1.03844e-05
4.4148e-05
0.000260567
0.00114899
0.00140413
0.000843973
0.00456397
0.171031
0.971783
-5.49614e-12
-4.0521e-13
-5.8113e-13
-8.31834e-13
-1.22377e-12
-1.69273e-12
-2.27152e-12
-2.9169e-12
-3.67722e-12
-4.55143e-12
-5.61126e-12
-6.89079e-12
-8.46538e-12
-1.0374e-11
-1.26861e-11
-1.54648e-11
-1.85581e-11
-2.24726e-11
-2.72757e-11
-3.31397e-11
-4.02145e-11
-4.85555e-11
-5.81145e-11
-6.86517e-11
-7.98028e-11
-9.10835e-11
-1.02013e-10
-1.12091e-10
-1.19905e-10
-1.21891e-10
-1.20046e-10
-1.17787e-10
-1.17033e-10
-1.16776e-10
-1.13502e-10
-1.03243e-10
-8.39525e-11
-5.76625e-11
-3.08909e-11
-1.17562e-11
-5.15058e-12
-2.73556e-12
4.00401e-17
2.21799e-10
3.23061e-09
9.24834e-09
1.5343e-08
2.38132e-08
3.09035e-08
4.48643e-08
1.55376e-07
1.68754e-06
1.54317e-05
6.04596e-05
6.59137e-05
0.00160627
0.0369533
0.351031
0.878799
0.979986
-1.87641e-12
-2.4962e-13
-3.1452e-13
-3.68016e-13
-4.63662e-13
-5.7445e-13
-7.21448e-13
-8.9241e-13
-1.1079e-12
-1.36106e-12
-1.67574e-12
-2.0488e-12
-2.50434e-12
-3.04641e-12
-3.69733e-12
-4.48221e-12
-5.43045e-12
-6.59744e-12
-8.02564e-12
-9.74737e-12
-1.17603e-11
-1.39969e-11
-1.63021e-11
-1.84091e-11
-1.9978e-11
-2.06905e-11
-2.03711e-11
-1.91114e-11
-1.73504e-11
-1.56292e-11
-1.43487e-11
-1.36485e-11
-1.35197e-11
-1.3828e-11
-1.42418e-11
-1.42608e-11
-1.34476e-11
-1.16885e-11
-9.34907e-12
-7.0874e-12
-5.48821e-12
-4.67015e-12
-4.71502e-12
-4.74922e-12
-3.93521e-12
-2.35807e-12
-4.21153e-13
3.30182e-12
1.68769e-11
2.45425e-10
2.35029e-08
1.75009e-07
2.1142e-07
3.45951e-06
0.000326287
0.0159034
0.212428
0.656212
0.828481
0.978746
-4.58595e-12
-4.92175e-12
-5.94494e-12
-7.56162e-12
-9.54837e-12
-1.17697e-11
-1.44803e-11
-1.75238e-11
-2.11953e-11
-2.52891e-11
-3.00998e-11
-3.5313e-11
-4.11101e-11
-4.70095e-11
-5.29281e-11
-5.84609e-11
-6.3373e-11
-6.7287e-11
-6.95146e-11
-6.90772e-11
-6.47016e-11
-5.51175e-11
-3.95231e-11
-1.81186e-11
6.45675e-12
1.17192e-10
4.02342e-10
7.086e-10
8.79545e-10
8.66828e-10
8.12981e-10
6.3372e-10
3.61638e-10
1.66514e-10
6.59753e-11
2.97978e-11
2.33375e-11
3.1438e-11
4.86243e-11
5.15193e-11
3.55537e-11
1.35387e-11
2.83427e-12
-2.55586e-13
-3.91029e-13
-2.40959e-13
-7.16912e-14
-1.74555e-14
-1.02566e-13
7.68858e-11
2.97895e-09
8.96889e-08
2.08169e-06
1.68958e-05
7.2346e-05
0.000238474
0.00010816
0.00267607
0.147827
0.976365
-1.15178e-11
-1.79219e-11
-2.35836e-11
-3.04961e-11
-3.82292e-11
-4.65238e-11
-5.54659e-11
-6.46917e-11
-7.41378e-11
-8.31008e-11
-9.11433e-11
-9.72313e-11
-1.00763e-10
-1.0059e-10
-9.63361e-11
-8.77562e-11
-7.46782e-11
-5.72705e-11
-3.50939e-11
-5.99427e-12
3.70605e-11
1.63605e-10
2.35923e-10
2.72318e-10
2.96915e-10
4.09179e-10
6.3019e-09
5.22365e-08
1.28278e-07
1.45355e-07
1.4251e-07
1.10104e-07
6.11577e-08
1.7235e-08
5.01849e-09
4.57316e-09
8.44439e-09
1.32211e-08
1.56234e-08
1.35545e-08
7.25871e-09
2.69501e-09
9.14734e-10
2.56507e-10
6.77232e-16
-1.57169e-16
6.41552e-10
1.51191e-09
1.82413e-09
1.6518e-09
1.6525e-09
1.68068e-07
3.37104e-06
1.48611e-05
0.000123646
0.000136242
4.10637e-05
0.000310298
0.0787735
0.969681
-4.43504e-11
-6.13187e-11
-8.20025e-11
-1.03822e-10
-1.25122e-10
-1.46771e-10
-1.67665e-10
-1.88712e-10
-2.08492e-10
-2.2695e-10
-2.41642e-10
-2.51091e-10
-2.522e-10
-2.42905e-10
-2.22086e-10
-1.91209e-10
-1.54108e-10
-1.14718e-10
-7.59215e-11
-3.89087e-11
-5.19393e-12
2.31749e-11
6.68404e-11
1.1449e-10
2.80448e-10
1.38736e-09
9.37435e-09
2.96388e-08
3.95611e-08
4.09384e-08
4.10106e-08
3.59409e-08
3.11739e-08
2.39712e-08
1.91032e-08
1.95442e-08
6.68014e-08
1.55581e-07
1.93827e-07
1.48876e-07
7.52914e-08
4.58102e-08
7.50305e-08
2.6673e-07
5.71342e-07
7.44071e-07
7.71613e-07
5.98681e-07
1.21086e-07
1.65298e-09
7.34051e-07
4.40528e-06
3.16167e-05
0.000221133
0.000251812
3.34782e-05
1.29656e-06
0.000146425
0.0958344
0.966473
-1.10139e-10
-1.44143e-10
-1.82373e-10
-2.13155e-10
-2.37035e-10
-2.54915e-10
-2.67481e-10
-2.76007e-10
-2.74142e-10
-2.63418e-10
-2.45812e-10
-2.23253e-10
-2.05571e-10
-1.86157e-10
-1.59779e-10
-1.2242e-10
-8.42494e-11
-4.29098e-11
-7.49679e-12
-3.33868e-17
-7.04858e-17
9.76878e-15
1.19002e-11
2.30967e-10
6.37795e-10
1.47573e-09
2.79443e-09
4.10471e-09
7.05636e-09
1.22901e-08
1.66787e-08
1.8143e-08
1.58492e-08
1.38671e-08
2.14484e-08
2.90418e-08
3.91906e-08
6.92623e-08
1.08553e-07
1.29148e-07
9.54242e-08
1.43761e-07
3.99197e-07
1.00666e-06
2.7102e-06
6.30318e-06
1.1837e-05
4.56942e-05
0.000228351
0.000431325
0.000443481
0.000443471
0.000686954
0.000686981
0.000418645
5.425e-05
6.73862e-07
1.39698e-05
0.222826
0.975576
-1.12125e-10
-1.15831e-10
-1.05041e-10
-9.37308e-11
-8.59344e-11
-8.25253e-11
-5.04677e-11
-3.72785e-12
-1.68908e-18
-7.17816e-18
2.75649e-17
3.16825e-12
1.21663e-10
3.03177e-10
5.35915e-10
9.34655e-10
1.57897e-09
2.61248e-09
4.21337e-09
6.79281e-09
1.10679e-08
1.79014e-08
2.64409e-08
3.43908e-08
4.1678e-08
4.75915e-08
5.13836e-08
5.3351e-08
5.35547e-08
4.91646e-08
4.20126e-08
3.41152e-08
2.84596e-08
2.74456e-08
5.82716e-08
1.19364e-07
1.30083e-07
1.2334e-07
1.48541e-07
1.49843e-07
1.25972e-07
1.26524e-07
5.85927e-07
3.45354e-06
3.20672e-05
0.00015599
0.00024074
0.000240733
0.000161126
0.000201942
0.000235599
0.000298083
0.000388446
0.000436198
0.000220165
2.21109e-05
3.18978e-07
0.000230951
0.558519
0.987415
-5.14454e-11
1.03161e-18
-2.37321e-17
1.34551e-16
1.19618e-10
2.4043e-09
4.3366e-09
4.91772e-09
5.11589e-09
8.2412e-09
1.66511e-08
3.81844e-08
8.25319e-08
1.48169e-07
2.16645e-07
2.73076e-07
3.00782e-07
3.47147e-07
4.33435e-07
5.46375e-07
6.60146e-07
7.40309e-07
7.68908e-07
7.64588e-07
7.58719e-07
7.49633e-07
7.61276e-07
7.9831e-07
8.77994e-07
9.90382e-07
1.10479e-06
1.1965e-06
1.27438e-06
1.29442e-06
1.25527e-06
1.17104e-06
1.21447e-06
1.3161e-06
1.21867e-06
8.87501e-07
6.1344e-07
4.60561e-07
7.3476e-07
3.01046e-06
1.08231e-05
2.18006e-05
2.65015e-05
2.79339e-05
2.21499e-05
2.90405e-05
4.05475e-05
6.22491e-05
8.47416e-05
9.71971e-05
6.91352e-05
6.78718e-06
2.89162e-06
0.000947238
0.77227
0.991597
4.45942e-10
9.56652e-09
4.86029e-08
1.12015e-07
1.13147e-07
6.72205e-08
9.20233e-08
1.41415e-07
2.07936e-07
2.84257e-07
3.79812e-07
5.3873e-07
8.12352e-07
1.26575e-06
1.98094e-06
2.60367e-06
2.97911e-06
3.21319e-06
3.60176e-06
4.36347e-06
5.39201e-06
6.07004e-06
5.96509e-06
5.86271e-06
5.95416e-06
6.0227e-06
6.0973e-06
6.12777e-06
5.95209e-06
6.08713e-06
6.77454e-06
8.31542e-06
1.08291e-05
1.35244e-05
1.52004e-05
1.52518e-05
1.43259e-05
1.20808e-05
9.80166e-06
9.4078e-06
9.91503e-06
9.88281e-06
9.71898e-06
9.58087e-06
9.74108e-06
7.96135e-06
1.02722e-05
2.50617e-05
4.91533e-05
5.04706e-05
5.7316e-05
7.8259e-05
0.000129548
0.000219863
0.000114051
1.54667e-05
1.14361e-05
0.00191383
0.651437
0.970991
5.98975e-09
5.65438e-08
9.16723e-08
9.4603e-08
1.03243e-07
3.02061e-07
4.0857e-07
4.71068e-07
6.14648e-07
8.42049e-07
1.03644e-06
1.15969e-06
1.30445e-06
1.51998e-06
1.44326e-06
1.30734e-06
1.5363e-06
4.06715e-06
9.51319e-06
1.74619e-05
2.00143e-05
2.24587e-05
2.78992e-05
3.42446e-05
3.77268e-05
3.86222e-05
3.7507e-05
3.50557e-05
3.2422e-05
3.05861e-05
3.05993e-05
3.37428e-05
4.03685e-05
4.95473e-05
5.86166e-05
7.08916e-05
9.04727e-05
0.000113058
0.000113735
0.00010223
8.94768e-05
8.39773e-05
8.04383e-05
7.75114e-05
7.72724e-05
8.20554e-05
9.80932e-05
0.000120347
0.000146542
0.000183329
0.000230869
0.000261329
0.000283894
0.000363722
0.000343261
0.000180912
0.000208285
0.00527302
0.442197
0.892015
4.86138e-15
2.82679e-16
-5.02102e-16
-4.41554e-16
1.17333e-15
-2.39063e-15
-5.85591e-15
-7.04459e-15
-3.40615e-15
1.86101e-13
-1.02693e-10
1.1506e-10
4.66036e-09
4.45527e-05
9.59048e-05
7.7891e-05
5.60176e-06
1.93379e-06
1.92899e-06
1.93364e-06
9.74135e-06
8.75449e-05
0.000217428
0.000351005
0.00038439
0.000425767
0.000542856
0.000678404
0.000734621
0.00070231
0.000654109
0.000651571
0.000649449
0.00061072
0.000507725
0.000341532
0.000222441
0.000210901
0.000223209
0.000239642
0.000261255
0.00031126
0.000436322
0.000670902
0.00103873
0.00155171
0.0021126
0.00251952
0.00272716
0.00278272
0.00269941
0.00238068
0.00157661
0.00108302
0.00134017
0.00253157
0.0041574
0.0364678
0.657864
0.819455
9.17374e-15
8.90618e-17
-2.51352e-16
-4.97263e-14
5.84464e-06
2.45507e-05
5.91545e-05
0.000125058
0.000281879
0.000720479
0.00175984
0.00303117
0.00375066
0.00484328
0.00647593
0.00632686
0.00438895
0.00164061
0.000552758
0.000594109
0.000853377
0.00191972
0.0035067
0.00289032
0.000938189
0.0003278
0.000317833
0.000321729
0.000295381
0.000246828
0.000221043
0.00022183
0.000230772
0.000246254
0.00024171
0.000215304
0.000205775
0.00021439
0.000244461
0.000322743
0.000424885
0.000503567
0.000564645
0.000626466
0.000711515
0.000852365
0.00107154
0.00138466
0.00171503
0.00181679
0.0017657
0.00159131
0.00115082
0.000879011
0.00100103
0.00185997
0.00358727
0.0327083
0.704637
0.980439
1.31601e-13
9.11103e-14
6.78106e-06
3.5134e-05
6.78951e-05
0.000100747
0.000144026
0.000223926
0.000406382
0.000854907
0.00188081
0.00456552
0.0148735
0.0493701
0.0821529
0.0791125
0.0597341
0.0475523
0.0555
0.131121
0.330498
0.334612
0.167352
0.0218502
0.000541031
0.000199352
0.000250114
0.000231919
0.000207199
0.000181335
0.000128912
5.8076e-05
3.89916e-05
0.000163516
0.000350639
0.000350545
0.000350639
0.000151283
0.000144681
0.000371657
0.000542356
0.00044862
0.00042243
0.000437252
0.000482334
0.000572692
0.000743364
0.000921904
0.000931151
0.000875075
0.000736199
0.000476276
0.000243249
0.000287848
0.000661682
0.000973775
0.00141602
0.0243096
0.748062
0.933897
9.55879e-15
1.57994e-14
4.67049e-15
1.34063e-06
3.57743e-06
6.73831e-06
8.9617e-06
1.32418e-05
2.91334e-05
9.36356e-05
0.000287356
0.000763642
0.00203021
0.00354018
0.00338673
0.00234311
0.00168343
0.00240094
0.00705917
0.0289084
0.0907451
0.119453
0.0867166
0.0269346
0.00568817
0.00211874
0.000757762
0.000211895
0.000141846
0.000139476
0.000128144
9.03328e-05
5.83168e-05
6.68692e-05
0.000169431
0.00034168
0.000234762
8.79567e-05
8.67398e-05
0.000101205
0.000222813
0.000329089
0.000319031
0.000295281
0.000271349
0.000258413
0.00026536
0.000322214
0.00047007
0.000544911
0.000513889
0.000352635
0.000267476
0.000565649
0.00179136
0.00151287
0.00138321
0.0247318
0.759326
0.743536
4.05329e-15
2.86289e-15
1.51169e-15
7.03906e-16
-1.06619e-15
-4.66894e-15
-1.8048e-14
-5.26207e-14
-7.43298e-14
-1.94553e-14
1.87647e-05
0.000126756
0.000155425
5.55807e-05
1.40379e-07
1.04587e-06
5.35929e-05
0.00015193
0.000432935
0.00133058
0.00400819
0.0126298
0.0312426
0.0390806
0.0320594
0.0144701
0.00257913
0.000236614
0.0001135
0.000102552
9.88819e-05
9.92008e-05
9.78253e-05
8.95256e-05
7.31562e-05
6.75309e-05
8.95881e-05
0.000150111
0.000190949
0.000188678
0.000186759
0.000195825
0.000216197
0.000222377
0.000218857
0.000206108
0.000193511
0.000194932
0.000215192
0.000269296
0.000303512
0.000282548
0.000287721
0.000551684
0.00103834
0.00109295
0.00148082
0.0204695
0.716718
0.577569
1.11688e-07
1.68095e-07
7.43302e-07
4.65657e-07
7.06949e-07
8.83887e-07
1.25805e-06
1.58196e-06
1.73768e-06
1.43818e-06
8.86623e-07
-6.45331e-12
-2.45926e-09
2.33976e-09
2.52419e-08
1.40574e-07
8.747e-06
1.97802e-05
5.99228e-05
0.000192339
0.00076785
0.00344717
0.0110614
0.0154458
0.012649
0.0051183
0.000621134
2.04765e-05
4.67404e-06
2.81103e-06
2.81109e-06
3.22932e-06
2.86177e-06
2.85933e-06
2.29282e-05
8.34055e-05
0.000195446
0.000278783
0.000230378
8.11326e-05
2.25105e-05
5.45137e-05
0.000129657
0.000131151
0.000124554
0.000118422
0.00010917
9.25614e-05
5.80538e-05
3.88227e-05
4.93444e-05
8.92113e-05
0.000137472
0.000210872
0.000264609
0.000280737
0.000598797
0.0116603
0.619
0.631818
1.95507e-06
4.20193e-06
4.31134e-06
4.59669e-06
4.53805e-06
4.82568e-06
4.24732e-06
4.07065e-06
3.46958e-06
3.55809e-06
2.93137e-06
1.9668e-06
1.75925e-06
2.23175e-06
2.3958e-06
2.42996e-06
2.8516e-06
6.0638e-06
3.31863e-05
0.000136014
0.000322401
0.000762562
0.00139999
0.00139347
0.000869385
0.000287467
0.000165433
0.000155958
0.000126815
0.000111663
0.000177273
0.000429341
0.000312652
7.13678e-05
3.40492e-05
0.00029421
0.000579818
0.000579374
0.000304429
7.48028e-05
6.03477e-05
0.000109319
0.000392363
0.000805636
0.000709705
0.000352467
0.000102802
2.27876e-05
2.29258e-05
2.31862e-05
7.35579e-05
0.000150548
0.00057749
0.00121154
0.000772684
0.000180211
5.95962e-07
0.00281924
0.460952
0.900513
1.44662e-07
-2.38348e-14
3.39961e-15
-6.20261e-15
3.69538e-13
9.60759e-15
-7.12209e-15
2.67339e-15
-2.84962e-14
4.79661e-07
2.01816e-06
1.74867e-06
1.59976e-06
9.47264e-07
5.42964e-07
5.6559e-07
6.4256e-07
1.42496e-06
2.62915e-06
1.15426e-05
6.01618e-05
0.000134372
9.21854e-05
1.50343e-05
7.21471e-06
1.18194e-05
2.64237e-05
2.50862e-05
3.14491e-05
7.75361e-05
0.000159389
0.000154205
9.71038e-05
4.19892e-05
6.67753e-05
0.000173376
0.00020629
0.00016534
0.000102901
7.50018e-05
8.70865e-05
0.000166081
0.00026324
0.00028964
0.000304245
0.000300641
0.000292825
0.000270446
0.000234609
0.000202669
0.000205236
0.000357318
0.000916699
0.000978275
0.000582919
0.000154271
5.72165e-07