/*--------------------------------*- C++ -*----------------------------------*\
| =========                 |                                                 |
| \\      /  F ield         | OpenFOAM: The Open Source CFD Toolbox           |
|  \\    /   O peration     | Version:  2.1.1                                 |
|   \\  /    A nd           | Web:      www.OpenFOAM.org                      |
|    \\/     M anipulation  |                                                 |
\*---------------------------------------------------------------------------*/
FoamFile
{
    version     2.0;
    format      ascii;
    class       volScalarField;
    location    "0.0015";
    object      criterion2;
}
// * * * * * * * * * * * * * * * * * * * * * * * * * * * * * * * * * * * * * //

dimensions      [1 2 -2 0 0 0 0];

internalField   nonuniform List<scalar> 
36520
(
5.47902e-09
7.68498e-09
1.15173e-08
1.28519e-08
1.38184e-08
1.44559e-08
1.49927e-08
1.54472e-08
1.58595e-08
1.62415e-08
1.65974e-08
1.69401e-08
1.72561e-08
1.75502e-08
1.77935e-08
1.80023e-08
1.81735e-08
1.83373e-08
1.85004e-08
1.86798e-08
1.88768e-08
1.90871e-08
1.93e-08
1.95077e-08
1.96857e-08
1.97594e-08
1.9608e-08
1.91227e-08
1.83343e-08
1.73625e-08
1.64176e-08
1.56767e-08
1.516e-08
1.47851e-08
1.44695e-08
1.41851e-08
1.39247e-08
1.3723e-08
1.36193e-08
1.36638e-08
1.38773e-08
1.42512e-08
1.47774e-08
1.54299e-08
1.61741e-08
1.7014e-08
1.79579e-08
1.90178e-08
2.02664e-08
2.17504e-08
2.39918e-08
2.94362e-08
3.41045e-08
5.70066e-09
2.2089e-10
1.02422e-10
8.4075e-11
6.82859e-11
3.19362e-11
1.16532e-11
2.01183e-08
4.47422e-09
5.65201e-09
5.39172e-09
5.33417e-09
5.24042e-09
5.27332e-09
5.28909e-09
5.32197e-09
5.33996e-09
5.37084e-09
5.40765e-09
5.46073e-09
5.49426e-09
5.48485e-09
5.41599e-09
5.28216e-09
5.11472e-09
4.92565e-09
4.73398e-09
4.53601e-09
4.33008e-09
4.10001e-09
3.83315e-09
3.48106e-09
3.05869e-09
2.66991e-09
2.47787e-09
2.51501e-09
3.22448e-09
3.7644e-09
3.43328e-09
3.16377e-09
3.17702e-09
3.32918e-09
3.50272e-09
3.65106e-09
3.78535e-09
3.91491e-09
4.09948e-09
4.38258e-09
4.74041e-09
5.1706e-09
5.66154e-09
6.21997e-09
6.92866e-09
7.85037e-09
9.15017e-09
1.11334e-08
1.40355e-08
1.73457e-08
2.23776e-08
3.20512e-08
3.81505e-08
3.81518e-08
3.03913e-08
1.27707e-08
1.94917e-09
2.76712e-12
8.58905e-11
1.29022e-08
-4.96507e-10
2.64058e-10
1.18231e-10
9.36259e-11
8.73967e-11
1.7141e-10
2.46243e-10
3.49392e-10
4.37569e-10
5.57726e-10
6.9097e-10
8.34305e-10
9.52936e-10
1.02928e-09
1.09251e-09
1.18538e-09
1.36048e-09
1.65492e-09
2.1079e-09
2.73166e-09
3.51442e-09
4.42252e-09
5.401e-09
6.34219e-09
7.05387e-09
7.33369e-09
6.42562e-09
4.47052e-09
2.48904e-09
1.1445e-09
4.17314e-10
1.09955e-10
4.88958e-11
1.4841e-10
4.96568e-10
1.18739e-09
1.94771e-09
2.30962e-09
2.37467e-09
2.38621e-09
2.4111e-09
2.45164e-09
2.54656e-09
2.74705e-09
3.15408e-09
3.86169e-09
5.05185e-09
6.85248e-09
9.37217e-09
1.30704e-08
1.70346e-08
1.54485e-08
2.49547e-08
2.88229e-08
2.80692e-08
1.47106e-08
4.07773e-09
3.62802e-11
1.24548e-10
5.68631e-09
-2.61183e-09
-1.87266e-09
-1.73501e-09
-1.60895e-09
-1.4517e-09
-1.29877e-09
-1.11469e-09
-9.2045e-10
-6.91825e-10
-3.99466e-10
-1.25643e-11
5.24411e-10
1.28347e-09
2.34516e-09
3.77808e-09
5.64726e-09
8.0371e-09
1.10486e-08
1.47664e-08
1.92274e-08
2.42895e-08
2.96224e-08
3.47119e-08
3.87e-08
4.01426e-08
3.77999e-08
3.20365e-08
2.34365e-08
1.46943e-08
8.32672e-09
4.7877e-09
3.10609e-09
2.19842e-09
1.52596e-09
9.24818e-10
4.60837e-10
1.72847e-10
7.62161e-11
1.75634e-10
4.48124e-10
7.50305e-10
1.03581e-09
1.19102e-09
1.26738e-09
1.4539e-09
1.84565e-09
2.58775e-09
3.83909e-09
5.52755e-09
7.59206e-09
1.0738e-08
9.13704e-09
1.36197e-08
1.94587e-08
2.20194e-08
7.50073e-09
1.20273e-09
4.85638e-11
1.79452e-10
7.2574e-10
-3.03529e-09
-2.23441e-09
-1.83656e-09
-1.53582e-09
-1.25698e-09
-9.75785e-10
-6.08575e-10
-1.00587e-10
6.70703e-10
1.8811e-09
3.75043e-09
6.49442e-09
1.02831e-08
1.51145e-08
2.06818e-08
2.66689e-08
3.3111e-08
4.02125e-08
4.83758e-08
5.78817e-08
6.87042e-08
8.0491e-08
9.26948e-08
1.04433e-07
1.12184e-07
1.08779e-07
9.57738e-08
7.74547e-08
5.77687e-08
4.16829e-08
3.13151e-08
2.56247e-08
2.2077e-08
1.90327e-08
1.56837e-08
1.24773e-08
9.63902e-09
7.43944e-09
5.98795e-09
4.70928e-09
3.41584e-09
2.19631e-09
1.33243e-09
1.21072e-09
1.29851e-09
1.40911e-09
1.63266e-09
2.1561e-09
3.0196e-09
4.15675e-09
5.98285e-09
5.5565e-09
7.59082e-09
1.17474e-08
1.88106e-08
8.56335e-09
4.26603e-09
-1.17029e-11
2.03682e-10
5.44628e-09
-2.04136e-09
-1.51065e-09
-1.13689e-09
-6.96531e-10
-4.74711e-11
8.84441e-10
2.29685e-09
4.38921e-09
7.46063e-09
1.18767e-08
1.79506e-08
2.57433e-08
3.49213e-08
4.47326e-08
5.39665e-08
6.21369e-08
6.98612e-08
7.76631e-08
8.64851e-08
9.71312e-08
1.09319e-07
1.22681e-07
1.36434e-07
1.50354e-07
1.62795e-07
1.66932e-07
1.59374e-07
1.4625e-07
1.2856e-07
1.10682e-07
9.66088e-08
8.66951e-08
8.00174e-08
7.49077e-08
6.95883e-08
6.40239e-08
5.77115e-08
5.13467e-08
4.62888e-08
4.16488e-08
3.6734e-08
3.08314e-08
2.41701e-08
1.98734e-08
1.68258e-08
1.3965e-08
1.03541e-08
6.78472e-09
4.36886e-09
3.92574e-09
4.59583e-09
5.57572e-09
4.28874e-09
7.19331e-09
1.76413e-08
1.57159e-08
1.49276e-09
-2.16485e-11
1.82652e-10
2.04775e-08
-1.09708e-09
-2.64505e-10
7.50065e-10
2.14644e-09
4.26421e-09
7.15492e-09
1.11392e-08
1.63868e-08
2.32314e-08
3.17559e-08
4.229e-08
5.45947e-08
6.7606e-08
7.95249e-08
8.913e-08
9.72753e-08
1.04787e-07
1.11256e-07
1.18312e-07
1.27194e-07
1.37123e-07
1.47264e-07
1.56977e-07
1.66183e-07
1.73436e-07
1.73597e-07
1.69414e-07
1.67405e-07
1.68406e-07
1.63305e-07
1.5284e-07
1.42705e-07
1.33225e-07
1.252e-07
1.19092e-07
1.14155e-07
1.08972e-07
1.0305e-07
9.75309e-08
9.34826e-08
8.93787e-08
8.49238e-08
7.7038e-08
6.73128e-08
5.80475e-08
4.95839e-08
4.08919e-08
3.17315e-08
2.33204e-08
1.79565e-08
1.4754e-08
1.1264e-08
6.3798e-09
8.71824e-09
1.81231e-08
1.69103e-08
1.65131e-09
-4.14785e-12
1.73346e-10
2.71897e-08
7.7597e-10
2.63825e-09
5.42424e-09
8.82802e-09
1.37508e-08
1.93503e-08
2.59959e-08
3.32994e-08
4.28052e-08
5.25051e-08
6.27794e-08
7.3422e-08
8.29779e-08
9.14457e-08
9.95848e-08
1.06638e-07
1.12866e-07
1.19343e-07
1.25588e-07
1.30379e-07
1.32812e-07
1.33666e-07
1.35182e-07
1.39681e-07
1.47212e-07
1.54474e-07
1.50709e-07
1.48187e-07
1.59167e-07
1.76833e-07
1.76193e-07
1.69587e-07
1.61159e-07
1.49964e-07
1.41774e-07
1.37685e-07
1.33808e-07
1.23744e-07
1.0031e-07
9.68303e-08
9.43492e-08
1.0119e-07
9.9608e-08
8.91131e-08
7.70201e-08
6.64222e-08
5.51014e-08
4.39844e-08
3.47598e-08
2.74443e-08
2.26115e-08
2.16227e-08
1.91961e-08
1.8689e-08
2.07842e-08
1.80325e-08
3.58315e-09
1.2044e-11
1.62274e-10
1.32293e-07
4.07094e-09
9.2867e-09
1.5242e-08
2.01605e-08
2.83631e-08
3.3813e-08
3.8968e-08
4.36809e-08
4.84304e-08
5.3195e-08
5.74821e-08
5.99784e-08
6.43205e-08
7.56758e-08
8.24394e-08
8.66772e-08
8.96767e-08
9.00095e-08
8.15731e-08
5.5264e-08
2.5176e-08
1.09821e-08
7.96924e-09
8.88703e-09
1.30766e-08
2.25906e-08
3.24785e-08
4.25149e-08
5.65033e-08
7.25441e-08
8.88634e-08
1.10324e-07
1.33311e-07
1.38229e-07
1.31881e-07
1.2217e-07
1.14094e-07
1.1001e-07
1.07199e-07
1.0405e-07
9.99905e-08
9.48661e-08
8.88385e-08
8.08748e-08
7.11444e-08
6.07832e-08
5.03777e-08
4.0192e-08
3.30328e-08
2.76966e-08
2.5088e-08
2.8548e-08
2.46134e-08
1.79561e-08
9.25085e-09
5.54127e-09
5.27436e-10
2.09949e-11
1.21831e-10
1.80628e-07
2.71656e-09
7.66986e-09
1.13387e-08
1.51863e-08
1.86542e-08
2.18046e-08
2.43095e-08
2.62803e-08
2.80466e-08
2.96963e-08
3.05392e-08
2.87057e-08
2.5568e-08
3.02394e-08
5.24395e-08
6.52503e-08
6.86929e-08
7.03406e-08
6.96032e-08
5.42679e-08
2.15196e-08
6.06397e-09
2.59531e-09
2.39519e-09
3.30318e-09
7.68402e-09
1.65858e-08
2.16918e-08
2.58311e-08
3.04418e-08
3.45708e-08
3.97806e-08
5.11339e-08
7.80152e-08
1.18171e-07
1.29226e-07
1.22773e-07
1.12488e-07
1.01287e-07
9.194e-08
8.34765e-08
7.51248e-08
6.7704e-08
6.21622e-08
5.83441e-08
5.58217e-08
5.28248e-08
4.84348e-08
4.35754e-08
3.84288e-08
3.51704e-08
3.7972e-08
2.98314e-08
1.83395e-08
7.4667e-09
3.74823e-09
3.16476e-10
2.32159e-11
1.1495e-10
9.69626e-08
1.07777e-09
8.57742e-09
1.30341e-08
1.62086e-08
1.94781e-08
2.25586e-08
2.54438e-08
2.8183e-08
3.08948e-08
3.40264e-08
3.73184e-08
3.70901e-08
3.02711e-08
3.41903e-08
5.33678e-08
6.41112e-08
6.69195e-08
7.1355e-08
7.68132e-08
7.30292e-08
2.22155e-08
3.29823e-09
1.20594e-09
1.04147e-09
1.28433e-09
2.45192e-09
7.14046e-09
1.54791e-08
2.66546e-08
4.53037e-08
6.23608e-08
6.97927e-08
7.82576e-08
9.61477e-08
1.18443e-07
1.23944e-07
1.202e-07
1.1299e-07
1.08034e-07
1.04394e-07
1.0035e-07
9.70048e-08
9.44946e-08
9.19941e-08
8.90114e-08
8.54854e-08
8.03908e-08
7.33311e-08
6.39365e-08
5.43864e-08
4.63746e-08
4.02506e-08
3.21366e-08
2.67218e-08
1.93952e-08
7.90812e-09
3.23461e-10
2.79224e-11
9.44735e-11
2.995e-08
2.39132e-09
5.50106e-09
8.20577e-09
1.07824e-08
1.54539e-08
1.91568e-08
2.26446e-08
2.6004e-08
2.97672e-08
3.45258e-08
4.04433e-08
4.67828e-08
5.21923e-08
5.73518e-08
6.18223e-08
6.34267e-08
6.48896e-08
6.79141e-08
7.21601e-08
7.81164e-08
8.43267e-08
8.95034e-08
6.04823e-08
6.6073e-09
6.26127e-10
4.95881e-10
5.72017e-10
1.08688e-09
1.03756e-08
1.25035e-07
1.35258e-07
1.32667e-07
1.26184e-07
1.27833e-07
1.30409e-07
1.21381e-07
1.02854e-07
1.01737e-07
1.19241e-07
1.16909e-07
1.11035e-07
1.06391e-07
8.72006e-08
5.63261e-08
5.5498e-08
5.4596e-08
7.11791e-08
8.3591e-08
7.14099e-08
6.15705e-08
5.42957e-08
3.8611e-08
2.30177e-08
1.80109e-08
2.36557e-08
2.56944e-08
2.08357e-09
3.47057e-11
9.87416e-11
3.34586e-08
2.27707e-09
4.48137e-09
6.42353e-09
8.24269e-09
1.17416e-08
1.54868e-08
1.94638e-08
2.3301e-08
2.7261e-08
3.19203e-08
3.79147e-08
4.50266e-08
5.1491e-08
5.52062e-08
5.52181e-08
4.8347e-08
3.65481e-08
2.80209e-08
2.88238e-08
4.16111e-08
6.90357e-08
7.9381e-08
8.17937e-08
3.72289e-08
2.24653e-09
4.18112e-10
3.70491e-10
4.40955e-10
9.5272e-10
1.64882e-08
1.31069e-07
1.32988e-07
1.34917e-07
1.36974e-07
1.38801e-07
1.33218e-07
1.08014e-07
1.0172e-07
1.00567e-07
1.14672e-07
1.06538e-07
9.78326e-08
9.50646e-08
8.83673e-08
5.7352e-08
6.0188e-08
7.78219e-08
7.63764e-08
5.92016e-08
4.74377e-08
3.90844e-08
2.66124e-08
1.34177e-08
1.32814e-08
2.32192e-08
2.74326e-08
1.5871e-09
3.72215e-11
1.07805e-10
9.81738e-08
1.44052e-09
8.94022e-09
1.34308e-08
1.34119e-08
1.50732e-08
1.74183e-08
2.03681e-08
2.34856e-08
2.645e-08
2.90788e-08
3.10911e-08
3.10225e-08
2.51286e-08
1.28366e-08
4.79366e-09
1.79187e-09
1.04848e-09
1.11433e-09
1.94207e-09
9.38725e-09
5.34698e-08
7.33711e-08
7.80043e-08
7.60077e-08
3.49778e-08
1.46333e-09
3.32259e-10
3.28316e-10
4.03757e-10
1.03425e-09
2.38847e-08
7.79066e-08
8.14065e-08
8.67412e-08
9.85478e-08
1.17397e-07
1.27872e-07
1.23666e-07
1.16381e-07
1.07594e-07
9.90655e-08
9.33391e-08
9.12306e-08
8.92716e-08
8.45212e-08
7.8137e-08
7.22521e-08
6.51131e-08
5.4228e-08
4.16927e-08
3.31776e-08
2.65605e-08
1.67821e-08
9.09027e-09
1.0042e-08
6.32475e-09
2.95388e-10
3.92417e-11
8.46138e-11
2.10284e-07
1.82332e-09
4.47995e-09
9.65994e-09
1.20576e-08
1.44418e-08
1.65837e-08
1.85266e-08
1.97977e-08
1.99742e-08
2.04709e-08
2.02041e-08
1.75408e-08
1.04356e-08
2.56505e-09
4.47397e-10
2.09795e-10
2.38007e-10
3.37399e-10
7.81013e-10
5.88504e-09
5.90036e-08
8.36861e-08
8.57923e-08
8.41386e-08
5.73085e-08
1.71914e-08
2.53725e-09
5.40598e-10
4.21283e-10
5.02588e-10
1.19542e-09
2.27686e-08
1.18783e-07
1.24149e-07
1.23836e-07
1.16189e-07
1.11363e-07
1.13358e-07
1.22598e-07
1.18233e-07
1.11341e-07
1.04456e-07
9.47288e-08
8.14057e-08
6.71106e-08
5.90962e-08
5.35806e-08
4.94892e-08
4.34209e-08
3.5721e-08
2.91879e-08
2.34613e-08
1.65351e-08
9.14892e-09
8.20806e-09
7.49775e-09
4.69199e-10
4.09021e-11
1.46701e-10
1.49439e-07
2.90223e-09
6.37103e-09
1.15991e-08
1.68126e-08
2.10881e-08
2.46723e-08
2.82463e-08
3.20108e-08
3.53891e-08
3.67994e-08
3.08803e-08
1.4066e-08
3.86366e-09
1.5299e-09
1.6563e-09
3.37118e-09
2.14827e-08
9.82852e-08
1.11086e-07
1.18605e-07
1.26057e-07
1.27624e-07
1.23162e-07
1.11066e-07
7.63462e-08
2.94163e-08
7.96916e-09
2.81725e-09
1.8929e-09
2.17786e-09
5.24758e-09
4.28384e-08
9.76871e-08
9.32256e-08
9.26425e-08
1.028e-07
1.24721e-07
1.28581e-07
9.82946e-08
5.03937e-08
4.68133e-08
5.22547e-08
8.71643e-08
8.86913e-08
5.85407e-08
4.57991e-08
3.93876e-08
3.44354e-08
3.78021e-08
3.5486e-08
3.03057e-08
2.3935e-08
1.41599e-08
7.31586e-09
7.10303e-09
7.99939e-09
6.48383e-10
4.18556e-11
1.71815e-10
2.74106e-08
1.11385e-09
3.22882e-09
6.44218e-09
1.03037e-08
1.50134e-08
2.01523e-08
2.62979e-08
3.41383e-08
4.29258e-08
5.22762e-08
6.35921e-08
7.72162e-08
9.18031e-08
1.0284e-07
1.07923e-07
1.08664e-07
1.07941e-07
1.1026e-07
1.16889e-07
1.26984e-07
1.39135e-07
1.50884e-07
1.60745e-07
1.68636e-07
1.73211e-07
1.67411e-07
1.36184e-07
8.82852e-08
6.68417e-08
6.86588e-08
9.47855e-08
1.4255e-07
1.54894e-07
1.56975e-07
1.5858e-07
1.53436e-07
1.4313e-07
8.6529e-08
5.91972e-08
5.5785e-08
6.7582e-08
8.79161e-08
9.80341e-08
8.96032e-08
7.28384e-08
5.54617e-08
4.58747e-08
4.11903e-08
3.759e-08
3.25882e-08
2.72136e-08
2.32589e-08
1.75705e-08
1.42585e-08
1.74134e-08
1.68452e-08
2.68051e-09
2.52756e-11
1.6439e-10
1.95347e-08
-1.11229e-09
-3.98082e-10
4.90986e-10
1.68263e-09
3.37089e-09
5.62557e-09
8.67755e-09
1.27727e-08
1.80699e-08
2.5038e-08
3.42058e-08
4.54611e-08
5.69319e-08
6.48318e-08
6.79453e-08
6.95723e-08
7.21165e-08
7.75557e-08
8.53415e-08
9.55535e-08
1.07683e-07
1.19816e-07
1.30782e-07
1.41801e-07
1.52459e-07
1.61633e-07
1.68532e-07
1.71147e-07
1.69794e-07
1.65718e-07
1.60201e-07
1.54485e-07
1.46786e-07
1.37694e-07
1.27889e-07
1.16199e-07
9.75556e-08
8.09948e-08
7.45715e-08
7.65082e-08
7.83105e-08
7.63068e-08
7.20238e-08
6.67834e-08
5.83158e-08
4.76237e-08
3.87383e-08
3.0839e-08
2.33943e-08
1.86571e-08
1.60704e-08
1.56545e-08
1.72917e-08
1.88337e-08
2.37446e-08
2.36153e-08
5.95431e-09
6.58717e-12
1.57525e-10
9.86484e-09
-2.11041e-09
-1.58786e-09
-1.2879e-09
-1.00502e-09
-6.91788e-10
-2.72432e-10
2.77165e-10
1.05467e-09
2.18839e-09
3.88264e-09
6.34669e-09
9.68505e-09
1.36504e-08
1.75653e-08
2.0643e-08
2.28517e-08
2.60244e-08
3.06525e-08
3.66936e-08
4.43316e-08
5.32949e-08
6.29879e-08
7.32429e-08
8.41205e-08
9.50328e-08
1.04614e-07
1.11762e-07
1.15255e-07
1.15063e-07
1.11101e-07
1.01635e-07
8.63236e-08
7.05996e-08
5.84788e-08
4.90225e-08
4.07856e-08
3.30971e-08
2.6592e-08
2.23838e-08
2.1058e-08
2.27239e-08
2.44583e-08
2.53187e-08
2.35968e-08
1.84708e-08
1.39611e-08
1.1109e-08
8.91858e-09
8.13592e-09
8.41111e-09
8.88319e-09
1.18054e-08
1.62055e-08
2.27638e-08
2.99494e-08
2.80152e-08
1.09938e-08
-1.13507e-12
1.67973e-10
5.88e-09
-3.04737e-09
-2.3242e-09
-1.9803e-09
-1.73229e-09
-1.53956e-09
-1.36605e-09
-1.19823e-09
-1.01222e-09
-7.84801e-10
-4.7282e-10
-5.95899e-11
4.5603e-10
1.04405e-09
1.68852e-09
2.33651e-09
2.81669e-09
3.75965e-09
5.28991e-09
7.5006e-09
1.05195e-08
1.43623e-08
1.89564e-08
2.4227e-08
3.00214e-08
3.59829e-08
4.1419e-08
4.57234e-08
4.84418e-08
4.83727e-08
4.3422e-08
3.37656e-08
2.26366e-08
1.43518e-08
9.42409e-09
6.39455e-09
4.27037e-09
2.67881e-09
1.62607e-09
1.34598e-09
1.54532e-09
1.90442e-09
2.29758e-09
2.71121e-09
3.19859e-09
3.43057e-09
4.09539e-09
5.16243e-09
6.57585e-09
8.3598e-09
1.04235e-08
1.20926e-08
1.04476e-08
1.35812e-08
2.56505e-08
3.55112e-08
3.03956e-08
2.0264e-08
1.89081e-11
1.72467e-10
1.12207e-08
-2.32685e-09
-1.91919e-09
-1.82083e-09
-1.67946e-09
-1.56929e-09
-1.41411e-09
-1.27923e-09
-1.10726e-09
-9.07137e-10
-6.51584e-10
-3.89837e-10
-1.77103e-10
-6.87875e-11
-4.71531e-11
-5.46975e-11
-7.0851e-11
2.03226e-11
2.7352e-10
7.12095e-10
1.32633e-09
2.12345e-09
3.11128e-09
4.31478e-09
5.71102e-09
7.23387e-09
8.72435e-09
1.00478e-08
1.11304e-08
1.08846e-08
8.74178e-09
5.56655e-09
2.88988e-09
1.40905e-09
7.51544e-10
4.9824e-10
4.66915e-10
5.8702e-10
7.17832e-10
8.19319e-10
1.01104e-09
1.33324e-09
1.80374e-09
2.39417e-09
3.14871e-09
4.18708e-09
5.60781e-09
7.49751e-09
9.92484e-09
1.27042e-08
1.63597e-08
2.33643e-08
1.71484e-08
1.55652e-08
2.94762e-08
3.95818e-08
2.94866e-08
2.29121e-08
1.09266e-10
1.61068e-10
1.50022e-08
-1.56842e-10
-3.36064e-11
-3.2304e-10
-3.38604e-10
-3.71909e-10
-2.6993e-10
-1.95843e-10
-6.51913e-11
8.62244e-11
2.9224e-10
5.46209e-10
8.036e-10
9.7797e-10
9.90997e-10
8.9277e-10
7.64119e-10
7.31901e-10
8.01398e-10
9.68411e-10
1.16507e-09
1.34098e-09
1.46011e-09
1.55286e-09
1.63882e-09
1.74645e-09
1.84339e-09
1.94051e-09
1.99081e-09
1.78282e-09
1.30688e-09
8.20341e-10
6.18515e-10
8.66213e-10
1.32545e-09
1.49461e-09
1.36155e-09
1.17547e-09
1.08804e-09
1.16571e-09
1.39214e-09
1.77224e-09
2.33377e-09
3.12149e-09
4.23936e-09
5.83909e-09
8.07525e-09
1.10441e-08
1.48138e-08
1.92229e-08
2.50854e-08
3.27702e-08
3.53238e-08
2.95176e-08
3.56655e-08
4.21617e-08
3.44096e-08
1.32557e-08
6.24335e-11
1.17159e-10
2.23634e-08
4.82996e-09
5.32736e-09
4.83581e-09
4.711e-09
4.55277e-09
4.55071e-09
4.50679e-09
4.51583e-09
4.51988e-09
4.54357e-09
4.57888e-09
4.61403e-09
4.61485e-09
4.54891e-09
4.43751e-09
4.31408e-09
4.22618e-09
4.1678e-09
4.13778e-09
4.11949e-09
4.12245e-09
4.1593e-09
4.27217e-09
4.51283e-09
4.96097e-09
5.57694e-09
6.02747e-09
5.69841e-09
5.48021e-09
5.6445e-09
5.98136e-09
5.95749e-09
5.64528e-09
5.25569e-09
4.85702e-09
4.44124e-09
4.07275e-09
3.83392e-09
3.78891e-09
3.88945e-09
4.12862e-09
4.48765e-09
4.98203e-09
5.86905e-09
7.3917e-09
9.81474e-09
1.3303e-08
1.80129e-08
2.27269e-08
2.81045e-08
3.65437e-08
4.58213e-08
4.36924e-08
2.45913e-08
2.16447e-08
2.3598e-08
2.49658e-09
-5.30077e-12
7.68338e-11
7.67393e-09
9.81033e-09
1.29952e-08
1.41218e-08
1.49599e-08
1.55187e-08
1.59905e-08
1.63974e-08
1.67665e-08
1.71193e-08
1.74472e-08
1.77522e-08
1.80115e-08
1.8212e-08
1.83483e-08
1.84469e-08
1.85436e-08
1.86601e-08
1.88044e-08
1.89697e-08
1.91378e-08
1.92944e-08
1.94308e-08
1.95412e-08
1.96233e-08
1.96567e-08
1.9598e-08
1.94201e-08
1.90657e-08
1.85589e-08
1.79562e-08
1.73371e-08
1.67654e-08
1.6269e-08
1.58408e-08
1.54774e-08
1.5181e-08
1.49837e-08
1.49122e-08
1.49747e-08
1.51809e-08
1.55168e-08
1.59212e-08
1.62782e-08
1.65554e-08
1.68563e-08
1.73401e-08
1.8114e-08
1.90808e-08
2.04481e-08
2.29791e-08
2.79423e-08
3.25706e-08
3.35338e-08
3.4124e-08
1.01172e-08
3.31907e-10
7.41422e-11
3.1767e-11
1.13662e-11
6.95667e-09
9.50381e-09
1.29875e-08
1.42449e-08
1.51867e-08
1.57569e-08
1.6282e-08
1.6678e-08
1.70439e-08
1.73634e-08
1.76443e-08
1.7904e-08
1.8111e-08
1.82965e-08
1.84292e-08
1.85597e-08
1.86772e-08
1.88204e-08
1.89661e-08
1.91149e-08
1.92374e-08
1.93197e-08
1.93429e-08
1.93008e-08
1.91941e-08
1.90314e-08
1.88159e-08
1.85585e-08
1.82632e-08
1.79417e-08
1.75954e-08
1.72366e-08
1.6864e-08
1.64773e-08
1.60629e-08
1.56137e-08
1.51837e-08
1.48467e-08
1.46648e-08
1.47003e-08
1.49714e-08
1.54432e-08
1.60346e-08
1.66552e-08
1.72629e-08
1.78832e-08
1.85978e-08
1.96118e-08
2.12685e-08
2.36989e-08
2.72326e-08
3.32514e-08
3.86257e-08
3.96611e-08
2.6945e-08
9.12945e-10
1.10319e-10
6.99165e-11
3.54821e-11
1.44901e-11
2.00506e-08
3.83348e-09
4.60799e-09
4.12384e-09
3.92646e-09
3.68756e-09
3.66373e-09
3.54322e-09
3.55091e-09
3.50014e-09
3.51462e-09
3.51802e-09
3.53166e-09
3.52807e-09
3.4753e-09
3.4167e-09
3.34729e-09
3.35386e-09
3.41449e-09
3.57249e-09
3.79965e-09
4.09343e-09
4.41798e-09
4.74068e-09
5.05709e-09
5.37282e-09
5.65783e-09
5.89721e-09
6.03412e-09
6.09008e-09
6.03002e-09
5.94802e-09
5.88356e-09
5.85687e-09
5.8542e-09
5.83429e-09
5.65262e-09
5.25976e-09
4.86204e-09
4.68982e-09
4.79342e-09
5.09004e-09
5.4824e-09
5.88161e-09
6.26639e-09
6.70154e-09
7.31813e-09
8.33149e-09
1.01844e-08
1.34441e-08
1.83091e-08
2.51832e-08
3.46444e-08
4.44729e-08
5.00531e-08
3.81723e-08
2.63511e-08
3.32613e-09
-8.41277e-13
8.15873e-11
1.15098e-08
-1.08976e-09
-6.64382e-10
-8.53283e-10
-8.35362e-10
-8.47031e-10
-6.8327e-10
-5.96123e-10
-3.89965e-10
-2.28037e-10
2.59137e-11
2.84671e-10
5.53937e-10
7.67692e-10
8.23674e-10
8.00512e-10
7.51669e-10
8.167e-10
9.44009e-10
1.11365e-09
1.24298e-09
1.34638e-09
1.43257e-09
1.5152e-09
1.58536e-09
1.66866e-09
1.70829e-09
1.69677e-09
1.62695e-09
1.54906e-09
1.46666e-09
1.394e-09
1.33176e-09
1.31068e-09
1.34237e-09
1.45885e-09
1.55153e-09
1.46426e-09
1.37965e-09
1.41083e-09
1.58185e-09
1.89449e-09
2.34483e-09
2.91694e-09
3.59911e-09
4.4085e-09
5.35066e-09
6.42487e-09
7.73251e-09
9.47957e-09
1.18228e-08
1.48912e-08
2.03783e-08
3.54636e-08
4.49559e-08
4.7941e-08
3.80229e-08
1.71436e-08
5.47521e-11
1.18941e-10
6.36834e-09
-2.88131e-09
-2.26364e-09
-2.08282e-09
-1.84198e-09
-1.62531e-09
-1.35107e-09
-1.13622e-09
-9.17133e-10
-7.84486e-10
-6.38663e-10
-4.94248e-10
-3.52519e-10
-1.98519e-10
-5.04329e-11
1.74058e-10
5.06051e-10
1.14102e-09
2.18088e-09
3.75626e-09
5.95992e-09
8.80114e-09
1.21984e-08
1.56303e-08
1.8509e-08
2.05196e-08
2.1357e-08
2.08841e-08
1.91788e-08
1.66031e-08
1.36468e-08
1.07355e-08
8.18541e-09
5.94165e-09
4.10013e-09
2.6979e-09
1.80859e-09
1.43003e-09
1.3175e-09
1.38748e-09
1.61355e-09
1.98305e-09
2.49903e-09
3.1674e-09
3.97357e-09
4.92192e-09
6.0044e-09
7.1925e-09
8.47699e-09
9.81852e-09
1.11871e-08
1.28344e-08
1.59466e-08
2.84071e-08
3.84879e-08
5.66544e-08
4.27008e-08
2.15453e-08
3.49093e-11
1.61148e-10
4.97666e-09
-3.36785e-09
-2.53471e-09
-2.10962e-09
-1.79216e-09
-1.51739e-09
-1.3242e-09
-1.11853e-09
-9.03531e-10
-6.19042e-10
-2.07505e-10
4.28613e-10
1.3717e-09
2.74242e-09
4.65958e-09
7.29975e-09
1.08601e-08
1.57256e-08
2.21706e-08
3.03052e-08
4.00873e-08
5.11282e-08
6.27563e-08
7.38246e-08
8.35675e-08
9.1308e-08
9.63374e-08
9.82689e-08
9.67656e-08
9.2034e-08
8.45315e-08
7.48058e-08
6.35263e-08
5.16794e-08
3.99673e-08
2.90033e-08
1.9788e-08
1.30914e-08
8.77191e-09
5.90011e-09
4.13302e-09
3.22115e-09
3.00267e-09
3.3437e-09
3.96212e-09
4.73025e-09
5.65647e-09
6.53935e-09
6.38919e-09
6.2721e-09
7.40649e-09
9.00574e-09
9.47992e-09
1.4529e-08
2.70896e-08
4.58802e-08
4.32403e-08
2.43618e-08
2.50621e-12
1.75773e-10
9.54169e-09
-2.26938e-09
-1.59078e-09
-1.3514e-09
-1.19479e-09
-1.01512e-09
-7.73573e-10
-3.72767e-10
2.9231e-10
1.41787e-09
3.25299e-09
6.0891e-09
1.01638e-08
1.54933e-08
2.18133e-08
2.85575e-08
3.56357e-08
4.35677e-08
5.28107e-08
6.36481e-08
7.60882e-08
8.98889e-08
1.04676e-07
1.19901e-07
1.34108e-07
1.46229e-07
1.55675e-07
1.62214e-07
1.65511e-07
1.657e-07
1.63133e-07
1.58164e-07
1.50249e-07
1.39747e-07
1.27129e-07
1.12114e-07
9.50576e-08
7.64238e-08
5.92672e-08
4.45794e-08
3.29662e-08
2.40241e-08
1.69994e-08
1.20256e-08
8.84537e-09
6.09126e-09
4.47313e-09
4.45403e-09
5.67134e-09
6.50256e-09
7.54622e-09
8.49348e-09
9.65908e-09
1.27492e-08
2.39732e-08
3.68066e-08
3.52617e-08
1.64761e-08
-1.03199e-13
1.60268e-10
2.18886e-08
-1.35003e-09
-1.01805e-09
-6.80359e-10
-1.79914e-10
6.525e-10
2.04601e-09
4.33379e-09
7.84087e-09
1.28471e-08
1.94909e-08
2.76943e-08
3.72734e-08
4.7518e-08
5.70404e-08
6.45703e-08
7.04283e-08
7.68102e-08
8.454e-08
9.39e-08
1.05208e-07
1.18398e-07
1.33279e-07
1.4935e-07
1.65406e-07
1.79257e-07
1.90664e-07
1.99179e-07
2.04433e-07
2.06655e-07
2.06553e-07
2.04822e-07
2.01218e-07
1.95484e-07
1.8803e-07
1.78646e-07
1.67646e-07
1.55361e-07
1.41948e-07
1.27365e-07
1.13487e-07
1.0122e-07
8.92242e-08
7.68797e-08
6.21781e-08
4.69907e-08
3.11714e-08
1.70642e-08
1.04936e-08
8.94389e-09
9.14557e-09
9.93848e-09
1.13826e-08
1.43307e-08
2.19291e-08
2.96636e-08
2.94366e-08
7.68799e-09
2.13452e-12
1.44495e-10
2.83723e-08
-3.27523e-10
8.77781e-10
2.82447e-09
5.59752e-09
9.64031e-09
1.52152e-08
2.28198e-08
3.24969e-08
4.42859e-08
5.76264e-08
7.16552e-08
8.58032e-08
9.88249e-08
1.08384e-07
1.12001e-07
1.12575e-07
1.13403e-07
1.15743e-07
1.2031e-07
1.2721e-07
1.36648e-07
1.48598e-07
1.62694e-07
1.77842e-07
1.92034e-07
2.04262e-07
2.13905e-07
2.20533e-07
2.24059e-07
2.2511e-07
2.24441e-07
2.22327e-07
2.18761e-07
2.14263e-07
2.08711e-07
2.01933e-07
1.94258e-07
1.85699e-07
1.75828e-07
1.64786e-07
1.54811e-07
1.46445e-07
1.40106e-07
1.34842e-07
1.27118e-07
1.10856e-07
8.39024e-08
5.72515e-08
3.96242e-08
2.90648e-08
2.20155e-08
1.80848e-08
1.64194e-08
2.05852e-08
2.53368e-08
2.51772e-08
4.18935e-09
9.09003e-12
1.48534e-10
3.6583e-08
2.86858e-09
6.37939e-09
1.1743e-08
1.82814e-08
2.64743e-08
3.56664e-08
4.77901e-08
6.14658e-08
7.67168e-08
9.20459e-08
1.0646e-07
1.19642e-07
1.30942e-07
1.39136e-07
1.43885e-07
1.44937e-07
1.42929e-07
1.38788e-07
1.35966e-07
1.36541e-07
1.38781e-07
1.42929e-07
1.50992e-07
1.62817e-07
1.75721e-07
1.87732e-07
1.98076e-07
2.0612e-07
2.11355e-07
2.13772e-07
2.13778e-07
2.11904e-07
2.08579e-07
2.04696e-07
1.99388e-07
1.91666e-07
1.82755e-07
1.77735e-07
1.74428e-07
1.70379e-07
1.6436e-07
1.58713e-07
1.54237e-07
1.49962e-07
1.43689e-07
1.32618e-07
1.17964e-07
1.01587e-07
8.45706e-08
6.76083e-08
5.21017e-08
3.8254e-08
2.67005e-08
2.16061e-08
2.23535e-08
1.91846e-08
1.42144e-09
1.68424e-11
1.48218e-10
9.07028e-08
8.04386e-09
1.62445e-08
2.51769e-08
3.44196e-08
4.34634e-08
5.08664e-08
5.85491e-08
6.73009e-08
7.7024e-08
8.71084e-08
9.66131e-08
1.04818e-07
1.06139e-07
1.05548e-07
1.12448e-07
1.26079e-07
1.29074e-07
1.2933e-07
1.2765e-07
1.24349e-07
1.12545e-07
9.8967e-08
9.07117e-08
9.44084e-08
9.8367e-08
9.53836e-08
9.05911e-08
9.06098e-08
9.55552e-08
1.00796e-07
1.0169e-07
1.01873e-07
1.0451e-07
1.12736e-07
1.29063e-07
1.42648e-07
1.41623e-07
1.36507e-07
1.30511e-07
1.23733e-07
1.13784e-07
9.80467e-08
7.85279e-08
5.9078e-08
4.24716e-08
3.0866e-08
2.40333e-08
1.9702e-08
1.65685e-08
1.42012e-08
1.29137e-08
1.47779e-08
1.58122e-08
1.15479e-08
5.83281e-09
2.8565e-09
1.86722e-10
2.63089e-11
1.09044e-10
1.1933e-07
1.88591e-09
1.73533e-08
2.41679e-08
2.91026e-08
3.38161e-08
3.75267e-08
3.98768e-08
3.83488e-08
2.94164e-08
1.75909e-08
1.16489e-08
1.00097e-08
7.96399e-09
6.00884e-09
6.51063e-09
1.03806e-08
2.82637e-08
5.83777e-08
5.82025e-08
4.94156e-08
2.80725e-08
1.62889e-08
2.0426e-08
5.32441e-08
9.13948e-08
9.80849e-08
1.02752e-07
1.09511e-07
1.17937e-07
1.22822e-07
1.23251e-07
1.21648e-07
1.18553e-07
1.17292e-07
1.18138e-07
1.16572e-07
1.12344e-07
1.05268e-07
9.41931e-08
8.28575e-08
7.48459e-08
6.92008e-08
6.45268e-08
5.9485e-08
5.25639e-08
4.36426e-08
3.36882e-08
2.52873e-08
2.06634e-08
1.75365e-08
1.54765e-08
1.59669e-08
1.59451e-08
1.26043e-08
6.9327e-09
3.06114e-09
1.98624e-10
3.59683e-11
1.02684e-10
1.3968e-07
-3.09074e-12
8.71134e-09
1.26169e-08
1.46338e-08
1.61846e-08
1.70385e-08
1.7291e-08
1.63327e-08
1.29018e-08
7.90699e-09
3.45576e-09
9.21453e-10
2.77636e-10
1.99372e-10
2.24791e-10
3.10081e-10
4.22231e-10
4.16084e-10
2.63813e-10
2.1147e-10
2.41403e-10
3.47667e-10
1.84177e-09
6.42872e-08
9.68345e-08
9.85011e-08
1.05011e-07
1.1104e-07
1.16308e-07
1.24096e-07
1.34078e-07
1.35727e-07
1.16516e-07
9.48143e-08
9.19549e-08
8.84973e-08
1.03009e-07
9.89318e-08
7.54221e-08
6.20729e-08
6.49131e-08
6.52589e-08
6.41044e-08
6.15718e-08
5.63331e-08
4.75017e-08
3.87507e-08
3.37006e-08
2.90084e-08
2.54701e-08
2.42244e-08
2.32278e-08
1.8301e-08
1.14034e-08
8.51773e-09
5.48912e-09
2.33521e-10
4.15484e-11
1.00701e-10
1.33505e-07
1.75555e-09
1.04549e-08
1.70896e-08
1.81123e-08
2.00729e-08
2.21299e-08
2.44188e-08
2.66755e-08
2.75084e-08
2.50066e-08
1.87276e-08
1.0142e-08
6.39414e-09
7.18972e-09
1.08484e-08
1.48535e-08
1.10045e-08
3.59319e-09
7.93428e-10
3.43206e-10
3.36771e-10
4.69578e-10
1.4305e-09
9.18765e-09
2.81703e-08
6.45153e-08
1.0871e-07
1.21083e-07
1.24054e-07
1.27302e-07
1.33539e-07
1.38501e-07
1.36484e-07
1.20626e-07
9.96588e-08
1.06662e-07
1.1871e-07
1.12707e-07
1.04752e-07
8.68153e-08
7.45748e-08
7.30951e-08
7.38247e-08
7.49758e-08
7.44536e-08
7.05372e-08
6.0916e-08
4.583e-08
3.4613e-08
2.72359e-08
2.37419e-08
1.98883e-08
1.18578e-08
4.41315e-09
5.13838e-09
4.97506e-09
2.36691e-10
4.0764e-11
1.14595e-10
1.54665e-07
2.57512e-09
6.47233e-09
1.10615e-08
1.44821e-08
1.83381e-08
2.19563e-08
2.59258e-08
3.0576e-08
3.57088e-08
4.02996e-08
4.09946e-08
4.50072e-08
5.54948e-08
6.33845e-08
6.52581e-08
6.24958e-08
5.7638e-08
4.53289e-08
2.50975e-08
9.68537e-09
2.9135e-09
1.23085e-09
1.13586e-09
1.56291e-09
4.04558e-09
2.90779e-08
1.21449e-07
1.43236e-07
1.487e-07
1.51893e-07
1.53254e-07
1.53829e-07
1.54703e-07
1.56203e-07
1.54789e-07
1.46806e-07
1.31861e-07
1.20382e-07
1.14281e-07
1.07715e-07
1.01334e-07
9.60579e-08
9.34605e-08
9.17453e-08
8.96969e-08
8.49676e-08
7.5931e-08
6.33709e-08
4.85432e-08
3.64024e-08
2.82674e-08
2.15129e-08
1.34057e-08
8.02809e-09
7.67836e-09
5.69321e-09
3.40673e-10
3.47129e-11
1.34491e-10
5.16175e-08
3.87047e-09
8.00561e-09
1.1054e-08
1.43201e-08
1.84288e-08
2.29358e-08
2.84863e-08
3.53572e-08
4.28277e-08
5.06678e-08
5.90691e-08
6.77411e-08
7.50398e-08
7.97533e-08
8.17876e-08
8.26946e-08
8.38802e-08
8.23841e-08
7.39037e-08
4.77518e-08
1.54949e-08
4.74028e-09
3.68966e-09
5.21776e-09
1.61085e-08
9.89467e-08
1.82416e-07
1.91118e-07
1.95349e-07
1.977e-07
1.98405e-07
1.9808e-07
1.96716e-07
1.8999e-07
1.74239e-07
1.50123e-07
1.32598e-07
1.32145e-07
1.44777e-07
1.43531e-07
1.30356e-07
1.15008e-07
1.1074e-07
1.06722e-07
1.00806e-07
9.2492e-08
8.22542e-08
7.13265e-08
5.78298e-08
4.35216e-08
3.13336e-08
2.25371e-08
1.65791e-08
1.30605e-08
1.26277e-08
1.02864e-08
7.33695e-10
3.1002e-11
1.53475e-10
4.03412e-08
4.30285e-09
6.27553e-09
9.18277e-09
1.32503e-08
1.82726e-08
2.44219e-08
3.15758e-08
4.04457e-08
5.02741e-08
6.15494e-08
7.33251e-08
8.38232e-08
9.06716e-08
9.40644e-08
9.59104e-08
9.7312e-08
1.00265e-07
1.02297e-07
9.74291e-08
8.70334e-08
6.60304e-08
4.87411e-08
5.4241e-08
8.29527e-08
1.44172e-07
1.70884e-07
1.77506e-07
1.86171e-07
1.91034e-07
1.79028e-07
1.41011e-07
1.56209e-07
1.98544e-07
2.04683e-07
1.52699e-07
1.1505e-07
1.09778e-07
1.30822e-07
1.51963e-07
1.41053e-07
1.24586e-07
8.89506e-08
6.02942e-08
5.93982e-08
7.06035e-08
7.6984e-08
6.82191e-08
5.25938e-08
3.86795e-08
2.61707e-08
1.78198e-08
9.04739e-09
4.65185e-09
5.66224e-09
1.16064e-08
1.93707e-08
1.78421e-09
1.85513e-11
1.24438e-10
3.78361e-08
4.1613e-09
7.91813e-09
1.34664e-08
1.91678e-08
2.6232e-08
3.37379e-08
4.23456e-08
5.15804e-08
6.19238e-08
7.46776e-08
8.70445e-08
9.74013e-08
1.04173e-07
1.08112e-07
1.10226e-07
1.13262e-07
1.18926e-07
1.26829e-07
1.34997e-07
1.37676e-07
1.37664e-07
1.56072e-07
1.84512e-07
2.01262e-07
2.1165e-07
2.14428e-07
2.18356e-07
2.18795e-07
2.08654e-07
1.91221e-07
1.91675e-07
2.02373e-07
2.13139e-07
2.04564e-07
1.7844e-07
1.66474e-07
1.65178e-07
1.65586e-07
1.58735e-07
1.45886e-07