/*--------------------------------*- C++ -*----------------------------------*\
| =========                 |                                                 |
| \\      /  F ield         | OpenFOAM: The Open Source CFD Toolbox           |
|  \\    /   O peration     | Version:  2.1.1                                 |
|   \\  /    A nd           | Web:      www.OpenFOAM.org                      |
|    \\/     M anipulation  |                                                 |
\*---------------------------------------------------------------------------*/
FoamFile
{
    version     2.0;
    format      ascii;
    class       volScalarField;
    location    "0.0015";
    object      epsilon;
}
// * * * * * * * * * * * * * * * * * * * * * * * * * * * * * * * * * * * * * //

dimensions      [0 2 -3 0 0 0 0];

internalField   nonuniform List<scalar> 
36520
(
254.599
475.894
1275.62
1796.35
2286.72
2682.45
3062.23
3421.64
3776.63
4124.71
4459.51
4781.81
5079.62
5357.47
5600.54
5827.1
6034.56
6232.88
6404.09
6529.93
6581.3
6531.69
6359.73
6054.39
5615.53
5060.54
4426.93
3808.41
3288.91
2889.22
2588.08
2347
2134.36
1937.9
1755.92
1591.83
1451.56
1346.11
1287.52
1286.05
1350.18
1493.77
1736.85
2102.35
2621.02
3335.46
4317
5729.05
7995.62
11942.1
18567.9
31917
47992.8
57021.3
54287.6
42960
30100.8
18262.7
2398.54
1185.62
76.9027
357.319
495.187
533.971
574.373
606.98
653.273
695.79
742.216
781.111
813.957
836.094
852.386
861.07
871.846
887.211
913.573
944.488
971.392
979.535
957.848
908.193
838.923
770.658
724.868
737.159
847.757
805.836
497.437
229.226
129.592
99.238
84.0326
73.9397
67.3837
64.2485
63.874
67.0867
75.9413
93.0176
121.616
168.361
242.55
358.434
543.4
849.683
1374.99
2320.24
4074.87
7270.98
12109.9
20983.9
49316.6
94082.3
106017
75199.6
53426.7
55756.1
4843.49
474.327
29.1768
110.286
133.162
125.037
122.462
121.066
126.38
131.102
138.782
144.798
151.355
157.715
167.927
185.244
217.181
271.158
358.511
492.1
693.177
988.796
1411.9
1992.06
2745.26
3665.15
4725.32
5870.24
7092.71
6690.27
4071.29
1546.05
456.792
167.692
85.6693
53.1062
35.2055
23.5841
17.4562
16.1027
18.9342
26.1898
39.146
61.2419
99.2082
165.487
284.714
505.021
918.299
1686.12
3057.69
5367.48
9414.31
15830.3
24287.1
30677.7
35348.1
38405
23944.8
32726.4
5852.01
413.192
11.1393
35.5901
35.4827
30.6985
29.8687
31.0452
36.0655
44.1914
58.743
82.8913
125.332
200.393
334.538
570.72
973.253
1621.71
2621.69
4134.7
6403.39
9729.92
14440.6
20756.8
28540.9
37212.2
45467.7
51124.2
52658
45269
28637.7
12862.8
4754.82
2143.65
1298.81
920.021
674.157
463.062
299.839
185.305
116.405
82.0121
68.7705
72.8495
87.2098
122.49
197.268
339.518
610.293
1127.11
2058.13
3515.39
5558.39
9675.39
10434.7
10378.2
11679
14576.8
8909.98
10124.6
3587.7
375.398
5.76133
16.2104
17.2769
21.2236
31.4161
50.9224
86.6522
151.911
271.705
492.432
897.885
1628.22
2881.19
4906.5
7937.6
12014
17160
23832.6
32882
45559.3
63113
86726.5
116722
152305
190784
221676
223461
190701
130568
69346.9
31908.6
17520.2
12380.6
9979.51
8433.86
6946.73
5627.25
4457.49
3548.78
3011.07
2513.32
1935.18
1312.73
763.268
662.657
677.881
667.247
711.82
1129.37
1838.63
2770.71
4135.66
3739.7
3885.83
5547.79
9637.3
6106.24
4019.73
1828.45
362.016
5.46727
28.9548
50.9871
93.6995
170.165
315.286
578.589
1063.47
1939.21
3490.26
6154.16
10538.8
17274.1
26661.2
38311.7
50389.6
61437.9
72522.2
85835.4
104455
131109
166125
211046
262923
321787
383920
414412
386598
315297
213285
123286
77838.3
58680.7
49185.5
43990.8
40318.2
37641.6
34977.2
32301.3
31104.1
30153.3
28505.7
25574.7
20697.5
17443.7
15142.4
12811.6
9418.68
5938.77
3370.02
2728.93
2900.75
3483.94
3675.76
4814.71
9228.03
5861.38
2517.96
1442.94
361.692
13.851
147.517
315.451
622.618
1109.34
1979.91
3419.32
5821.1
9713.58
15971.3
25460.9
39590.2
59394.2
83888.4
108629
129508
146175
159145
167700
180317
202760
230131
257005
279848
304111
337161
372236
382056
354807
296514
229171
173003
136830
113558
97875.7
87917.7
82992.8
81598
81204
82499.3
86076.9
89014.3
93010.6
90597.3
80116
68397
57404.1
46038.1
34183.6
23737.2
16882.5
12241.7
9816.28
8144.84
8526.47
11917.1
8560.94
3637.62
1948.22
388.737
63.882
749.57
1803.85
3748.43
6235.36
10297.7
15535.6
22523.7
31216.6
44700.3
60701.4
79069.5
98668.3
115042
127320
138824
153466
169005
181312
190421
198561
205815
210149
212299
212711
217169
230986
247756
253315
240347
219098
204019
191751
174398
151977
131017
116388
108472
104161
102586
104927
109499
115293
121870
124488
118921
104415
84752.6
64300.8
47124.4
34295
25177.2
17994.1
13546.3
11457
13885.2
12024.1
5990.77
2625.37
414.438
183.96
4116.49
12549.9
23073.5
31120.2
46919.7
57822.8
68019
76215
82329.4
87779.2
93977.3
102820
112246
116088
111008
104483
103477
104239
102809
100491
100187
102851
106674
110881
114040
116626
121005
127678
132517
133620
134367
137918
143714
146394
139269
125469
114137
107945
103904
100522
98110.7
96237.8
95002.2
94472.7
93498.7
90642.4
84886.2
75215.5
62691.2
49231.8
36952.5
25735.2
17844.9
12616.9
10016.9
7982.43
4440.35
2183.82
369.152
118.362
2822.09
10486.6
17484.2
21464.9
25527.8
28638.6
31104
33594.8
35939.1
38222.8
40632
43748.2
48875.6
54974.9
57506.7
54482.7
49931.7
47238.7
46700.1
47438.7
48922.6
51054.2
53718.5
57015.6
60768.8
64072.5
66233.3
67840.6
69007.7
69986
72737
77668.2
83842.9
89420
93042.8
93827.6
89177.9
80249.6
71432.1
64767
60214.8
57228.7
55240.9
54086.1
53788
53382.3
52113.5
49373.8
45025.9
39035.8
32099.1
24891.4
18256.5
12740.8
9011.76
5883.68
2915.95
1336.37
324.792
62.3651
1356.43
12110.8
22243.1
27552.7
33451.8
39112.3
43689.2
46300.2
46552.4
45529
45653.4
48641.9
54781.2
60610.5
61572.9
55033
46956.4
42664.5
41325.1
40754.4
39758.9
39444.4
41593.4
46202.7
50779.3
54903.6
59413
63225.3
65764.8
68829.6
72289.8
76643.4
82449.8
89315.6
96496.4
102422
103149
96411.9
86800.9
78485.6
72256.9
68602.3
67160.7
66984.6
67391.1
67586.8
67111.9
64892.3
60118.4
52403.2
43275.8
33827.7
24032.8
16396
12293.6
8562.04
4438.07
2089.19
402.303
101.106
1993.34
5383.68
9761.64
14556.3
24338.1
33490.6
40234.8
44789.9
49491.1
54707.4
61053.1
68867.5
76640.8
78537.1
70792.4
58612.1
49636.4
45559.3
44240.1
44158.9
43960.8
44187.7
46073.7
47150.9
48837.1
53314.7
60066.1
69300.3
80101.3
84478.4
85874.4
93050.1
103037
113184
121610
124365
119319
108714
98564.4
90882.6
85906.7
84157.1
84806.3
86744
89055.7
90519.5
89888.9
85977.8
78228.3
66707.6
53488.6
37227.9
22005.9
13514.3
11060
12851.1
7878.7
3224.4
558.899
110.953
2147.57
4866.64
7906.67
10845.6
16863.7
23363.2
29773.5
35216.4
40358.5
46244.1
54249.8
64694.4
73781.1
75405.6
68898.3
59435.7
51281.2
46426.2
44205.3
43079.1
41424.9
39525.1
38758.1
37852.7
36410.8
38137.8
43371.4
52730.8
67532.7
85672.7
97099.8
103268
110573
118254
125224
127926
124072
114043
102480
93558.7
87775.8
85613.3
86213
88334.7
91373.9
94746.4
97482.9
96015.5
83103
62928.8
42942.3
25283.4
13157
8878.32
9312.05
11899.6
7773.59
3444.53
579.603
79.4106
2061.83
15411.8
30366.9
27785.7
28060.2
29630.2
32696.8
36021.9
38754.5
40669.9
42546.1
44410.3
45523.9
44205.3
40697.3
38017.4
38861.5
42978.8
47571.7
50349.6
50336.4
48078.4
44488.8
40463.6
35711.3
32263.8
32509.2
36822.1
45908.1
60795.2
77566.4
88353.8
95320.7
101646
107329
112227
115757
112833
102184
90487.4
81056.3
74420.6
70771.5
69030.5
68249.6
67924.1
67214.8
65125.8
59444.4
49541
37926.8
26389.2
16058.7
9590.68
7255.78
5751.06
3656.04
2479.28
465.778
96.9883
1514.08
5428.05
15221.1
18400.5
21141.8
22694.9
23733.4
24388.1
24590.7
24174.4
23205.7
21733.1
20569.2
22024
26829.9
36213.3
50018.2
66149
83098
95596.6
99549.8
96424.5
89063.8
80804.1
72610.2
63078.3
53837.8
47910.6
48073.5
55247.5
70331.4
88291.1
102008
111239
119710
125873
124381
114365
102318
91701.9
83247
77316.9
73598.4
70859.6
68057.5
63214.9
55917.3
48145.4
40143.4
31680.6
23994.6
17634
12321.4
8275.32
6559.55
5372.97
3348.16
2124.76
457.79
137.846
2469.52
7333.37
15627.5
24876.8
33520.6
41318.9
48927.7
56923.6
65028.5
72636.9
79163.4
84929.4
92747.5
109797
140035
179143
216724
241767
240839
222533
207032
196524
186038
174221
161295
145972
125902
109317
104996
112569
128808
140220
143382
143357
141661
137314
129078
117211
103710
92391.2
85231.8
81031.3
76909.4
71656.4
63871.1
54283.3
45088.2
37373.4
30333.3
24131.1
18868
14071.8
10323
7776.13
6487.32
5382.78
3421.39
2054.59
459.184
76.2256
826.537
1905.81
4007.13
7092.52
11633.4
17799.3
26606.4
40457.1
60436.7
84484.8
115495
156900
209992
258888
277011
256451
222415
205250
203788
214620
233094
251258
263551
268202
264824
257692
256057
260266
265004
261755
237113
206592
186867
171492
155269
139115
121928
103906
89577
81445.7
77544.2
76062.3
74750.9
71852.7
65490.1
55751.8
45709.7
36938.4
28964.5
22308.5
17036.9
12607.9
9533.89
7702.27
7623.2
7408.81
3938.92
2020.09
457.857
13.3542
129.574
274.41
537.714
963.382
1683.67
2860.37
4805.49
8034.54
13163.4
21212.3
33657.4
51327.2
71566.9
86226.3
89507.2
82672.3
82883.1
94037.6
109840
130704
156757
183218
207531
233851
260561
282168
294775
288935
265899
236328
207883
185060
162571
140375
120861
103878
88758.3
77367.8
70825.3
66320.6
62572.7
60305.7
58534.6
57544.5
52670.1
44491.6
37907.1
32218.8
25350.5
20397.8
16594.4
12798.2
10566.3
9305
12261
10884.7
4258.28
1914.75
445.511
6.27273
19.0254
31.4537
53.7586
89.2791
147.231
240.759
395.234
656.886
1095.96
1834.92
3038.71
4874.37
7347.01
10200.7
12610.9
12748.4
14704.3
18701.2
24186.7
31614.9
41261.7
52953.7
66763.9
82701.8
99977.1
116549
130108
137781
135633
124299
105437
81213.6
59706.1
45342.4
35653.8
28117.8
21831
16823
14107.6
13641.3
15870.9
18414.7
20360.8
20254.7
16379.3
12692.6
10398.6
8258.95
7238.91
7919.84
9739.69
11786.2
11316
10811.2
16259
13015.2
4529.14
1908.3
433.64
7.5365
12.1908
9.51131
9.51018
11.7068
15.5515
21.6464
30.6127
44.707
67.2703
104.529
165.543
263.226
411.087
614.628
885.655
984.125
1299.13
1846.79
2672
3914.89
5722.59
8230.21
11550.9
15755.1
20768.6
26220.2
31738.6
37122.5
39418.7
35369
26162.3
15975.3
9171.22
5611.76
3638.42
2339.95
1406.7
773.065
546.107
615.883
770.837
950.852
1190.02
1588.69
1671.5
2136.68
3028.33
4406.66
6445.59
9183.47
14609.6
19519.2
17198.2
14633.6
19644
14579.5
6291.48
2194.53
418.514
15.3613
34.7168
25.6779
18.9757
16.5328
14.9715
15.3164
15.4608
16.2915
16.9797
18.161
20.0148
23.8711
30.8551
42.112
58.6654
72.2368
100.202
146.902
221.171
340.057
525.301
802.746
1200.09
1747.62
2468.81
3374.32
4465.8
5810
6338.54
5295.65
3301.72
1612.95
747.055
383.037
220.452
139.69
103.547
102.14
133.792
197.375
302.013
472.994
753.904
1217.66
1967.16
3171.24
5081.56
8020.51
11934.2
17131.1
26579.4
30330.5
24343.2
19054.9
23628.2
17611.7
7929.17
2424.48
400.881
34.5968
112.634
106.635
88.1206
80.9093
75.2971
76.2563
75.7679
77.4056
75.9934
73.023
66.7055
60.1696
55.4315
55.4757
60.5197
68.2426
77.1977
84.0125
88.2495
91.4141
97.116
109.062
131.685
169.433
227.682
311.852
424.556
567.39
589.402
439.415
232.733
100.262
48.7809
34.7841
35.4536
44.4969
62.1059
91.7572
140.468
220.783
355.506
583.851
975.712
1656.07
2829.77
4844.81
8196.27
13447
20808
30941.9
42428.8
42712
40156.2
38028.7
48856.7
39714.2
19480.3
2428.49
414.58
97.3587
357.577
445.446
444.501
458.314
466.8
489.976
506.696
528.021
538.796
541.206
529.223
511.555
496.157
497.315
516.716
545.322
574.007
586.813
577.215
543.914
492.073
425.51
351.305
273.289
201.345
146.117
115.274
110.254
101.707
86.593
73.0386
66.385
64.9195
66.6661
71.9231
82.4282
101.168
132.94
183.884
259.901
379.836
578.435
930.492
1593.98
2858.82
5275.58
9601.64
16759.6
25636.2
34865.5
48210.2
70241.3
109480
154464
194005
138544
40773.2
4038.03
519.737
370.177
650.328
1391.58
1817.76
2204.03
2508.11
2793.36
3060.93
3317.57
3565.3
3791.61
3992.45
4158.88
4294.92
4409
4515.53
4628.8
4735.58
4822.79
4871.41
4863.58
4789.09
4644.75
4432.94
4162.77
3844.55
3491.88
3123.74
2762.91
2453.11
2196.57
1986.34
1809.13
1654.49
1518.76
1406.72
1325.73
1282.71
1277.36
1309.22
1380.44
1485.69
1611.01
1740.45
1891.55
2140.06
2665.78
3505.65
4689.76
6548.07
10276.6
19599.2
35610.4
43665.5
49363.2
52513.3
33398.3
14818.3
2762
1507.03
303.916
593.237
1358.18
1828.48
2261.69
2575.56
2885.61
3141.88
3386.1
3605.59
3799.95
3976.99
4121.58
4254.48
4363.02
4471.22
4562.79
4642.76
4685.34
4683.75
4625.59
4512.18
4346.37
4136.62
3892.29
3625.06
3344.47
3061.24
2782
2513.04
2256.43
2015.58
1791.61
1586.83
1401.56
1244.25
1128.59
1060.49
1040.92
1072.85
1157.76
1292.59
1466.37
1662.44
1874.56
2124.39
2491.66
3254.07
5159.33
9717.83
20201.5
40147.4
62490.5
71768.1
67690.4
50406.1
26594.9
14003.9
3427.19
1827.5
74.7948
303.562
398.191
402.003
405.259
401.793
406.542
400.003
398.872
387.586
377.701
361.424
347.946
333.708
330.645
330.933
335.79
333.422
321.437
298.283
268.122
236.561
205.979
179.655
157.438
138.969
124.647
114.477
108.081
104.422
102.814
101.446
98.6612
94.2755
89.0475
85.4393
87.4045
99.0338
124.2
166.797
232.539
328.858
466.584
662.678
944.976
1359.1
1976.69
2924.15
4560.77
7707.67
14018.5
26966.2
49579.8
87666
112838
108177
51383.7
20395.6
4572.29
632.937
23.3963
80.5886
80.5045
65.3188
55.643
48.1955
43.8705
38.6181
35.2371
30.5172
27.1284
23.2489
20.4565
18.4073
18.3453
19.5471
21.9297
24.5966
27.6499
31.9302
39.1366
50.9284
68.3342
92.3805
130.01
162.751
184.786
189.045
176.712
154.54
135.065
122.678
107.607
91.6194
76.466
64.1966
60.2297
70.7669
91.9997
127.575
186.219
282.516
437.777
679.173
1047.96
1595.09
2368.56
3364.9
4575.47
6108.69
8387.56
12638.5
20683.4
37918.5
51107.3
53662.9
24786.1
13988.8
3335.64
474.342
9.83994
21.8233
15.7936
10.3291
7.84122
6.23269
5.59246
5.1347
5.44621
6.26058
8.42415
12.4
19.7835
32.7559
55.4074
95.5048
157.63
273.179
474.803
816.614
1369.1
2201.65
3380.45
4735.08
5964.75
6908.92
7424.6
7403.9
6853.01
5917.27
4851.36
3844.84
3024.65
2270.47
1607.05
1051.57
667.044
501.43
440.16
434.095
488.72
618.355
846.53
1209.57
1749.51
2527.1
3602.25
5007.43
6735.49
8697.32
10718.2
13131.4
17676.7
36981.9
42993.3
53063
24616.2
9437.72
3275.04
399.868
5.62859
6.70645
4.19253
3.46164
4.35881
6.69147
11.4011
20.1487
36.0662
64.3172
114.447
202.381
355.682
616.215
1045.41
1737.46
2802.28
4466.07
6989.04
10682.7
15868
22715.5
31163.8
40137.6
48641.8
55860.2
60952.4
63395.5
62758.5
59295.2
53701.7
46794
39220.7
31724
24391.1
17402
11572.1
7643.8
5253.24
3607.68
2515.35
1853.73
1548.54
1636.31
2029.58
2648.88
3570.9
4951.77
6840
9240.37
12203.2
16308.8
21533.5
29230
32618.9
34450.6
26765.5
9610.76
2601.89
395.872
3.7123
7.08791
11.1244
20.8676
38.9852
72.0325
132.267
241.615
433.555
753.612
1261.8
2027.38
3148.17
4744.49
6945.46
9850.45
13608.8
18589.2
25172
33958.6
45547.9
60325.7
78401.6
98915.8
119357
137728
152723
163713
169834
171130
168174
161945
152130
139520
125027
107588
88231.5
68432.4
52639
39756.1
29903.2
22430.4
16256.9
11837.4
9665.81
8014.53
5572.47
4345.98
5317.52
7149.76
9627.14
12635.7
15579.8
18018
22739
22220.9
18822.2
8031.97
2652.56
417.578
4.54901
51.2553
116.078
245.114
479.117
912.718
1697.95
3059.37
5218.32
8343
12463.9
17371.9
22807.2
28373.4
33509.5
38495.3
43262.5
49649.9
58192.3
69292.7
84060.7
103312
127551
156040
185965
212112
233798
249998
260076
264734
265552
263611
258409
249558
238838
226287
214156
201947
191585
182319
173776
167176
156283
140637
117768
93924.1
63140.1
29968.6
13387.8
9391.37
9402.68
10356.1
11332.5
11679.4
14581.9
16055.8
16061.8
7418.49
2731.49
421.74
23.0055
425.917
1111.77
2426.99
4647.73
8367.88
14249
23236.6
35494.4
51302.6
70176.8
90523.6
110904
128398
136256
132204
125205
120211
118904
122004
130689
146173
168534
197093
229634
260354
285905
304420
315321
319684
320096
318354
314583
307741
298102
286033
273332
262957
256528
255522
258543
269262
288865
315820
343537
355373
327695
239899
144944
84912.9
54984.6
37058.2
27046.8
21419.7
18053
16049.1
14982.5
7519.92
2880.37
418.748
160.213
2323.88
6212.26
12731.4
22035.4
35563.4
52651.5
79245.5
113668
153904
194233
231560
265760
294782
312749
312860
293560
264825
231631
206412
190814
181329
177767
184213
202077
224059
243744
258945
268662
272149
270961
268111
265355
262495
258722
252153
241814
230240
220730
215541
212386
210342
210189
211045
210444
205719
196312
179965
160721
143274
125644
103322
75023.6
50076.3
31849.6
21659.7
14942.3
7560.09
2896.19
402.649
432.532
12471.5
35319.7
63099
91150
123921
147410
168827
192850
220656
249440
270348
279422
282137
285876
295943
311281
327268
327399
300927
259000
212606
170707
145249
136501
138456
144387
150645
155784
158683
158905
156859
153810
150853
148538
146805
144779
141706
136851
131608
127228
122631
116768
110251
104540
99237.4
92459.7
83194.9
71732.3
59695
47880.1
36814.8
27211.5
19775.5
14408.5
10438.4
6610.49
3482.66
1733.32
337.436
204.18
2326.8
35119.3
53487.8
62196.8
73490.9
84300.4
95342.5
105176
112307
119804
126619
127193
121406
116665
119017
129617
143691
149552
142658
132822
124900
124145
122807
115266
111883
112761
114319
115472
116025
115535
113731
110661
106574
101936
97178.5
92390.9
87006
80662.2
74587.6
69343.9
64651.5
60300.4
56511.3
53837
51981.9
49618.4
45554.4
39473.3
32253.8
24854.3
18211.7
12835.3
9108
6484.69
4628.56
3246.47
1813.81
1030.89
307.558
108.412
663.829
14740.6
25132.1
27963
29198.1
28266.3
26846.9
26400.5
27527.2
28920.4
28187.5
25109.1
21563.1
20014.1
20230.8
22851.6
28648.4
33028.8
34410.4
36698.1
42472.6
54560.9
77211
100719
115469
123236
128203
132609
136902
138888
136217
129159
120108
110881
101657
92703.7
84314.3
76205.3
68269.5
60724.2
54929.7
51464.2
49811.8
49144.4
48344
46387.6
42531.3
36315
28559.3
20761.6
14074.7
9071.27
5952.05
4031.28
3117.4
2517.26
1553.52
1011.84
315.317
95.3868
2900.98
22294.6
43662.2
40031.9
39492.6
38690
37901
37484.1
37133.7
36954.6
38246.8
40958
44185.4
46923.8
45896
40362
32833.1
26716.1
24672.4
27051.7
34599.5
47799.8
65276.6
83420.9
100068
116041
129369
134918
133445
130362
128085
126823
124892
119795
112014
103390
94677
86516.9
79022.3
71415.5
64787.7
60428.5
57972.4
56813.1
55804.1
53638.5
49288.3
42232.6
33177.6
23665.7
15689.5
10092.9
6440.1
4053.27
3082.68
2505.76
1620.34
1100.26
320.323
107.805
3074.04
9551.16
18161.4
21648.2
26961.2
30647
34059.9
38372.1
43883.1
50627.4
59607.9
70210.4
79843.2
83389.7
76989.5
66975.4
59695.8
54366.7
50905
50734.6
52665.8
56747.5
64464.5
77063
91753.8
103353
110200
113212
114363
115248
115893
116605
118050
120627
123041
121068
113303
103764
94924
86216.5
79044.3
74685.9
72488.2
71524.2
70782.9
68511.1
63247.6
54551.6
43332.3
31534.6
21351.2
13851.8
8837.9
6172.6
5343.04
4164.74
2273.42
1334.89
351.873
194.768
3316.5
7776.64
12445.2
15344
20327.3
24768.7
30755.3
38896.7
48108.5
58065.1
69819.4
84106.6
96288.1
99405.3
91783
80918.5
74814.4
71828
69565.8
68670.2
71098
78898.4
94011.5
117056
142906
159324
163898
163533
163243
163577
163081
162034
162213
164769
167284
163378
153347
142558
132209
122268
115941
113408
113243
113381
109935
100549
86631.2
70372.1
53672.4
38330.7
26204.4
17363.6
11664.1
8231.65
6692.12
5232.65
3131.77
1948.13
442.528
328.982
1869.57
2740.07
4590.03
7531.14
11875.3
17813.3
25450.8
35533.9
47851.1
63372.7
80609.6
95624.9
102674
98762.7
89308.5
82547.7
80455.2
82349.1
86972.5
94966
107459
125942
152493
186001
210402
213263
210651
209879
209377
207074
203273
199494
195996
191890
182415
167654
153983
143000
131909
122167
119171
120850
121152
114580
100939
84718.6
67646.3
50622.6
35590.6
23796.5
16148.5
10860.3
7409.85
5369.15
4937.9
6337.29
4789.92
2585.6
525.062
158.12
1655.53
3623.07
7348.3
12267.8
19414.6
28113.1
39019.2
51334.3
65517.4
84988.8
104780
119574
123995
120078
112848
110183
114381
123909
137841
156310
181161
210249
244698
277799
285220
271230
259308
250390
241571
234133
227980
221451
213442
203608
191024
178014
166193
154560
143526
134803
128597
122971
116944
107889
93905.1
77276.2
60357.7
44753.9
31698
21496
14896.2
10635.2
7631.88
5709.05
6153.34
7556.22
5567.73
3077.26
578.403
51.5024
631.428
1555.19
3224.35
5719.25
9065.51
12652.9
16780.8
21502.4
27435.9
35373.9
44770.7
54479.3
62625.5
68797
75947.7
85702.8
101136
124214
155270
191622
224961
250440
265253
261213
239559
218475
204672
196464
191296
187032
181684
174500
166539
158950
151863
144813
137708
132121
129167
128172
127090
123026
115760
103583
84431.6
63685.5
46171.5
32960.1
22965.4
15896.1
11514.7
8738.53
6667.31
5470.28
7031.97
6506.36
4007.74
2399.31
532.584
9.00837
54.3129
127.391
274.205
531.702
933.805
1498.99
2285.07
3379.29
4904.77
6996.38
9682.08
12927
16613.8
20873.3
26006.3
32808.4
42571.7
56675.5
76164.4
100768
127319
145187
150154
141692
126559
114042
107151
104781
103464
101408
97796
93249.5
88652.1
84574.9
80309.8
76016.5
71086.6
66973.3
61392.2
57089.6
51835.5
46823.8
41753.4
35735.9
27810
21087.4
16344.3
13700.5
13296.7
16427.3
18862.1
16426.5
13476.4
10296
12002.6
9891.24
3994.01
2253.25
511.399
9.5709
13.4863
13.3829
19.4688
32.2767
52.869
84.256
130.793
201.498
307.289
466.253
698.68
1034.67
1510.89
2187.64
3158.7
4615.44
6839.82
10197.4
15031.4
21478.4
29115.8
36294.8
37775
33944.3
28154.9
23713.9
21588.9
21017.1
20739.9
19870.2
18482.4
17023
15851.9
14848.8
13746.5
12547.8
11254.8
10197.7
9026.31
8387.2
7573.63
6870.24
6214.96
5588.87
5155.71
5923.3
8549.84
13614.9
22073.8
32927.9
40938.3
36421.4
27092.9
18417.3
18072.2
12579.8
6755.54
2868.68
485.429
14.2749
31.0304
21.3327
14.4316
11.8828
10.7617
11.3788
12.423
14.5549
17.2197
21.5124
27.8751
38.189
54.6099
80.9913
123.609
194.616
314.336
515.139
840.529
1334.97
2021.16
2932.89
3239.98
2714.29
1952.9
1424.51
1212.45
1146.31
1106.74
1005.2
881.246
791.819
730.979
682.239
628.568
574.512
523.604
481.195
455.278
526.026
688.478
1003.2
1578.75
2669.84
4735.8
8498.13
15050
26169.5
46939
61694.1
64304.1
53646.9
42966.5
32442.3
31676.2
21145.4
13847.6
3292.02
478.545
31.9329
106.247
98.0796
76.5368
66.1405
57.6901
55.2275
52.3896
51.6607
48.7687
46.6917
43.36
41.4838
41.1376
42.7941
45.2995
47.0741
46.6694
44.8063
44.6245
50.4547
66.9349
100.225
123.377
108.755
89.1466
88.317
101.094
108.363
100.735
81.2551
60.4283
45.0963
36.8276
34.4647
37.096
44.739
60.495
92.6927
153.675
270.001
493.207
926.878
1777.4
3448.17
6705.25
12958.4
24582.7
44912.6
71572.7
89612
102624
104916
103675
96332.3
96110.9
75566.1
53682.2
3746.78
519.69
95.1652
355.684
448.285
435.27
438.862
435.611
446.72
453.643
465.485
467.22
468.934
462.497
459.613
460.998
471.335
483.136
487.828
473.745
435.703
379.064
315.154
260.091
225.564
213.317
205.322
200.03
197.303
195.672
186.91
171.394
152.947
134.705
118.888
106.382
96.9579
90.9884
90.3653
98.3362
121.4
169.091
263.052
453.164
848.853
1699.7
3543.56
7529.95
15942.4
33337.1
55991.1
84672.5
119101
161683
221055
274646
295993
297965
274057
97582.4
6198.08
676.129
354.845
671.832
1475.36
1940.88
2355.53
2682.34
2994.26
3274.11
3544.7
3798.98
4030.62
4246.38
4431.92
4605.19
4762.68
4921.9
5067.95
5195.14
5271.76
5280.58
5206.57
5053.53
4833.83
4570.23
4293.87
4007.51
3703.34
3383.09
3061.64
2751.29
2458.45
2190.28
1947.25
1730.2
1539.03
1375.38
1244.55
1155.16
1115.24
1128.23
1204.22
1361.69
1636.01
2110
3000.48
4807.9
9112
14916.3
20249.7
25849.7
33671.5
51145.4
90840.8
143169
151552
119267
83396.3
39180.1
4509.38
1918.67
288.244
560.699
1227.13
1620.63
1977.89
2265.49
2524.32
2770.06
3000.92
3224.88
3428.19
3606.71
3752.41
3869.52
3968.39
4063.95
4171.37
4273.04
4357.17
4405.45
4402.33
4339.74
4217.38
4038.45
3812.42
3548.8
3258.23
2955.41
2651.42
2382.77
2162.28
1986.33
1845.22
1728.77
1631.32
1554.79
1504.09
1485.01
1499.68
1543.99
1613.84
1713.63
1860.95
2157.44
2762.85
3616.96
4684.4
6073.05
7736.6
9657.71
12823.6
20491.3
34020.4
38915.4
41980.4
45788.6
25365.8
11468.2
2306.74
1248.95
209.609
425.674
972.073
1303.44
1590.26
1827.52
2032.26
2230.42
2411.95
2589.03
2748.51
2887.79
3000.78
3092.23
3171.38
3251.13
3335.96
3422.02
3494.69
3539.31
3544.88
3505.86
3423.13
3300.14
3143.54
2959.34
2753.03
2532.29
2304.74
2081.75
1882.19
1709.39
1557.63
1421.72
1311.3
1228.16
1169.71
1146.45
1181.72
1306.88
1547.04
1931.71
2513.28
3291.77
4405.6
5660.18
7109.56
8683.33
10367.1
11964.4
14206.7
19749.3
30566.9
32797.7
34303.2
36319
17765.8
7727.01
1746.83
1001.81
192.917
360.08
725.755
947.974
1149.41
1322.22
1469.64
1616.11
1748.78
1879.33
1997.04
2100.12
2183.95
2251.71
2309.95
2367.33
2426.47
2483.43
2527.82
2549.99
2543.7
2506.5
2439.35
2346.55
2233.03
2100.89
1951.26
1786.37
1609
1428.41
1267.06
1136.38
1048.96
1022.54
1062.59
1142.45
1251.3
1425.14
1718.13
2146.57
2682.7
3533.69
4604.83
5754.55
6873.11
7922.41
9116.51
10539.8
12174.9
13680.2
15396.4
19234.1
26669.7
26864.5
27321
29689.4
13727.7
5042.04
1261.5
776.357
189.299
295.554
514.58
643.075
775.605
894.003
998.055
1103.49
1198.29
1288.89
1367.22
1433.3
1484.89
1524.02
1554.79
1583.89
1613.73
1644.07
1670.95
1693.64
1716.64
1747.38
1793.22
1870.52
2016.93
2257.9
2622.04
3190.62
3906.14
4624.59
5235.08
5572.23
5608.65
5587.13
5681.79
5675.26
5591.17
5453.83
5501.38
5910.11
6661.69
7702.96
8716.5
9530.27
10334.2
11025.3
11935.6
13097.1
14393.4
15430
16376.7
18563.4
23919.3
22757.3
22765.8
26106.6
10888.5
3502.66
993.089
610.429
177.23
206.011
282.844
355.766
431.08
506.892
566.519
631.542
681.24
726.345
760.583
784.648
795.334
795.297
789.207
785.16
783.912
784.743
784.871
789.246
808.4
857.125
952.367
1109.59
1343.91
1692.29
2213.3
2845.02
3556.62
4371.12
5220.76
5989.87
6549.92
6931.81
7238.49
7298.27
7159.39
7094.83
7286.37
7538.89
7902.33
8507.54
9167.45
9540.18
9624.21
9753.49
10302.3
10949.1
11576.1
12044.1
12307.6
14938.4
21190.3
20551.7
19892.4
24754.3
9525.37
2908.66
860.38
513.673
153.737
122.896
170.157
221.33
280.074
329.153
379.312
423.009
463.595
496.308
517.876
524.5
517.71
504.149
491.209
484.724
487.415
501.444
528.101
569.829
631.11
713.759
824.47
974.057
1180.09
1481.29
1866.09
2298.72
2799
3386.44
4027.15
4698.94
5310.7
5841.79
6203.97
6141.08
6014.74
5930.79
6153.03
6536.64
7040.44
7618.04
8166.01
8529.32
8702.08
9092.22
9745.6
10199.7
10382.5
10363.1
10903.4
13742.2
19167.4
18870.4
17812.7
22548.8
9541.33
2935.21
778.365
483.633
146.009
188.679
287.676
375.197
470.583
555.36
649.42
733.848
814.189
879.456
921.52
937.403
930.632
908.028
879.433
856.823
841.316
837.591
848.008
875.434
925.821
1002.65
1110.33
1255.18
1448.95
1693.96
1913.58
2146.48
2464.79
2912.13
3458.62
4118.17
4847.79
5647.59
6431.16
7086
7302.81
7509.72
8004.17
8617.28
9398.33
10282.1
11029.1
11521.6
11981.1
12740.5
13230.2
12967.1
12171.3
11003.8
11313.7
15406.9
19588.4
18025.9
17320.3
19680.3
9941
3697.34
911.482
547.343
109.421
233.01
497.059
689.531
900.033
1076.33
1261.38
1427.4
1587.06
1731.07
1850.78
1933.77
1975.61
1977.67
1938.84
1885.38
1822.03
1749.49
1666.64
1585.88
1523.61
1497
1532.3
1651.54
1874.7
2225.28
2605.05
3004.69
3488.88
4113.52
4938.11
5987.79
7329.19
8932.98
10526
11369.2
12320.2
13450.9
14587.4
15584.1
16384.8
17014.2
17605
18634.7
20013
21173.3
21781.3
21907.1
21786.3
21058.3
19989.8
23153.3
32041.8
30755.9
31635
36690
20477.5
8586.93
1403.3
824.214
106.798
272.935
666.858
960.641
1281.27
1554.79
1833.52
2088.93
2335.44
2573.92
2800.58
3002.14
3174.58
3321.01
3450.78
3580.99
3712.02
3833.29
3918.05
3942.36
3877.97
3672.41
3411.95
3215.62
3133.01
3207.63
3511.47
3939.08
4500.29
5227.95
6209.28
7451.31
8991.05
10663.8
12404.6
13779.2
13979.5
14335
15232.2
16287.1
17415.7
18386.9
19344
20749.8
22475.1
24098.1
25644
27190.4
28867.7
30433.6
30352.4
29336.1
39284.8
40473.7
47262.9
57877.7
32420.1
14540.6
2196.79
1048.66
125.039
338.839
835.687
1206.31
1588.66
1921.21
2239.98
2530.02
2805.62
3067.96
3319.24
3549.38
3754.77
3943.06
4129.55
4339.34
4580.43
4851
5126.52
5375.94
5568.87
5683.53
5706.56
5616.13
5372.3
4948.7
4620.29
4430.8
4386.92
4526.2
4823.97
5244.28
5734.83
6141.72
6449.4
6595.74
6608.26
6703.15
7091.73
7565.22
8892.52
10620.4
12507.5
14615.6
16791.5
18744.5
20564.2
22477.1
24746.5
27624.7
29924.9
32008.6
46569
49617.8
53529.7
65871.2
38849.3
17191.5
2636.7
1180.95
153.743
398.397
965.738
1388.93
1792.89
2135.64
2450.64
2733.77
2995.78
3240.95
3467.76
3675.18
3856.22
4022.04
4183.29
4364.06
4568.58
4800.32
5039.18
5261.46
5446.67
5581.27
5655.67
5671.89
5626.24
5522.27
5339
5009.69
4621.77
4288.59
4029.06
3847.01
3755.25
3708.61
3701.75
3687.22
3624.16
3548.2
3629.75
4019.79
4893.23
6173.11
7805.21
9970.69
12227.4
14106.4
15763.1
17258.8
18821.8
21015.7
24191.7
30510.7
49069.7
56971.4
55120.1
59523.1
38106
15481.5
2567.59
1177.57
167.952
393.968
1005.59
1444.79
1850.81
2186.42
2486.15
2753.75
2995.62
3220.83
3422.31
3605.74
3761.61
3901.75
4029.95
4170.43
4319.25
4481.01
4634.08
4761.69
4848.57
4889.21
4882.36
4836.49
4754.95
4642.98
4493.23
4285
3988.34
3667.31
3393.47
3182.78
3067.57
3057.77
3134.41
3212.29
3197.32
3038.56
2799.77
2622.12
2712.98
3221.79
4311.62
6183.57
8481.36
10300.7
11595.5
12648.8
13966.8
16614.9
22247.4
33973.9
55304.4
63139.7
56550
54362.6
33770.4
13469.3
2481.43
1205.16
174.084
389.043
1074.2
1543.18
1958.35
2293.03
2591.7
2853.23
3090.17
3308.56
3499.1
3672
3813.25
3940.23
4049.51
4166.53
4279.21
4392.54
4479.33
4527.55
4523.07
4464.62
4355.53
4208.43
4033.32
3840.29
3633.82
3421.82
3207.66
2997.62
2792.53
2588.79
2386.37
2192.43
2021.23
1867.24
1734.58
1639.47
1597.04
1620.73
1721.26
1937.07
2343.26
3021.43
3920.36
4759.8
5451.79
6073.41
7070.56
9740.06
17129.3
34220.7
58366.6
67132.4
59889.1
52989.4
29931.4
12643.8
2628.55
1329.3
234.29
517.078
1235.73
1700.73
2126.75
2454.57
2760.17
3019.05
3258.19
3476.36
3666.43
3840.73
3980.9
4110.17
4216.25
4327.37
4425.36
4517.52
4574.85
4588.27
4543.94
4442.12
4287.44
4090.9
3864.39
3620.66
3368.66
3119.83
2880.35
2655.42
2444.56
2248.71
2062.98
1887.92
1727.89
1593.31
1500.28
1457.32
1475.11
1562.58
1717.3
1924.09
2147.62
2363.1
2594.67
2853.45
3183.54
3753.92
5147.82
8910.35
18197.8
36783.3
60315.3
70481.2
65526
52699.2
27957.7
13073
2965.06
1536.76
274.668
560.569
1396.67
1913.91
2380.26
2748.62
3089.91
3396.08
3689.25
3964.09
4211.56
4441.92
4638.62
4820.11
4988.97
5164.83
5338.82
5502.07
5620.56
5667.25
5623.94
5491.47
5283.52
5024.22
4728.84
4412.63
4080.49
3739.56
3402.32
3081.03
2783.33
2517.99
2285.99
2087.43
1921.11
1787.69
1690.44
1640.94
1649.65
1721.11
1852.31
2068.76
2451.12
3225.47
5193.28
9498.61
15890.4
22409.6
28643.4
35419
45502.1
67681.5
107997
155347
168191