/*--------------------------------*- C++ -*----------------------------------*\
| =========                 |                                                 |
| \\      /  F ield         | OpenFOAM: The Open Source CFD Toolbox           |
|  \\    /   O peration     | Version:  2.1.1                                 |
|   \\  /    A nd           | Web:      www.OpenFOAM.org                      |
|    \\/     M anipulation  |                                                 |
\*---------------------------------------------------------------------------*/
FoamFile
{
    version     2.0;
    format      ascii;
    class       volVectorField;
    location    "0.0015";
    object      fluctuation2;
}
// * * * * * * * * * * * * * * * * * * * * * * * * * * * * * * * * * * * * * //

dimensions      [0 1 -1 0 0 0 0];

internalField   nonuniform List<vector> 
36520
(
(0.428528 0.255783 0.330688)
(0.541829 0.358485 0.347926)
(0.749794 0.504397 0.481073)
(0.829907 0.572344 0.54809)
(0.898303 0.619157 0.596825)
(0.944932 0.654039 0.631964)
(0.987672 0.68288 0.66097)
(1.02499 0.708046 0.686281)
(1.06044 0.730579 0.70867)
(1.09337 0.750898 0.729415)
(1.1239 0.768809 0.748154)
(1.15199 0.784987 0.765504)
(1.17726 0.798913 0.780731)
(1.2002 0.811187 0.794319)
(1.22019 0.82122 0.805336)
(1.23904 0.829694 0.814735)
(1.25689 0.836571 0.822171)
(1.27437 0.842362 0.828512)
(1.28991 0.846679 0.833332)
(1.30214 0.848701 0.836618)
(1.30882 0.847458 0.837736)
(1.30798 0.842124 0.835837)
(1.29784 0.831822 0.830158)
(1.27701 0.816052 0.819832)
(1.24434 0.794388 0.804209)
(1.19997 0.766687 0.782166)
(1.14579 0.733087 0.752834)
(1.0887 0.696622 0.718432)
(1.03777 0.662104 0.683367)
(0.997286 0.632002 0.650375)
(0.966062 0.606869 0.621141)
(0.939275 0.585558 0.596043)
(0.912834 0.566373 0.573879)
(0.885736 0.548273 0.553195)
(0.858337 0.530916 0.533305)
(0.831733 0.514591 0.514397)
(0.807335 0.499947 0.497213)
(0.787758 0.488706 0.483507)
(0.776239 0.483067 0.475088)
(0.775719 0.484949 0.47342)
(0.788017 0.495564 0.479188)
(0.814444 0.515967 0.492792)
(0.855626 0.54682 0.514344)
(0.910841 0.58795 0.543281)
(0.979001 0.639223 0.57864)
(1.0589 0.701605 0.619303)
(1.14932 0.779735 0.664866)
(1.25121 0.885557 0.717452)
(1.36873 1.04197 0.788858)
(1.49866 1.26839 0.909565)
(1.65816 1.51335 1.11665)
(1.96553 1.78092 1.41909)
(2.26131 1.96425 1.69817)
(2.42173 1.9581 1.8892)
(2.39717 1.85678 1.89726)
(2.19314 1.68133 1.80022)
(1.91133 1.46502 1.65719)
(1.63482 1.20783 1.41432)
(0.77254 0.647933 0.755233)
(0.65376 0.4918 0.569644)
(0.396735 0.231344 0.231933)
(0.468927 0.304424 0.284096)
(0.512105 0.342318 0.326451)
(0.511017 0.347804 0.334606)
(0.516258 0.352641 0.340634)
(0.519453 0.356336 0.345299)
(0.528801 0.362384 0.35166)
(0.536412 0.367476 0.357204)
(0.545291 0.372897 0.362661)
(0.551718 0.376408 0.36679)
(0.556576 0.378754 0.369747)
(0.558557 0.379323 0.371162)
(0.559298 0.379081 0.37168)
(0.558049 0.377743 0.370873)
(0.557389 0.376592 0.36992)
(0.55752 0.375632 0.36879)
(0.559764 0.375624 0.368327)
(0.562036 0.375428 0.36784)
(0.562183 0.373991 0.366376)
(0.556702 0.369269 0.362185)
(0.542872 0.359846 0.353969)
(0.520617 0.345879 0.341824)
(0.490707 0.328125 0.326369)
(0.457053 0.309232 0.309933)
(0.424384 0.292114 0.295097)
(0.404251 0.282986 0.28764)
(0.410821 0.288408 0.294058)
(0.402098 0.280074 0.285443)
(0.347358 0.239266 0.243544)
(0.286932 0.192925 0.196428)
(0.255167 0.166447 0.169166)
(0.240929 0.154157 0.156108)
(0.231096 0.146506 0.147825)
(0.223543 0.141236 0.141813)
(0.218716 0.13816 0.137797)
(0.217301 0.137521 0.136004)
(0.218914 0.138966 0.136122)
(0.224689 0.143261 0.138787)
(0.236566 0.151789 0.145108)
(0.255997 0.165687 0.155881)
(0.28365 0.185662 0.171463)
(0.320589 0.212615 0.192512)
(0.366921 0.246699 0.219158)
(0.422599 0.288141 0.251453)
(0.489533 0.339021 0.29074)
(0.571242 0.403672 0.339452)
(0.672108 0.489079 0.40124)
(0.800167 0.607766 0.48355)
(0.963856 0.776474 0.598683)
(1.16511 1.00361 0.760219)
(1.37954 1.23994 0.952585)
(1.72203 1.45837 1.21866)
(2.4865 1.80735 1.76367)
(3.29694 2.11736 2.15103)
(3.49461 2.1525 2.06788)
(2.97339 1.90735 1.74216)
(2.44472 1.64078 1.516)
(2.41688 1.53476 1.45585)
(0.900659 0.593489 0.654665)
(0.651795 0.450195 0.508215)
(0.293666 0.162822 0.161296)
(0.275518 0.179338 0.167751)
(0.283777 0.190469 0.182568)
(0.266457 0.181997 0.175747)
(0.257958 0.17692 0.171535)
(0.251481 0.172971 0.168268)
(0.251888 0.17335 0.16873)
(0.25159 0.173306 0.168937)
(0.253769 0.174854 0.170498)
(0.254173 0.175223 0.171185)
(0.254547 0.17573 0.171975)
(0.253735 0.17587 0.172553)
(0.25425 0.177375 0.17445)
(0.257263 0.181316 0.178526)
(0.266402 0.189978 0.186988)
(0.283771 0.204567 0.200995)
(0.311678 0.226151 0.221918)
(0.350062 0.254539 0.249724)
(0.399926 0.290296 0.285108)
(0.461502 0.333631 0.328155)
(0.534743 0.384502 0.378871)
(0.618295 0.441785 0.436056)
(0.70903 0.503165 0.497533)
(0.802193 0.56575 0.560409)
(0.892071 0.626342 0.621419)
(0.972177 0.680258 0.67584)
(1.04226 0.7238 0.719717)
(1.00094 0.692531 0.686578)
(0.798963 0.557169 0.549579)
(0.526736 0.372276 0.368341)
(0.315467 0.223167 0.226096)
(0.207119 0.144937 0.150541)
(0.156998 0.109092 0.114328)
(0.130345 0.090296 0.0944989)
(0.113386 0.0784029 0.0814816)
(0.102463 0.0706992 0.0726312)
(0.0987197 0.0680114 0.0687734)
(0.102497 0.0706411 0.0701223)
(0.113237 0.0782579 0.0762369)
(0.130481 0.0905905 0.0867125)
(0.153568 0.107369 0.10114)
(0.183152 0.129159 0.119963)
(0.220314 0.15672 0.144058)
(0.266786 0.191237 0.174821)
(0.325825 0.235498 0.214723)
(0.402447 0.294227 0.267083)
(0.502828 0.374162 0.336356)
(0.632489 0.483929 0.427377)
(0.792905 0.632644 0.544248)
(0.980682 0.82444 0.690229)
(1.21904 1.0684 0.884627)
(1.49619 1.3271 1.11802)
(1.75678 1.56087 1.41405)
(1.94146 1.61274 1.57326)
(2.11783 1.56702 1.66045)
(2.22294 1.59788 1.59018)
(1.69585 1.33578 1.28424)
(2.01497 1.3035 1.28341)
(1.05783 0.670488 0.684974)
(0.633678 0.435187 0.46758)
(0.217306 0.113176 0.114018)
(0.162588 0.105691 0.0994914)
(0.152413 0.103036 0.0991031)
(0.135848 0.0943704 0.091245)
(0.128717 0.0904337 0.087801)
(0.125112 0.0890378 0.0868056)
(0.127935 0.092149 0.0901929)
(0.133464 0.0974462 0.0957813)
(0.144824 0.107125 0.105744)
(0.161753 0.121273 0.120185)
(0.188182 0.142672 0.141863)
(0.227131 0.17349 0.173072)
(0.283265 0.216973 0.216888)
(0.360212 0.275769 0.275587)
(0.460548 0.351388 0.350321)
(0.583602 0.442585 0.439765)
(0.729132 0.54745 0.54322)
(0.898957 0.666207 0.661741)
(1.09659 0.80047 0.797514)
(1.32341 0.950873 0.950846)
(1.57818 1.11637 1.12028)
(1.85369 1.29172 1.29926)
(2.1349 1.46608 1.47538)
(2.40127 1.62636 1.63466)
(2.62045 1.75575 1.75831)
(2.74332 1.82881 1.82102)
(2.73961 1.82424 1.80475)
(2.53356 1.69276 1.66021)
(2.0654 1.40086 1.35843)
(1.46667 1.01765 0.983997)
(0.967989 0.676967 0.670384)
(0.690051 0.477483 0.489354)
(0.55313 0.380016 0.396354)
(0.471791 0.32375 0.338887)
(0.406152 0.279168 0.291399)
(0.33856 0.233278 0.242684)
(0.275033 0.189873 0.197589)
(0.220757 0.152688 0.159785)
(0.181711 0.126172 0.133338)
(0.160619 0.112439 0.119804)
(0.155155 0.109959 0.117134)
(0.163933 0.117776 0.124333)
(0.180905 0.131968 0.137767)
(0.209199 0.154413 0.159979)
(0.251765 0.187361 0.193526)
(0.310387 0.23308 0.239614)
(0.390082 0.296561 0.301722)
(0.497698 0.384503 0.384508)
(0.633119 0.50264 0.489334)
(0.781154 0.647818 0.610116)
(0.929796 0.815779 0.743309)
(1.17299 1.07696 0.959793)
(1.24893 1.15485 1.01351)
(1.28151 1.11784 1.01769)
(1.38469 1.09938 1.0835)
(1.55906 1.14822 1.12051)
(1.09672 0.911079 0.825328)
(1.31845 0.880519 0.836947)
(0.914457 0.580606 0.584667)
(0.625643 0.425528 0.435154)
(0.175198 0.0884687 0.092464)
(0.101412 0.067779 0.0654814)
(0.0923121 0.0666109 0.0651439)
(0.0907141 0.0692376 0.0682884)
(0.101841 0.0795674 0.0790712)
(0.122296 0.0966187 0.0965898)
(0.153383 0.121283 0.121712)
(0.197042 0.155067 0.155931)
(0.257125 0.200733 0.202258)
(0.338723 0.261876 0.26429)
(0.448103 0.343112 0.346733)
(0.591002 0.448844 0.454029)
(0.769658 0.580813 0.587651)
(0.983163 0.738922 0.745829)
(1.22467 0.918598 0.921439)
(1.47776 1.10657 1.10189)
(1.73468 1.29234 1.2827)
(2.00649 1.48041 1.47273)
(2.30819 1.67889 1.68366)
(2.65477 1.89907 1.92507)
(3.05 2.14561 2.19823)
(3.49156 2.41668 2.49614)
(3.96742 2.69964 2.80051)
(4.45952 2.97745 3.09035)
(4.9361 3.23282 3.34071)
(5.28691 3.41116 3.49044)
(5.30032 3.39751 3.42873)
(4.93906 3.17817 3.14952)
(4.21198 2.76227 2.67209)
(3.25291 2.20142 2.09215)
(2.39019 1.64853 1.58871)
(1.88308 1.28633 1.28889)
(1.63211 1.10337 1.13424)
(1.48599 1.00212 1.03841)
(1.37278 0.927505 0.958727)
(1.2481 0.846081 0.869228)
(1.12223 0.762405 0.779741)
(0.997497 0.677655 0.692246)
(0.888119 0.602187 0.61687)
(0.811426 0.54885 0.565742)
(0.733627 0.495589 0.514824)
(0.637627 0.431255 0.451287)
(0.522606 0.354992 0.373869)
(0.404611 0.276394 0.296345)
(0.377891 0.260108 0.284113)
(0.381095 0.265803 0.295828)
(0.381453 0.271855 0.310069)
(0.395879 0.292355 0.337687)
(0.475266 0.362002 0.410528)
(0.575753 0.455729 0.501074)
(0.67654 0.558663 0.594582)
(0.804182 0.685048 0.71358)
(0.778745 0.647587 0.720219)
(0.842392 0.678563 0.753676)
(1.03099 0.798611 0.848145)
(1.36748 0.959027 0.971058)
(0.984298 0.759726 0.711452)
(0.897512 0.656248 0.671646)
(0.698445 0.491783 0.514109)
(0.626775 0.423949 0.416725)
(0.168674 0.0878709 0.0965726)
(0.100369 0.0754311 0.0755599)
(0.121783 0.0972172 0.0967242)
(0.158117 0.127732 0.127332)
(0.208354 0.16676 0.16737)
(0.277681 0.219969 0.221836)
(0.368081 0.288582 0.291793)
(0.487949 0.378093 0.382796)
(0.643472 0.492551 0.498906)
(0.842407 0.636389 0.64472)
(1.09094 0.814311 0.824235)
(1.39112 1.0282 1.03945)
(1.73461 1.2731 1.28581)
(2.102 1.53734 1.54658)
(2.46548 1.80457 1.7972)
(2.78154 2.04582 2.0065)
(3.03618 2.24559 2.17548)
(3.26633 2.41796 2.33737)
(3.51113 2.58093 2.52357)
(3.81225 2.76036 2.75912)
(4.18874 2.97935 3.0485)
(4.61782 3.23267 3.37157)
(5.09936 3.51405 3.71472)
(5.60919 3.79008 4.03632)
(6.15196 4.06162 4.32529)
(6.69403 4.31685 4.55594)
(6.98434 4.41755 4.6014)
(6.83393 4.28265 4.39044)
(6.31593 3.99988 3.98412)
(5.41907 3.55393 3.4034)
(4.40335 2.99103 2.82053)
(3.71009 2.52218 2.44957)
(3.33013 2.23761 2.24862)
(3.10246 2.07692 2.12396)
(2.95728 1.98398 2.03428)
(2.83835 1.91354 1.94757)
(2.73666 1.85322 1.86711)
(2.62619 1.78222 1.77926)
(2.51045 1.70274 1.68694)
(2.43775 1.64786 1.62609)
(2.36952 1.59582 1.57382)
(2.27319 1.52851 1.51096)
(2.12204 1.43169 1.41727)
(1.89103 1.28467 1.27736)
(1.72242 1.17454 1.17856)
(1.59075 1.08838 1.10588)
(1.45146 0.994027 1.0307)
(1.23987 0.852542 0.908111)
(0.985413 0.686994 0.755066)
(0.751777 0.537868 0.617056)
(0.678482 0.49949 0.592714)
(0.702504 0.526415 0.6256)
(0.793443 0.580983 0.668905)
(0.860992 0.593622 0.695715)
(1.01861 0.684627 0.77717)
(1.39948 0.929638 0.921681)
(1.1682 0.782465 0.754515)
(0.73987 0.5761 0.639319)
(0.646452 0.4828 0.483624)
(0.633455 0.425763 0.406828)
(0.216816 0.130728 0.142864)
(0.197508 0.153003 0.156971)
(0.274921 0.218487 0.219229)
(0.374608 0.297394 0.298222)
(0.492953 0.386158 0.38686)
(0.646918 0.500139 0.501686)
(0.832033 0.63697 0.637532)
(1.06015 0.802867 0.802146)
(1.33396 0.999568 0.99702)
(1.66381 1.23134 1.22811)
(2.04399 1.49278 1.49173)
(2.47882 1.78973 1.79341)
(2.9517 2.1128 2.1277)
(3.42047 2.4371 2.45889)
(3.82197 2.7229 2.7322)
(4.12806 2.95318 2.9182)
(4.36174 3.14282 3.04272)
(4.53658 3.2974 3.14736)
(4.64775 3.40498 3.24235)
(4.79602 3.50915 3.38731)
(5.04544 3.64354 3.60041)
(5.339 3.78705 3.83353)
(5.62058 3.92434 4.0457)
(5.87002 4.03387 4.21816)
(6.13886 4.14071 4.37633)
(6.48711 4.27996 4.53042)
(6.84905 4.40278 4.63262)
(6.99881 4.4055 4.59365)
(6.83855 4.29393 4.40544)
(6.37557 4.10152 4.08113)
(5.75918 3.84423 3.69867)
(5.18963 3.51813 3.36265)
(4.76761 3.21196 3.12641)
(4.43801 2.9768 2.95834)
(4.17663 2.80845 2.83091)
(3.98866 2.69943 2.73287)
(3.87909 2.64544 2.66506)
(3.82717 2.62756 2.61746)
(3.79131 2.61725 2.56884)
(3.78377 2.61688 2.53301)
(3.81408 2.6312 2.51879)
(3.8298 2.6304 2.49726)
(3.85279 2.63187 2.4865)
(3.75805 2.56982 2.41574)
(3.52544 2.427 2.26874)
(3.25255 2.26 2.10421)
(2.97825 2.08087 1.94042)
(2.67022 1.87104 1.76645)
(2.30184 1.63125 1.56246)
(1.91539 1.3863 1.34396)
(1.61507 1.19533 1.17147)
(1.39299 1.04239 1.02982)
(1.28496 0.956388 0.934359)
(1.21468 0.873239 0.893246)
(1.27595 0.866697 0.946395)
(1.54752 0.994306 1.03347)
(1.39097 0.866229 0.875858)
(0.951558 0.640681 0.653137)
(0.779023 0.519988 0.494365)
(0.660197 0.429569 0.40746)
(0.335388 0.240459 0.252434)
(0.4051 0.313028 0.316659)
(0.590969 0.462063 0.449831)
(0.818969 0.633669 0.619571)
(1.04091 0.800543 0.774939)
(1.31748 1.00083 0.968442)
(1.5926 1.20351 1.16141)
(1.88693 1.42073 1.36688)
(2.18415 1.64173 1.57729)
(2.5611 1.91195 1.83839)
(2.938 2.16307 2.08879)
(3.31622 2.40173 2.33095)
(3.67419 2.62128 2.56467)
(3.9459 2.79485 2.75869)
(4.12954 2.93396 2.9231)
(4.28357 3.07299 3.07478)
(4.47459 3.23439 3.21604)
(4.67362 3.39387 3.33424)
(4.82453 3.52688 3.43169)
(4.93444 3.63384 3.52282)
(5.0495 3.71846 3.60882)
(5.18099 3.77742 3.68063)
(5.29799 3.80774 3.72829)
(5.39643 3.81806 3.76862)
(5.47707 3.80901 3.81341)
(5.59685 3.8144 3.8883)
(5.81297 3.8604 3.99311)
(6.04622 3.91354 4.07265)
(6.13125 3.9307 4.07986)
(5.99366 3.89932 4.00197)
(5.75714 3.8367 3.86056)
(5.59843 3.77211 3.71395)
(5.48445 3.6802 3.57469)
(5.30295 3.53742 3.42517)
(5.02733 3.35527 3.26734)
(4.7259 3.17936 3.13241)
(4.484 3.05141 3.03445)
(4.3352 2.98063 2.96318)
(4.24416 2.94524 2.89829)
(4.19526 2.93489 2.84799)
(4.20474 2.9537 2.83151)
(4.24347 2.98731 2.832)
(4.29462 3.02502 2.83538)
(4.34854 3.05825 2.82819)
(4.33784 3.05002 2.77521)
(4.20755 2.96633 2.65372)
(3.94012 2.79807 2.45728)
(3.56689 2.56229 2.21296)
(3.13267 2.28823 1.94788)
(2.69899 2.01846 1.69305)
(2.31378 1.78157 1.4622)
(1.99231 1.57353 1.27086)
(1.70898 1.37184 1.10384)
(1.50484 1.20939 1.00962)
(1.41648 1.09058 1.00029)
(1.58562 1.07395 1.11565)
(1.57683 0.970548 1.00627)
(1.22541 0.734553 0.744423)
(0.925637 0.562238 0.539018)
(0.682493 0.430383 0.411329)
(0.489101 0.358749 0.32534)
(0.863261 0.558113 0.568505)
(1.35116 0.936297 0.929437)
(1.76274 1.24443 1.22324)
(2.02539 1.43219 1.42329)
(2.44291 1.73224 1.71502)
(2.68719 1.90852 1.89)
(2.89924 2.06214 2.03395)
(3.06635 2.18627 2.14602)
(3.19944 2.2895 2.2354)
(3.32586 2.38394 2.31407)
(3.47047 2.47856 2.3879)
(3.65993 2.58288 2.47057)
(3.85718 2.68343 2.56217)
(3.96269 2.74071 2.64233)
(3.91015 2.74011 2.70267)
(3.80218 2.7413 2.76944)
(3.77662 2.78755 2.84847)
(3.80455 2.83568 2.89587)
(3.83033 2.85673 2.89282)
(3.86914 2.87177 2.86026)
(3.95218 2.90887 2.83545)
(4.07606 2.96862 2.84416)
(4.20991 3.0264 2.87855)
(4.34288 3.06799 2.93664)
(4.44557 3.07839 3.01381)
(4.5134 3.07222 3.1084)
(4.57841 3.08664 3.21389)
(4.65448 3.13724 3.31212)
(4.69961 3.18908 3.36315)
(4.70593 3.2162 3.35284)
(4.72895 3.23391 3.30496)
(4.79894 3.26361 3.25867)
(4.89479 3.30003 3.22434)
(4.9381 3.30636 3.18257)
(4.83857 3.23854 3.10471)
(4.62849 3.11811 3.00888)
(4.43147 3.01501 2.93815)
(4.29989 2.95764 2.89281)
(4.20348 2.92156 2.84665)
(4.12644 2.88877 2.7968)
(4.07116 2.86277 2.75464)
(4.02642 2.84222 2.71921)
(3.99353 2.82717 2.6839)
(3.96993 2.81635 2.64008)
(3.93394 2.79672 2.57336)
(3.85818 2.75281 2.47296)
(3.71836 2.67291 2.33397)
(3.48864 2.54449 2.15334)
(3.17532 2.3714 1.93755)
(2.80666 2.16452 1.6962)
(2.42429 1.94475 1.45479)
(2.02881 1.69897 1.22279)
(1.70406 1.4767 1.04659)
(1.46567 1.28354 0.927447)
(1.36531 1.1257 0.913154)
(1.30881 0.947123 0.849418)
(1.08625 0.703695 0.659306)
(0.887785 0.541952 0.516699)
(0.656465 0.409104 0.39789)
(0.415557 0.309924 0.290333)
(0.734292 0.45327 0.48547)
(1.23655 0.855302 0.863188)
(1.53277 1.08932 1.06843)
(1.70566 1.22448 1.21482)
(1.8612 1.34473 1.32761)
(1.97484 1.43758 1.41705)
(2.06738 1.5142 1.48872)
(2.16108 1.58818 1.55314)
(2.25134 1.65865 1.60928)
(2.34282 1.72689 1.66146)
(2.4461 1.79313 1.71209)
(2.58013 1.86196 1.76771)
(2.76313 1.95226 1.84804)
(2.95227 2.05488 1.94412)
(3.04106 2.1224 2.01861)
(2.98064 2.13145 2.07031)
(2.86676 2.11797 2.12201)
(2.80765 2.11724 2.16833)
(2.83391 2.13937 2.19359)
(2.91904 2.17931 2.19959)
(3.03218 2.23254 2.20211)
(3.15416 2.29364 2.22119)
(3.27894 2.35064 2.26081)
(3.41015 2.39993 2.32413)
(3.5375 2.43687 2.41087)
(3.6312 2.45674 2.51381)
(3.67709 2.46386 2.61737)
(3.69765 2.47776 2.70479)
(3.71158 2.50325 2.75458)
(3.73614 2.53655 2.76385)
(3.80575 2.59447 2.76373)
(3.91614 2.67382 2.77569)
(4.04133 2.7572 2.80017)
(4.15005 2.82404 2.81768)
(4.22186 2.86204 2.81393)
(4.23527 2.8642 2.78716)
(4.13666 2.80986 2.72934)
(3.9402 2.71234 2.64922)
(3.73441 2.61329 2.56694)
(3.5717 2.53184 2.4931)
(3.46041 2.47126 2.4308)
(3.39148 2.4296 2.38182)
(3.35064 2.39969 2.34522)
(3.33373 2.37838 2.31575)
(3.33581 2.36601 2.28836)
(3.32609 2.35005 2.24732)
(3.2792 2.32087 2.18026)
(3.17475 2.26843 2.07849)
(3.00377 2.18798 1.94015)
(2.76109 2.07414 1.76346)
(2.46319 1.92939 1.56089)
(2.13162 1.75006 1.34588)
(1.79597 1.54833 1.14041)
(1.506 1.33979 0.962671)
(1.32508 1.14434 0.857858)
(1.17 0.90403 0.742815)
(0.937934 0.645838 0.58205)
(0.7867 0.495922 0.464467)
(0.626778 0.394122 0.382802)
(0.331741 0.242153 0.248052)
(0.547418 0.327761 0.390658)
(1.29366 0.92004 0.935365)
(1.69161 1.1949 1.17037)
(1.87192 1.33643 1.29211)
(2.05341 1.47002 1.40735)
(2.21114 1.58826 1.50848)
(2.3349 1.68681 1.59056)
(2.41332 1.76222 1.64891)
(2.44423 1.81194 1.68343)
(2.45666 1.84317 1.71168)
(2.50964 1.87975 1.75573)
(2.64124 1.9403 1.82082)
(2.84439 2.02986 1.90763)
(3.03252 2.11244 1.98905)
(3.10703 2.14865 2.03589)
(2.99149 2.11715 2.0452)
(2.79433 2.0693 2.0628)
(2.68455 2.04789 2.09471)
(2.67485 2.04755 2.12773)
(2.70591 2.05092 2.14772)
(2.73865 2.0557 2.13899)
(2.79544 2.08508 2.1206)
(2.91371 2.15124 2.13356)
(3.08652 2.23139 2.19476)
(3.25141 2.2849 2.27267)
(3.39911 2.31158 2.35111)
(3.54172 2.33519 2.44031)
(3.64555 2.36405 2.53135)
(3.69852 2.40008 2.61192)
(3.74779 2.46019 2.68992)
(3.81185 2.53843 2.73696)
(3.90491 2.62611 2.7609)
(4.02155 2.71618 2.79353)
(4.1471 2.79911 2.83703)
(4.27117 2.86787 2.87634)
(4.36825 2.914 2.8947)
(4.36326 2.91634 2.87832)
(4.21382 2.86266 2.81952)
(4.00557 2.78292 2.73392)
(3.82077 2.70091 2.6477)
(3.68114 2.62857 2.57343)
(3.6 2.57957 2.52262)
(3.56951 2.55348 2.49768)
(3.57034 2.53937 2.48716)
(3.58671 2.53013 2.47811)
(3.59492 2.51876 2.45824)
(3.57678 2.50118 2.42091)
(3.50581 2.46433 2.3501)
(3.36144 2.39531 2.23273)
(3.12777 2.28226 2.06077)
(2.82127 2.13468 1.84891)
(2.45384 1.95022 1.59915)
(2.03196 1.7067 1.32203)
(1.68162 1.46222 1.09014)
(1.52415 1.26119 0.974006)
(1.39 1.00946 0.862344)
(1.12009 0.759363 0.676176)
(0.905857 0.579668 0.536053)
(0.669653 0.429837 0.41081)
(0.385196 0.246872 0.32966)
(0.609473 0.424391 0.508201)
(0.941839 0.692324 0.677874)
(1.20955 0.888499 0.838996)
(1.42992 1.06206 0.977028)
(1.78954 1.32232 1.19892)
(2.0503 1.52105 1.36238)
(2.23091 1.66956 1.48012)
(2.35215 1.78622 1.57042)
(2.47553 1.89899 1.66431)
(2.62279 2.01078 1.76905)
(2.80773 2.12416 1.8897)
(3.02173 2.23461 2.02612)
(3.22378 2.32727 2.15649)
(3.31177 2.3605 2.22621)
(3.21051 2.31267 2.20635)
(2.98873 2.22273 2.13544)
(2.81022 2.13675 2.08381)
(2.73983 2.08903 2.08524)
(2.73284 2.07851 2.12413)
(2.75421 2.09139 2.17963)
(2.77712 2.11121 2.22303)
(2.81846 2.15356 2.25138)
(2.91748 2.21209 2.2789)
(3.02274 2.2305 2.27244)
(3.13804 2.24811 2.27106)
(3.30584 2.29184 2.3085)
(3.51719 2.3547 2.3758)
(3.77011 2.43443 2.47847)
(4.02598 2.52966 2.60919)
(4.11437 2.59756 2.68802)
(4.10876 2.66651 2.74574)
(4.20162 2.77927 2.83592)
(4.34395 2.89067 2.92776)
(4.4859 2.98108 3.01099)
(4.60077 3.04407 3.07801)
(4.63396 3.06057 3.10624)
(4.54897 3.02772 3.07334)
(4.36883 2.96207 2.97798)
(4.17979 2.89429 2.86433)
(4.0238 2.8238 2.75534)
(3.91373 2.76058 2.67135)
(3.86287 2.72625 2.6265)
(3.86026 2.71564 2.61552)
(3.88472 2.71682 2.62594)
(3.91545 2.72065 2.64107)
(3.92877 2.71726 2.64218)
(3.89851 2.69618 2.60696)
(3.80036 2.64393 2.51836)
(3.61277 2.55192 2.36917)
(3.32173 2.40634 2.1538)
(2.94628 2.21174 1.88441)
(2.42659 1.91805 1.53665)
(1.8545 1.55869 1.16809)
(1.48481 1.29576 0.926496)
(1.45686 1.19442 0.885992)
(1.70069 1.11853 0.981349)
(1.45485 0.90893 0.834953)
(1.04593 0.66293 0.611454)
(0.747726 0.483928 0.454823)
(0.398941 0.260085 0.333757)
(0.622331 0.430057 0.495371)
(0.88093 0.656518 0.6289)
(1.08237 0.809461 0.751705)
(1.23949 0.939291 0.854862)
(1.5146 1.14081 1.02587)
(1.75621 1.33185 1.18256)
(1.96843 1.50337 1.32401)
(2.1341 1.65016 1.44068)
(2.28505 1.78286 1.54965)
(2.45274 1.91316 1.67121)
(2.66409 2.05092 1.8227)
(2.90639 2.18892 2.00079)
(3.10492 2.29208 2.15797)
(3.15831 2.3212 2.22802)
(3.05245 2.27956 2.1994)
(2.88769 2.19951 2.10717)
(2.75909 2.10907 2.00852)
(2.69449 2.05186 1.96388)
(2.67193 2.03573 1.98258)
(2.66102 2.03699 2.04032)
(2.63462 2.03122 2.09176)
(2.60515 2.03351 2.123)
(2.61912 2.05084 2.15709)
(2.66544 2.03768 2.15641)
(2.72523 2.01145 2.0961)
(2.866 2.03956 2.07832)
(3.08261 2.11654 2.12765)
(3.38073 2.23887 2.23651)
(3.76334 2.41285 2.40377)
(4.14405 2.62215 2.59774)
(4.3271 2.78649 2.74936)
(4.38466 2.88356 2.8716)
(4.46452 2.96281 2.97128)
(4.55804 3.02719 3.05048)
(4.64585 3.07418 3.11519)
(4.68048 3.08572 3.14315)
(4.62489 3.05965 3.1104)
(4.46394 3.00219 3.01387)
(4.25674 2.92897 2.89262)
(4.07945 2.85257 2.78039)
(3.95199 2.78291 2.69404)
(3.88854 2.74485 2.64765)
(3.87688 2.73201 2.63379)
(3.89565 2.72983 2.64205)
(3.93074 2.73405 2.6609)
(3.96206 2.74088 2.67207)
(3.96332 2.74095 2.64896)
(3.87416 2.69926 2.55433)
(3.5716 2.54204 2.3361)
(3.10428 2.28123 2.02198)
(2.56946 1.96267 1.65771)
(1.98658 1.58967 1.264)
(1.45083 1.24418 0.925282)
(1.24032 1.12353 0.795334)
(1.36671 1.16624 0.858474)
(1.65826 1.13326 0.98052)
(1.45119 0.925385 0.845959)
(1.08548 0.679743 0.633939)
(0.758572 0.488453 0.459644)
(0.35557 0.262049 0.27449)
(0.617428 0.380223 0.437881)
(1.41809 0.986934 0.995622)
(1.88654 1.32977 1.25782)
(1.82497 1.31688 1.21826)
(1.86442 1.35896 1.24984)
(1.9366 1.43158 1.31204)
(2.0446 1.53158 1.40018)
(2.15418 1.63647 1.4883)
(2.24592 1.72856 1.56745)
(2.31865 1.79993 1.64024)
(2.3924 1.85792 1.71793)
(2.46242 1.9016 1.7982)
(2.50958 1.92198 1.86363)
(2.50112 1.90044 1.87735)
(2.4359 1.85596 1.83756)
(2.38746 1.84073 1.7857)
(2.4332 1.8904 1.77307)
(2.56046 1.99183 1.81516)
(2.69238 2.09102 1.89448)
(2.78465 2.14519 1.98619)
(2.81852 2.15182 2.05866)
(2.79629 2.14206 2.09116)
(2.74076 2.11666 2.08704)
(2.67456 2.0669 2.06916)
(2.59952 1.97777 2.0245)
(2.57698 1.9076 1.96644)
(2.67893 1.9095 1.95265)
(2.89989 1.98646 2.0008)
(3.22935 2.13481 2.11867)
(3.64719 2.35461 2.30709)
(4.02047 2.60179 2.51276)
(4.20621 2.77592 2.68227)
(4.29594 2.87298 2.81937)
(4.37538 2.93797 2.91815)
(4.45425 2.98249 2.97608)
(4.52917 3.01259 2.99615)
(4.57783 3.03326 2.98738)
(4.50804 3.01665 2.9362)
(4.29982 2.94345 2.83759)
(4.06277 2.84423 2.73018)
(3.86397 2.74517 2.63728)
(3.71671 2.66407 2.56718)
(3.63159 2.61225 2.52159)
(3.59156 2.5793 2.48696)
(3.57265 2.55268 2.45305)
(3.55449 2.5283 2.41012)
(3.51246 2.49713 2.33877)
(3.41995 2.44495 2.23251)
(3.22734 2.34267 2.07931)
(2.91412 2.17134 1.87136)
(2.52251 1.94549 1.62196)
(2.0869 1.66785 1.33905)
(1.63295 1.36029 1.04995)
(1.29699 1.12223 0.844192)
(1.21645 1.01171 0.799142)
(1.20478 0.876802 0.788288)
(1.06963 0.746427 0.686834)
(0.996478 0.626139 0.597592)
(0.701567 0.453864 0.43215)
(0.378487 0.293949 0.282055)
(0.556083 0.345469 0.379761)
(0.931744 0.627692 0.664331)
(1.4362 1.00167 1.00949)
(1.56646 1.1266 1.12043)
(1.68116 1.22554 1.21227)
(1.74747 1.29661 1.28342)
(1.79241 1.35541 1.34368)
(1.82229 1.40495 1.39351)
(1.83784 1.44184 1.4299)
(1.83971 1.45667 1.44783)
(1.83195 1.44444 1.44848)
(1.81008 1.40696 1.4335)
(1.78859 1.3756 1.41992)
(1.84314 1.4153 1.45672)
(2.00162 1.53734 1.55547)
(2.27835 1.73931 1.72859)
(2.63503 1.98569 1.95027)
(3.00911 2.23287 2.17758)
(3.35707 2.47349 2.40128)
(3.59508 2.66035 2.58217)
(3.69289 2.752 2.68578)
(3.68518 2.75943 2.72776)
(3.6072 2.7156 2.71321)
(3.49893 2.6607 2.67002)
(3.37269 2.59596 2.61955)
(3.23169 2.48281 2.51549)
(3.12013 2.34652 2.36273)
(3.0946 2.24156 2.22303)
(3.21548 2.22915 2.16894)
(3.48732 2.32632 2.22667)
(3.87866 2.53117 2.39643)
(4.23076 2.77152 2.61751)
(4.43375 2.94745 2.82194)
(4.54924 3.04109 2.95363)
(4.65719 3.10555 3.02985)
(4.73408 3.14339 3.05612)
(4.69763 3.12445 3.01579)
(4.52028 3.0437 2.91694)
(4.28765 2.94482 2.80344)
(4.06841 2.84584 2.69175)
(3.88905 2.75185 2.59099)
(3.76025 2.6734 2.50943)
(3.67748 2.61486 2.44384)
(3.6126 2.56519 2.38161)
(3.53624 2.51206 2.30829)
(3.3968 2.43513 2.19699)
(3.18296 2.32179 2.04421)
(2.936 2.1874 1.87905)
(2.65828 2.03092 1.70114)
(2.34264 1.84679 1.50525)
(2.02816 1.64886 1.30892)
(1.73724 1.44704 1.11707)
(1.46828 1.2417 0.937158)
(1.25026 1.05756 0.799947)
(1.20255 0.939131 0.78003)
(1.2066 0.831555 0.77826)
(1.06572 0.703796 0.680694)
(0.961352 0.59489 0.570923)
(0.70092 0.448584 0.428188)
(0.436764 0.336596 0.295021)
(0.682156 0.459895 0.459492)
(1.07512 0.738583 0.755575)
(1.48779 1.03803 1.06469)
(1.82479 1.28826 1.33809)
(2.08899 1.48019 1.54049)
(2.29337 1.6354 1.70947)
(2.47634 1.78077 1.86319)
(2.6523 1.92642 2.01647)
(2.81877 2.06406 2.15813)
(2.97005 2.18413 2.28054)
(3.10777 2.28017 2.37638)
(3.24819 2.35559 2.44409)
(3.42655 2.4406 2.50618)
(3.71714 2.6004 2.63594)
(4.12502 2.85622 2.85839)
(4.56377 3.16024 3.11529)
(4.94246 3.43691 3.33431)
(5.19724 3.61477 3.49686)
(5.24754 3.63851 3.58778)
(5.14487 3.60761 3.61914)
(5.03134 3.62545 3.6387)
(4.9512 3.64698 3.65564)
(4.88872 3.61839 3.64027)
(4.8254 3.56036 3.57985)
(4.74103 3.50326 3.47621)
(4.61499 3.4161 3.3287)
(4.42295 3.25259 3.12479)
(4.27671 3.08372 2.93332)
(4.31147 3.00956 2.8372)
(4.52286 3.04754 2.84559)
(4.81846 3.17305 2.95464)
(4.98506 3.27533 3.08194)
(5.00807 3.31633 3.16378)
(4.98961 3.31995 3.18839)
(4.95808 3.29843 3.16791)
(4.88999 3.24912 3.11744)
(4.75164 3.16955 3.04296)
(4.53948 3.06664 2.93825)
(4.28933 2.94884 2.80047)
(4.06944 2.83646 2.66672)
(3.92246 2.75149 2.56221)
(3.82798 2.6893 2.47983)
(3.72912 2.62178 2.38906)
(3.59411 2.53674 2.27848)
(3.39067 2.41751 2.13273)
(3.12742 2.26891 1.95868)
(2.85005 2.11445 1.78573)
(2.58916 1.96612 1.62839)
(2.32517 1.81225 1.4718)
(2.06807 1.65782 1.31243)
(1.82213 1.50152 1.15706)
(1.58166 1.32734 1.00027)
(1.38476 1.16232 0.871043)
(1.25903 1.02445 0.798109)
(1.23075 0.913972 0.79639)
(1.22744 0.820114 0.775615)
(1.09025 0.71137 0.668823)
(0.949388 0.596866 0.561353)
(0.700967 0.451822 0.427603)
(0.352684 0.256521 0.27039)
(0.42518 0.338266 0.333568)
(0.615826 0.492574 0.462963)
(0.856307 0.676456 0.642688)
(1.10788 0.864819 0.821333)
(1.38209 1.06528 1.01749)
(1.6642 1.27104 1.21857)
(1.981 1.50158 1.44119)
(2.36768 1.78155 1.7158)
(2.80339 2.08726 2.01739)
(3.23684 2.38075 2.31085)
(3.71984 2.69425 2.62061)
(4.27867 3.03353 2.95334)
(4.89153 3.37853 3.28594)
(5.38592 3.63682 3.5285)
(5.57937 3.72915 3.61225)
(5.43551 3.67078 3.55959)
(5.13917 3.54621 3.47167)
(4.97706 3.49638 3.4757)
(4.97946 3.55424 3.54627)
(5.12257 3.70049 3.6519)
(5.34651 3.87899 3.78939)
(5.56228 4.03755 3.91763)
(5.71845 4.15333 4.00469)
(5.80924 4.22839 4.0332)
(5.83254 4.26154 3.9999)
(5.82203 4.25209 3.93787)
(5.86513 4.22923 3.89898)
(5.97322 4.20165 3.86643)
(6.09748 4.15294 3.82516)
(6.14895 4.06158 3.78879)
(5.97306 3.88157 3.72629)
(5.68786 3.69622 3.65467)
(5.48538 3.58055 3.57778)
(5.31643 3.47866 3.47803)
(5.1163 3.35603 3.3588)
(4.88811 3.23056 3.23402)
(4.61708 3.10067 3.08795)
(4.30949 2.95628 2.91258)
(4.04155 2.82178 2.74739)
(3.87058 2.7307 2.63294)
(3.77553 2.67644 2.55329)
(3.72827 2.64161 2.48795)
(3.68031 2.60369 2.41323)
(3.58779 2.54187 2.31056)
(3.40535 2.43016 2.17107)
(3.13393 2.26268 1.99741)
(2.83494 2.07317 1.81961)
(2.5436 1.88075 1.65526)
(2.24515 1.6899 1.48751)
(1.9654 1.51091 1.32318)
(1.7169 1.34501 1.17569)
(1.49069 1.18253 1.0394)
(1.33244 1.04406 0.936018)
(1.25501 0.926336 0.888738)
(1.31088 0.852702 0.914747)
(1.36464 0.823754 0.889237)
(1.11102 0.691472 0.685437)
(0.901986 0.582896 0.535117)
(0.696912 0.459646 0.42394)
(0.215975 0.128613 0.138862)
(0.185546 0.145791 0.14192)
(0.257975 0.206675 0.197093)
(0.351074 0.279609 0.267405)
(0.461993 0.362794 0.348213)
(0.599417 0.464126 0.44724)
(0.7645 0.58386 0.563701)
(0.967238 0.728574 0.703872)
(1.21756 0.90345 0.874552)
(1.5166 1.10737 1.07435)
(1.87529 1.34818 1.30882)
(2.30376 1.63401 1.58166)
(2.78049 1.95127 1.88168)
(3.2225 2.24618 2.16329)
(3.49284 2.43579 2.35315)
(3.54215 2.49469 2.42682)
(3.43406 2.46476 2.4234)
(3.43675 2.48973 2.47212)
(3.62145 2.62851 2.59783)
(3.87755 2.82669 2.73639)
(4.18906 3.07136 2.90352)
(4.53868 3.34171 3.10391)
(4.86826 3.58954 3.29241)
(5.1557 3.79433 3.45415)
(5.44705 3.98675 3.62204)
(5.73157 4.15401 3.78491)
(5.98179 4.26212 3.89882)
(6.17243 4.29205 3.95292)
(6.21427 4.20304 3.927)
(6.09347 4.01059 3.84403)
(5.86695 3.78377 3.76731)
(5.59003 3.57969 3.70162)
(5.33655 3.42802 3.59607)
(5.07031 3.27938 3.41498)
(4.77799 3.11683 3.21878)
(4.48414 2.95866 3.04166)
(4.19573 2.81097 2.87431)
(3.91281 2.6625 2.70012)
(3.67652 2.52498 2.53977)
(3.52445 2.42182 2.42381)
(3.41722 2.34712 2.33662)
(3.32944 2.28573 2.25685)
(3.2705 2.23927 2.19096)
(3.2146 2.19751 2.12935)
(3.15821 2.15589 2.07508)
(2.99035 2.04591 1.97178)
(2.72763 1.87231 1.82481)
(2.48028 1.70696 1.70473)
(2.22693 1.54643 1.59659)
(1.92212 1.36464 1.45125)
(1.68522 1.22249 1.34408)
(1.51255 1.11231 1.2695)
(1.36171 1.00692 1.18401)
(1.29623 0.942816 1.12104)
(1.28914 0.890792 1.09186)
(1.50023 0.997821 1.22051)
(1.52614 0.95136 1.11499)
(1.0875 0.714074 0.720436)
(0.839726 0.576935 0.518791)
(0.685175 0.461236 0.422305)
(0.178539 0.0866553 0.10201)
(0.0861615 0.0637543 0.0628852)
(0.0991585 0.0797819 0.0755588)
(0.123973 0.101332 0.0953323)
(0.156159 0.127125 0.119465)
(0.196751 0.158657 0.149071)
(0.24691 0.196713 0.18493)
(0.31025 0.24379 0.229676)
(0.392078 0.303428 0.286923)
(0.496846 0.378558 0.359412)