/*--------------------------------*- C++ -*----------------------------------*\
| =========                 |                                                 |
| \\      /  F ield         | OpenFOAM: The Open Source CFD Toolbox           |
|  \\    /   O peration     | Version:  2.1.1                                 |
|   \\  /    A nd           | Web:      www.OpenFOAM.org                      |
|    \\/     M anipulation  |                                                 |
\*---------------------------------------------------------------------------*/
FoamFile
{
    version     2.0;
    format      ascii;
    class       volVectorField;
    location    "0.0015";
    object      fluctuation1;
}
// * * * * * * * * * * * * * * * * * * * * * * * * * * * * * * * * * * * * * //

dimensions      [0 1 -1 0 0 0 0];

internalField   nonuniform List<vector> 
36520
(
(-5.60031e-05 3.12525e-05 4.60868e-05)
(-7.02143e-05 1.85788e-05 8.07939e-05)
(2.42423e-06 3.81237e-05 0.000109122)
(4.72012e-06 5.43429e-05 0.000133818)
(6.38643e-06 7.31051e-05 0.000159569)
(6.99273e-06 9.18014e-05 0.000181513)
(8.0038e-06 0.000111092 0.00020841)
(9.62125e-06 0.000132894 0.000241147)
(1.247e-05 0.000158662 0.000284299)
(1.72562e-05 0.000191314 0.000342972)
(2.44306e-05 0.000234834 0.000422083)
(3.50816e-05 0.000293404 0.000527055)
(5.03765e-05 0.000374557 0.00066302)
(7.1246e-05 0.00048531 0.000829431)
(9.80473e-05 0.00063415 0.0010223)
(0.000130609 0.000825793 0.00122692)
(0.000168214 0.00106593 0.00142899)
(0.000208699 0.00135618 0.00161249)
(0.000247862 0.00169313 0.00176407)
(0.000280213 0.00205859 0.00186986)
(0.000300441 0.00242685 0.00191942)
(0.000305536 0.00277167 0.00190216)
(0.000295835 0.00307186 0.00181552)
(0.000274989 0.00330893 0.00165764)
(0.000246133 0.00346223 0.00144276)
(0.000216054 0.0035148 0.00119279)
(0.000170921 0.00347695 0.000859995)
(0.00011564 0.00339278 0.000472158)
(9.24666e-05 0.00328253 8.00027e-05)
(0.000108527 0.00322573 -0.000220098)
(0.000134259 0.00329064 -0.000341157)
(0.00014045 0.00345839 -0.000517425)
(0.000106732 0.00366837 -0.000720725)
(2.6424e-05 0.00380505 -0.000868158)
(-9.70553e-05 0.00376035 -0.000947581)
(-0.000246404 0.00346427 -0.000966444)
(-0.000377179 0.00293443 -0.000967154)
(-0.000455966 0.00222143 -0.00100135)
(-0.000472038 0.0013982 -0.00129225)
(-0.000414922 -0.000100363 -0.00835941)
(-0.000300106 -0.00248952 -0.0249459)
(-0.000174971 -0.00423553 -0.0353073)
(-5.90991e-05 -0.00589681 -0.0320012)
(-0.000383141 -0.00632773 -0.00766882)
(-0.00297812 -0.0292894 -8.79694e-05)
(-0.0191442 -0.158877 0.00236408)
(-0.0561852 -0.389594 0.0130823)
(-0.094038 -0.548544 0.0265008)
(-0.108539 -0.633086 0.0111597)
(-0.0898458 -1.02144 -0.193988)
(0.0152186 0.176566 -1.08902)
(-0.267953 1.63052 -0.535574)
(-1.86616 1.1089 -0.0259585)
(-2.28528 0.625384 0.16365)
(-2.15402 0.295471 0.77592)
(-1.06592 -0.603836 1.43431)
(-0.313634 -0.95029 1.2316)
(-0.316335 -0.648125 1.16165)
(-0.187215 -0.159594 0.708714)
(-0.337266 -0.377853 -0.215839)
(-3.42747e-05 8.62421e-05 8.52458e-05)
(-4.12215e-05 0.000136471 0.00014027)
(4.53169e-06 0.000157719 0.000146625)
(1.27592e-05 0.000178663 0.000143624)
(1.42466e-05 0.000201819 0.000139968)
(1.56973e-05 0.000223378 0.000133015)
(2.04442e-05 0.000251178 0.000129787)
(2.69792e-05 0.000286141 0.000129184)
(3.72898e-05 0.000333091 0.000135494)
(5.1568e-05 0.000394793 0.000148826)
(7.00086e-05 0.000477744 0.000168945)
(9.28896e-05 0.000585885 0.00019204)
(0.000118717 0.000727933 0.000212694)
(0.000144804 0.000905155 0.000219857)
(0.000167291 0.00112212 0.000203809)
(0.000183048 0.00136815 0.000156173)
(0.000192012 0.00163721 8.33916e-05)
(0.00019301 0.00190807 -3.40554e-06)
(0.000184792 0.00215673 -9.88e-05)
(0.000165391 0.00234926 -0.00021959)
(0.000134503 0.00247816 -0.000360524)
(9.51337e-05 0.00256334 -0.000516876)
(5.19515e-05 0.00263998 -0.000648192)
(1.24101e-05 0.00271212 -0.000700701)
(-1.68358e-05 0.00272232 -0.000734114)
(-5.28645e-05 0.00263501 -0.00094504)
(-0.000108515 0.00255236 -0.00127895)
(-0.000153417 0.0024581 -0.00151222)
(-0.00013344 0.00198093 -0.001921)
(-5.98104e-05 0.00144911 -0.00214798)
(-2.92423e-05 0.00130459 -0.00164525)
(-4.55275e-05 0.00128361 -0.0010309)
(-5.06792e-05 0.00118758 -0.000746041)
(-4.91452e-05 0.00104534 -0.000635317)
(-5.6946e-05 0.000882831 -0.00058257)
(-8.1345e-05 0.000701532 -0.000539761)
(-0.000121381 0.00046047 -0.000686562)
(-0.000210574 7.63385e-05 -0.0014889)
(-0.00189172 -0.000288566 -0.00320461)
(-0.00624006 0.00134983 -0.00518354)
(-0.00772707 0.0030671 -0.00649154)
(-0.00175204 0.00187148 -0.00763793)
(0.00768838 -0.0134858 -0.0643816)
(0.00288723 -0.044441 -0.192485)
(0.00038764 -0.059224 -0.249078)
(-0.000256735 -0.0786026 -0.285585)
(-0.0141495 -0.161918 -0.198196)
(-0.0693481 -0.324217 -0.0875527)
(-0.214211 -0.509466 -0.161176)
(-0.774127 -0.396817 -0.451558)
(-1.06526 -0.211579 -0.580534)
(-0.492425 0.299755 -1.14032)
(-0.0577015 0.282806 -1.74141)
(0.0174622 0.403912 2.11149)
(0.000800903 0.217306 2.05731)
(-0.00199546 0.190444 1.73345)
(-0.0092206 0.164074 1.50839)
(-0.271101 0.141937 1.44038)
(-0.484106 0.0276554 0.551211)
(-0.64859 0.0425942 -0.014878)
(-2.00502e-05 0.00014732 4.70563e-05)
(-2.42331e-05 0.000156417 4.43788e-05)
(-7.43256e-06 0.000173638 3.30585e-05)
(-2.87823e-06 0.000178642 1.39826e-05)
(-3.12913e-06 0.000186248 -6.23879e-06)
(-2.69532e-06 0.000194043 -2.96724e-05)
(-2.41471e-07 0.000210118 -6.02996e-05)
(3.58886e-06 0.00023145 -8.55994e-05)
(9.20841e-06 0.000265947 -9.86993e-05)
(1.52928e-05 0.000306652 -0.000115826)
(2.06787e-05 0.00035849 -0.000139081)
(2.38223e-05 0.000423403 -0.000169712)
(2.28637e-05 0.000509171 -0.000211422)
(1.63398e-05 0.000620665 -0.000266894)
(4.49296e-06 0.000767825 -0.00034523)
(-8.52466e-06 0.000948648 -0.000458229)
(-1.64069e-05 0.00116298 -0.000598307)
(-1.894e-05 0.00136672 -0.000822165)
(-3.0507e-05 0.00138488 -0.00163508)
(-5.89229e-05 0.000925888 -0.00418488)
(-9.98251e-05 -0.000608532 -0.010572)
(-0.00012668 -0.00420475 -0.0251234)
(-7.43119e-05 -0.0117824 -0.0554826)
(-1.04723e-05 -0.0251312 -0.107733)
(-0.000182564 -0.0455052 -0.184691)
(-0.00041518 -0.0683919 -0.270333)
(-0.000453317 -0.0849943 -0.33279)
(-0.000795231 -0.0860304 -0.336632)
(-0.000924348 -0.0778173 -0.299892)
(-0.000152963 -0.0600261 -0.227439)
(0.000222191 -0.0387988 -0.148698)
(0.000168016 -0.0243135 -0.0957756)
(6.7278e-05 -0.0168445 -0.0675724)
(2.29415e-05 -0.0121912 -0.0497334)
(5.55888e-06 -0.00894932 -0.0372592)
(-4.49361e-05 -0.00652026 -0.0281046)
(-0.000251368 -0.00471899 -0.0217454)
(-0.00067315 -0.00350748 -0.0183533)
(-0.00102398 -0.00276207 -0.0182009)
(-0.000885456 -0.00261226 -0.0198888)
(-0.000485314 -0.00339183 -0.0224621)
(-0.0248247 -0.00573636 -0.0248203)
(-0.134062 0.00156393 -0.0228063)
(-0.174415 0.0102419 -0.0753183)
(-0.0580526 -0.018541 -0.179887)
(0.106105 -0.109293 -0.2072)
(0.137582 -0.189915 -0.230433)
(-0.00870435 -0.239855 -0.321929)
(-0.30319 -0.478182 -0.253303)
(-0.69364 -0.52612 -0.200846)
(-1.02763 -0.406736 -0.335272)
(-1.20712 -0.311449 -0.606124)
(-0.0452386 0.0603472 -1.4125)
(1.18548 0.761304 -1.00029)
(0.900177 1.40108 -0.232632)
(-1.0175 1.42014 -0.0315184)
(-1.50818 0.488657 0.352248)
(-2.01258 -0.0327471 -0.0535344)
(-1.02955 0.0522225 0.148013)
(-0.595338 0.121191 0.0932784)
(-2.13566e-05 0.000138402 -2.96909e-05)
(-2.22749e-05 0.000148403 -4.59716e-05)
(-1.12471e-05 0.000168635 -6.44648e-05)
(-9.90016e-06 0.0001808 -6.07124e-05)
(-1.14034e-05 0.000186979 -7.12786e-05)
(-1.44909e-05 0.000174651 -0.000141174)
(-1.40962e-05 0.000174127 -0.000248398)
(-6.02698e-06 0.000177786 -0.000412285)
(-2.35878e-08 0.0001853 -0.000696807)
(-3.15638e-08 0.000186321 -0.00123073)
(-4.41176e-08 0.000223218 -0.00206095)
(-6.38975e-08 0.000326441 -0.00340699)
(-9.70201e-08 0.000504438 -0.00573281)
(-2.46366e-06 0.000674974 -0.00993769)
(-1.61912e-05 0.00067317 -0.0172402)
(-2.41418e-05 -9.14704e-05 -0.0303605)
(-7.85402e-05 -0.00268353 -0.0535448)
(-0.000849353 -0.0100065 -0.09693)
(-0.00357405 -0.0288476 -0.183229)
(-0.00872952 -0.0720781 -0.352384)
(-0.0151632 -0.15141 -0.627253)
(-0.0210527 -0.250722 -0.944467)
(-0.0236133 -0.345867 -1.23381)
(-0.0223053 -0.427022 -1.46717)
(-0.01708 -0.488003 -1.63193)
(-0.00965973 -0.523538 -1.71389)
(-0.00443073 -0.528493 -1.70679)
(-0.00466722 -0.48855 -1.57119)
(-0.0108825 -0.392082 -1.28214)
(-0.0124266 -0.271963 -0.925584)
(-0.00159626 -0.184827 -0.629235)
(0.00352665 -0.134005 -0.459428)
(0.00361297 -0.106737 -0.372324)
(0.00318027 -0.0908646 -0.317558)
(0.00264602 -0.078124 -0.271541)
(0.00223492 -0.0650632 -0.224153)
(0.00177657 -0.0522804 -0.18008)
(0.00121456 -0.0397752 -0.14151)
(0.000427842 -0.0295983 -0.11328)
(-0.000259197 -0.0242202 -0.0996107)
(-0.000416273 -0.0216684 -0.0975634)
(-0.00174132 -0.0226705 -0.10544)
(-0.0168478 -0.0262603 -0.118525)
(-0.0740062 -0.0356135 -0.121331)
(-0.0954028 -0.136195 -0.0516691)
(-0.00432176 -0.221499 0.0140631)
(-0.000242984 -0.291591 0.00917921)
(-0.0113133 -0.38111 0.0304643)
(-0.0367435 -0.498494 0.0487944)
(-0.201846 -0.622128 0.060756)
(-0.652556 -0.57849 0.0489989)
(-0.714906 -0.848923 0.0810953)
(-0.157858 -0.513276 0.89878)
(1.17994 0.256218 -0.321194)
(1.12758 0.0784537 -0.623949)
(-0.45991 1.09703 -0.00897708)
(-1.0076 0.35727 0.0380254)
(-1.30816 -0.0908666 0.0585802)
(-0.914182 0.00926481 0.0108653)
(-0.623381 0.0079769 0.036063)
(-2.66424e-05 0.000209612 -8.84237e-05)
(-2.50136e-05 0.00023877 -9.76527e-05)
(-8.72807e-06 0.000267197 -0.000451036)
(-5.80078e-06 0.000181184 -0.00144725)
(-4.42681e-05 -0.00015171 -0.00374194)
(-0.000104326 -0.000807081 -0.00785657)
(-0.000173394 -0.00168901 -0.0138637)
(-0.000305616 -0.00291455 -0.0232272)
(-0.000589326 -0.00470323 -0.0380434)
(-0.000972791 -0.00791578 -0.0638177)
(-0.00139741 -0.0143247 -0.107988)
(-0.00202714 -0.0279025 -0.183678)
(-0.00303439 -0.0526722 -0.29884)
(-0.00422457 -0.0944322 -0.461241)
(-0.00617319 -0.140464 -0.640952)
(-0.00835774 -0.203935 -0.85184)
(-0.0125351 -0.259735 -1.05336)
(-0.0200467 -0.323368 -1.27084)
(-0.0336696 -0.397286 -1.51083)
(-0.05431 -0.483314 -1.77774)
(-0.075333 -0.576835 -2.06616)
(-0.0937367 -0.674561 -2.36712)
(-0.117045 -0.772077 -2.66573)
(-0.139948 -0.869322 -2.94505)
(-0.133284 -0.963018 -3.18328)
(-0.0908352 -1.09399 -3.3032)
(-0.0324767 -1.23142 -3.19403)
(0.0234521 -1.25356 -2.89283)
(0.0533119 -1.13302 -2.43508)
(0.0494657 -0.840719 -1.92953)
(-0.0194769 -0.535544 -1.49567)
(-0.0226979 -0.426613 -1.21046)
(0.00980793 -0.356224 -1.06941)
(0.0289241 -0.325554 -0.978595)
(0.0310858 -0.304795 -0.902343)
(0.02613 -0.267173 -0.821956)
(0.0207443 -0.235445 -0.739337)
(0.015473 -0.2093 -0.656319)
(0.0108346 -0.184056 -0.584356)
(0.0034022 -0.165861 -0.535475)
(-0.00163194 -0.147684 -0.48741)
(-0.00515896 -0.125976 -0.428084)
(-0.00358325 -0.103455 -0.355511)
(-0.000790672 -0.080632 -0.282074)
(0.00231968 -0.0784752 -0.269291)
(0.00503278 -0.0942426 -0.27397)
(0.00235251 -0.141233 -0.261089)
(-0.000670692 -0.250864 -0.166897)
(-0.0269176 -0.359098 -0.0237766)
(-0.195772 -0.420402 0.0870082)
(-0.479156 -0.336298 0.218704)
(-0.300981 -0.185758 0.632734)
(-0.0969119 -0.00472965 0.714582)
(0.0558766 -0.283399 -0.682939)
(0.239249 0.0867268 -0.819804)
(0.145064 0.952913 -0.0361777)
(-0.800327 0.393058 0.189793)
(-0.892457 0.0338087 0.0622023)
(-0.564537 -0.137954 -0.266147)
(-0.605698 -0.0568786 -0.0914163)
(-4.67112e-05 -0.00021555 -0.00214699)
(-0.000259412 -0.00166262 -0.00890387)
(-0.000859062 -0.00547777 -0.0266685)
(-0.00177175 -0.0116895 -0.0577663)
(-0.00284299 -0.0183945 -0.0957643)
(-0.0036656 -0.0256428 -0.143656)
(-0.00475894 -0.0318369 -0.200071)
(-0.00628318 -0.0442774 -0.281317)
(-0.00976907 -0.0605732 -0.385593)
(-0.0165064 -0.0821985 -0.520794)
(-0.0260236 -0.124247 -0.702122)
(-0.0327582 -0.206767 -0.931707)
(-0.0388208 -0.31578 -1.18365)
(-0.0408167 -0.420431 -1.44019)
(-0.0540877 -0.513115 -1.68199)
(-0.06497 -0.549488 -1.89761)
(-0.0769687 -0.579564 -2.07232)
(-0.112787 -0.721446 -2.20515)
(-0.182417 -0.92512 -2.33182)
(-0.280395 -1.02525 -2.5387)
(-0.369387 -1.08884 -2.81544)
(-0.437004 -1.22878 -3.09646)
(-0.615353 -1.54501 -3.3021)
(-1.01006 -2.19981 -3.20222)
(-1.14667 -3.19852 -2.53849)
(-0.59166 -4.05955 -1.49454)
(-0.140829 -4.32947 -0.908518)
(0.0661664 -4.23169 -0.673124)
(0.184677 -3.96287 -0.527061)
(0.247829 -3.52518 -0.401134)
(0.350088 -2.77995 -1.01231)
(-0.124721 -1.06866 -2.21312)
(-0.174102 -0.828189 -2.08217)
(-0.0933011 -0.741832 -1.98021)
(-0.0235086 -0.702713 -1.90031)
(-0.035027 -0.69002 -1.8145)
(-0.0130648 -0.714809 -1.72093)
(0.119109 -0.608615 -1.66919)
(0.102573 -0.528484 -1.6014)
(0.0324953 -0.509075 -1.54582)
(0.00767149 -0.496175 -1.49524)
(-0.0209691 -0.454743 -1.44186)
(-0.0393672 -0.360333 -1.37076)
(-0.00295868 -0.296474 -1.24241)
(0.0240142 -0.285418 -1.14275)
(0.0231381 -0.297386 -1.06332)
(0.0136676 -0.288404 -0.985923)
(0.00873639 -0.256434 -0.865651)
(0.00361202 -0.21223 -0.717786)
(-0.0257216 -0.172052 -0.583951)
(-0.195871 -0.195032 -0.517719)
(-0.622098 0.0176505 0.289545)
(-0.749334 -0.126759 -0.164397)
(-0.171887 -0.181947 -0.647486)
(0.451014 0.417806 -0.510502)
(1.1314 0.517637 -0.175492)
(-1.16756 0.024343 -0.00794088)
(-0.739798 -0.00041774 -0.00892138)
(-0.366306 -0.246449 -0.312808)
(-0.598915 -0.0765352 -0.110493)
(-0.0113548 0.000587309 -0.00435418)
(-0.0262819 0.00356664 -0.0356387)
(-0.0474589 0.0143621 -0.105259)
(-0.0621936 0.0373322 -0.187877)
(-0.0781693 0.0897223 -0.246785)
(-0.0892223 0.233485 -0.240665)
(-0.11623 0.404451 -0.188655)
(-0.161001 0.603727 -0.0345305)
(-0.215485 0.776355 -0.0379354)
(-0.424253 0.954627 -0.0461712)
(-0.989423 1.04822 -0.0643553)
(-1.67892 1.05601 -0.10975)
(-2.1806 1.17599 -0.191133)
(-2.38367 1.51225 -0.297865)
(-2.48832 1.83725 -0.384688)
(-0.106835 -2.89574 0.542211)
(-0.0214303 -3.14185 -0.0275245)
(-0.0202504 -3.27606 -0.352155)
(-0.0656029 -3.08752 -1.36391)
(-0.228837 -1.319 -3.13304)
(-0.319139 -1.07974 -3.42999)
(-0.280698 -1.09069 -3.66487)
(-0.222975 -1.23438 -3.83651)
(-0.280973 -1.71477 -3.81232)
(-0.477511 -3.35813 -2.53716)
(-0.315771 -4.27428 -0.0712428)
(-0.10982 -4.36687 0.585645)
(-0.0108934 -4.36276 0.638164)
(0.063585 -4.25721 0.573315)
(0.130593 -4.07092 0.490334)
(0.294302 -3.82618 0.302583)
(0.430705 -1.98876 -2.75726)
(-0.307504 0.0747467 -3.11715)
(-0.372395 0.0504487 -2.94601)
(-0.140726 -0.0830961 -2.82715)
(-0.0657016 -0.113824 -2.7292)
(-0.470946 -1.27939 -2.30861)
(-0.607107 -2.54303 -0.507371)
(-0.46199 -1.94682 -1.68737)
(-0.0632641 -0.857751 -2.39253)
(0.0431722 -0.522188 -2.46837)
(0.0656703 -0.480868 -2.45465)
(-0.054473 -0.506832 -2.43945)
(-0.229209 -0.515623 -2.36172)
(-0.0551434 -0.434488 -2.23161)
(0.0633178 -0.37963 -2.07376)
(0.0684265 -0.357966 -1.91085)
(0.0351358 -0.359351 -1.7333)
(0.0201672 -0.362162 -1.52331)
(0.0211275 -0.326964 -1.30588)
(0.00892425 -0.273637 -1.14027)
(-0.56982 -0.214898 -0.91535)
(-1.28399 0.0208697 -0.0291218)
(-0.285694 0.596124 0.617964)
(0.711988 0.645509 0.346271)
(1.53777 0.030463 -0.110864)
(-1.38914 -0.00130748 -0.0447948)
(-0.951556 0.00137096 -0.000128435)
(-0.653341 -0.234772 -0.150591)
(-0.652066 -0.05251 -0.0397968)
(-0.041397 0.00336929 0.00373369)
(-0.129485 0.0397231 0.01966)
(-0.198138 0.213492 0.0502513)
(-0.100713 0.481193 0.0825385)
(0.0381596 0.647214 0.138865)
(0.150439 0.733344 0.295298)
(0.229669 0.838985 0.429846)
(0.00359815 -1.37042 0.343789)
(0.000812688 -1.61119 0.295412)
(0.000919036 -1.87515 0.355272)
(0.00106219 -2.13765 0.316716)
(0.00120745 -2.38948 0.233243)
(0.00134014 -2.61272 0.206035)
(0.00141875 -2.75374 0.471193)
(0.00146003 -2.84782 0.703067)
(-0.0035433 -2.97548 0.768404)
(-0.00839148 -3.13101 0.806561)
(-0.00542604 -3.28791 0.826581)
(-0.00200594 -3.42581 0.815617)
(-0.0252543 -3.59454 0.516222)
(-0.183427 -1.75567 -3.17846)
(-0.0915231 -0.447558 -3.6541)
(-0.0395484 -0.404953 -3.70703)
(-0.0178967 -0.448638 -3.74249)
(-0.00420631 -0.717896 -3.74506)
(-7.98498e-05 -2.20647 -3.17172)
(-0.0185242 -3.84564 -0.348621)
(-0.0139402 -3.88154 0.519631)
(0.0144439 -3.88074 0.648344)
(0.0704016 -3.86198 0.550475)
(0.203728 -3.7975 -0.533016)
(0.109097 -0.994966 -3.58161)
(-0.0674129 -0.0445008 -3.57401)
(-0.398416 0.42849 -3.38986)
(-0.440517 0.734655 -3.17467)
(0.391162 0.022736 -3.12114)
(0.479486 -0.342242 -2.99744)
(-0.446154 -0.461502 -2.91122)
(-2.65559 -0.483519 -2.20989)
(-2.51158 -0.475148 -2.2338)
(-0.15783 -0.385868 -2.80489)
(1.42569 -0.871545 -2.53589)
(1.44102 -1.02505 -2.49196)
(-0.253733 -0.760633 -2.73415)
(-0.762845 -0.511449 -2.69189)
(-0.349426 -0.398903 -2.62026)
(-0.0912123 -0.296402 -2.44272)
(-0.0774526 -0.227353 -2.20366)
(-0.0326784 -0.162995 -1.94279)
(-0.00418934 -0.0375371 -1.69272)
(0.0275065 0.076778 -1.46071)
(0.271984 0.267954 -1.24019)
(0.634011 1.25771 0.1626)
(0.0287456 0.383764 0.957224)
(0.110595 0.466802 0.900579)
(-0.00982936 -0.804635 -0.738858)
(-0.685363 -0.704043 -0.537065)
(-1.22278 -0.0438043 -0.0202962)
(-0.890383 -0.100625 0.11137)
(-0.681859 -0.0170303 0.0070264)
(0.000357439 -0.330312 -0.126942)
(0.000630926 -0.513921 -0.221707)
(0.00098759 -0.86224 -0.362278)
(0.00128852 -1.1461 -0.47655)
(0.00148064 -1.31915 -0.554207)
(0.00178602 -1.59565 -0.667471)
(0.00196477 -1.7582 -0.735202)
(0.0019664 -1.89854 -0.793968)
(0.00203442 -2.01178 -0.840104)
(0.00165087 -2.10495 -0.879279)
(-0.00068314 -2.18828 -0.918107)
(-0.00623655 -2.27154 -0.955364)
(-0.0030716 -2.36701 -0.988727)
(0.00477894 -2.46166 -1.01992)
(0.00683314 -2.51612 -1.04756)
(0.00437203 -2.52301 -1.05432)
(-0.000834893 -2.52857 -1.06966)
(-0.0502221 -2.5779 -1.08306)
(-0.154313 -2.60905 -1.12828)
(-0.321534 -2.60778 -1.15583)
(-0.365453 -2.60815 -1.1662)
(-0.205838 -2.64238 -1.17636)
(-0.0584129 -2.70264 -1.176)
(-0.0123127 -2.73302 -1.23634)
(0.0255589 -2.74393 -1.31351)
(0.0781983 -2.71117 -1.42652)
(0.079079 -2.75734 -1.36972)
(0.041639 -2.81359 -1.32127)
(0.0320383 -2.86771 -1.34293)
(0.031027 -2.915 -1.36388)
(0.0283399 -2.93634 -1.36778)
(0.0279545 -2.94888 -1.35653)
(0.0290559 -2.97413 -1.34157)
(0.0210858 -3.01139 -1.31869)
(0.00775087 -3.02879 -1.27641)
(-0.00339577 -2.98006 -1.21544)
(-0.0213311 -2.8672 -1.18242)
(-0.0175558 -2.75346 -1.19691)
(0.0110978 -2.70252 -1.17528)
(0.0122707 -2.71499 -1.0513)
(-0.00491548 -2.66863 -1.07082)
(-0.0207347 -2.62831 -1.0917)
(-0.0247093 -2.58153 -1.13749)
(-0.0239311 -2.56994 -1.11842)
(-0.0204315 -2.57454 -1.07019)
(-0.0138987 -2.56851 -1.0181)
(-0.00808088 -2.53506 -0.963954)
(-0.00559464 -2.46453 -0.903448)
(-0.00242376 -2.34699 -0.831792)
(0.00246348 -2.18785 -0.747429)
(0.00727354 -1.99784 -0.65271)
(0.0141354 -1.7963 -0.557408)
(0.00999887 -1.57081 -0.46586)
(-0.00130915 -1.36525 -0.398862)
(-0.0136511 -1.18443 -0.35727)
(-0.0108114 -1.03631 -0.356533)
(-0.0823529 -0.866948 -0.337825)
(-0.873019 -0.374352 -0.175761)
(-0.674977 -0.310465 -0.15823)
(-0.635439 0.0977533 0.030658)
(0.000280473 -0.301745 -0.0662557)
(0.000495575 -0.441249 -0.111059)
(0.00083451 -0.832507 -0.197951)
(0.00103437 -1.06014 -0.245615)
(0.00115099 -1.19153 -0.279947)
(0.00125589 -1.30836 -0.306679)
(0.000427867 -1.39851 -0.328134)
(-0.00136305 -1.47288 -0.345396)
(-0.00214431 -1.54471 -0.360874)
(-0.00215273 -1.61311 -0.374528)
(-0.00353593 -1.67933 -0.387229)
(-0.00879514 -1.74349 -0.399994)
(-0.012279 -1.80958 -0.416235)
(-0.00176321 -1.89581 -0.441206)
(0.00945134 -1.99533 -0.464597)
(0.0117475 -2.06168 -0.479346)
(0.00551166 -2.07064 -0.490957)
(-0.00181755 -2.05772 -0.50253)
(-0.0434385 -2.06369 -0.483377)
(-0.171215 -2.09876 -0.404192)
(-0.543189 -2.12359 -0.276877)
(-0.695527 -2.12803 -0.433861)
(-0.293858 -2.17665 -0.669051)
(-0.0600341 -2.23783 -0.690724)
(0.00975668 -2.27816 -0.730879)
(0.0772158 -2.30072 -0.792814)
(0.143769 -2.31462 -0.836674)
(0.0678277 -2.36659 -0.726573)
(0.020447 -2.39504 -0.692923)
(0.01441 -2.42386 -0.688161)
(0.0121425 -2.4585 -0.680285)
(0.0111195 -2.51499 -0.678767)
(0.0154904 -2.5906 -0.687028)
(0.0244385 -2.67002 -0.698375)
(0.0287819 -2.7347 -0.702872)
(0.0199956 -2.77212 -0.699657)
(0.00665699 -2.77435 -0.692612)
(-0.00082581 -2.72161 -0.678679)
(-0.0112104 -2.62609 -0.662725)
(-0.024906 -2.52935 -0.645119)
(-0.0277315 -2.45133 -0.623393)
(-0.0324206 -2.39364 -0.604011)
(-0.0314394 -2.35422 -0.588263)
(-0.0203543 -2.32546 -0.578629)
(-0.00771674 -2.30406 -0.574359)
(-0.000550988 -2.29097 -0.571726)
(0.00163978 -2.27488 -0.563825)
(0.00201712 -2.24663 -0.547034)
(0.00245076 -2.19606 -0.520802)
(0.0032854 -2.11778 -0.487509)
(0.00469662 -2.00675 -0.44588)
(0.00715048 -1.86554 -0.398206)
(0.00494188 -1.69061 -0.347795)
(-0.00143444 -1.49552 -0.29531)
(-0.0118934 -1.29467 -0.24761)
(-0.0114107 -1.10725 -0.21652)
(-0.0839064 -0.872395 -0.18736)
(-0.720638 -0.396721 -0.10468)
(-0.585892 -0.286899 -0.154515)
(-0.625428 -0.0128448 -0.0217972)
(7.97556e-05 -0.237795 -0.0468454)
(0.000131669 -0.321795 -0.0741915)
(0.000310059 -0.903102 -0.178649)
(0.00040722 -1.17265 -0.224796)
(0.000451891 -1.31127 -0.249507)
(0.000494706 -1.44206 -0.273144)
(0.000532928 -1.55773 -0.294333)
(0.000562987 -1.65431 -0.310729)
(0.000582137 -1.7285 -0.321014)
(0.000355833 -1.77789 -0.324847)
(-0.00161157 -1.80938 -0.326255)
(-0.0095347 -1.84605 -0.330885)
(-0.0164394 -1.90495 -0.345777)
(-0.00410898 -1.99092 -0.37189)
(0.00479377 -2.07026 -0.395483)
(0.00699092 -2.10378 -0.413852)
(0.00370302 -2.07193 -0.420462)
(5.0439e-05 -2.02441 -0.427322)
(-0.0418649 -2.03653 -0.216607)
(-1.32344 0.34586 1.8135)
(-2.44566 -0.251187 0.880513)
(-2.339 -0.937603 0.534906)
(-1.03781 -1.93551 0.0469856)
(-0.134844 -2.12522 -0.315797)
(-0.00539782 -2.19308 -0.404911)
(0.0701225 -2.14718 -0.775554)
(0.168226 -1.69456 -1.59487)
(0.14721 -1.44904 -1.91097)
(0.0589887 -2.07879 -1.20474)
(0.0308002 -2.33171 -0.618591)
(0.0206763 -2.40862 -0.547658)
(0.0103955 -2.48545 -0.556202)
(0.00568882 -2.57058 -0.56478)
(0.00843599 -2.65574 -0.58602)
(0.0111665 -2.7323 -0.616096)
(0.00811484 -2.79544 -0.642335)
(0.0027156 -2.83811 -0.656325)
(-0.000651952 -2.83625 -0.669902)
(-0.00270063 -2.77938 -0.67514)
(0.00840742 -2.73978 -0.479388)
(0.00610995 -2.68852 -0.253045)
(-0.0167331 -2.62093 -0.195426)
(-0.0152832 -2.56206 -0.293183)
(-0.00833973 -2.50719 -0.473344)
(-0.00461465 -2.46704 -0.589345)
(-0.00214552 -2.45899 -0.58349)
(-0.00106465 -2.44774 -0.579617)
(-0.00101249 -2.43319 -0.560621)
(-0.00152971 -2.39866 -0.538888)
(-0.00152329 -2.33034 -0.516496)
(5.82279e-05 -2.21946 -0.480099)
(0.00288022 -2.07503 -0.434014)
(0.00373363 -1.89301 -0.384488)
(0.00284729 -1.6554 -0.321692)
(-0.00178227 -1.41944 -0.261765)
(-0.00753031 -1.22707 -0.224968)
(-0.108019 -0.98072 -0.192998)
(-0.8057 -0.518348 -0.0871882)
(-0.697924 -0.351038 -0.106758)
(-0.638622 -0.0870648 0.0913998)
(-0.186003 0.100784 -0.125649)
(-0.454639 0.208282 -0.171329)
(-0.481309 0.412953 -0.405465)
(-0.0673604 -0.637992 -0.579536)
(0.0266654 -0.897984 -0.52035)
(0.0201046 -1.14186 -0.603759)
(0.00156707 -1.28629 -0.726373)
(-0.00476958 -1.29689 -0.931132)
(-0.0113236 -1.2689 -1.1044)
(-0.0284136 -1.45495 -1.0689)
(-0.0487725 -1.70538 -0.936427)
(-0.0438596 -1.92589 -0.796554)
(-0.0241768 -2.07329 -0.755652)
(-0.00483903 -2.17065 -0.777715)
(0.00609948 -2.18191 -0.849412)
(0.00816825 -2.08992 -0.944749)
(0.0014601 -1.94415 -1.03507)
(-0.0521295 0.0564294 -2.08266)
(-0.0387033 0.0455204 -2.0845)
(-0.0212986 0.0500522 -2.12341)
(-0.00322608 -0.342103 -2.15018)
(-0.00723321 -0.680597 2.10433)
(-0.043118 -0.634623 2.15112)
(-0.248541 -0.645649 2.171)
(-1.96748 -0.543824 1.63377)
(-2.99523 -0.599087 0.304166)
(-0.124085 -1.65066 -1.59914)
(0.239014 -1.62032 -1.7163)
(0.382492 -1.75032 -1.70414)
(0.524374 -1.93273 -1.64874)
(0.527453 -2.23507 -1.32558)
(0.00462425 -2.54206 -0.829003)
(-0.0263036 -2.62138 -0.942059)
(-0.0162089 -2.70635 -1.02866)
(0.00586796 -2.75884 -1.14076)
(-0.0281037 -2.78552 -1.24122)
(-0.279285 -2.80417 -1.23034)
(-0.804766 -2.3597 -1.84713)
(2.21535 -1.75391 -1.86483)
(1.71511 -2.30091 -1.27947)
(0.198172 -2.81016 -0.232382)
(-0.0535526 -2.11402 -1.71731)
(-0.992269 -1.93325 -1.72448)
(-2.55961 -1.76216 -0.975927)
(-2.30898 -1.92484 -0.998887)
(-0.0195466 -1.3454 -2.29544)
(1.35355 -1.3499 -2.10457)
(2.0069 -2.25439 -0.493348)
(0.535698 -2.61746 0.00724006)
(-0.154289 -2.54724 0.100192)
(0.263541 -2.36008 0.3837)
(0.207366 -2.09597 0.586756)
(-0.223664 -1.85897 0.350753)
(-0.236834 -1.32524 -0.596466)
(0.107914 -1.0009 -0.58452)
(0.020248 -1.10395 -0.338017)
(-0.314651 -1.04194 -0.307238)
(-1.42062 -0.193687 -0.0276273)
(-0.909199 -0.292437 -0.136402)
(-0.560392 -0.172899 0.253503)
(-0.179558 0.196955 0.0329311)
(-0.427541 0.296404 0.0340314)
(-0.636878 0.438808 0.0652647)
(-0.187606 -0.74768 -0.252019)
(-0.0542108 -0.896709 0.249889)
(-0.0540164 -1.07636 0.336935)
(-0.109203 -1.3066 0.214798)
(-0.278304 -1.37201 -0.506208)
(-0.351664 -1.16102 -0.995156)
(-0.245806 -1.53664 -0.767329)
(-0.0568807 -1.89843 -0.202262)
(0.0204913 -2.01352 0.346019)
(0.00973875 -2.06725 0.657696)
(0.00120863 -2.1479 0.753276)
(-0.00313988 -2.26715 0.478005)
(-0.0240761 -2.18332 -0.632079)
(-0.0429574 -0.989938 -1.88142)
(-0.0393472 -0.594012 -1.927)
(-0.0240171 -0.563007 -1.88842)
(0.0274766 -0.538182 -1.91194)
(0.25381 -0.488656 -1.97115)
(1.73984 -0.643948 -1.42382)
(0.0153443 0.742679 1.97431)
(-1.60466 -0.729265 1.52249)
(-1.83688 -0.532305 1.4575)
(-1.75954 -0.504603 1.51182)
(-0.978836 -1.42284 1.30897)
(-0.110445 -2.11353 -0.0841764)
(0.708415 -1.81204 -1.22711)
(1.11794 -1.47981 -1.75921)
(1.66475 -1.35031 -1.96715)
(1.0936 -2.69351 -0.114834)
(-0.00279952 -2.71095 0.978593)
(0.00226578 -2.77941 1.02914)
(0.00522493 -2.84552 1.04082)
(-0.0146619 -2.89778 1.04)
(-0.280033 -2.88066 1.11083)
(-1.18874 -2.23461 1.96833)
(-0.0209668 -1.62607 2.53323)
(2.77897 -2.18366 -0.385967)
(1.13373 -2.73506 -0.161326)
(-0.577421 -2.6491 0.724783)
(-0.332917 -2.59457 0.833328)
(-0.211495 -2.38052 1.28417)
(-1.09218 -1.77627 1.86442)
(-0.979574 -1.60538 2.04921)
(1.14545 -1.77807 1.881)
(1.41125 -2.34088 1.00446)
(-0.00858382 -2.6982 0.0692026)
(-0.201557 -2.5369 -0.0664296)
(0.332694 -2.2177 -0.42118)
(0.261248 -1.86862 -0.478056)
(-0.451676 -1.52526 -0.210168)
(-0.792649 -0.855433 -0.442489)
(0.22136 0.0489074 -0.781781)
(0.044084 -1.12584 0.222272)
(-0.383392 -1.06305 0.25306)
(-1.41954 -0.192207 -0.000710161)
(-0.874773 -0.392606 -0.0825329)
(-0.136057 -0.367442 0.291409)
(-3.81967e-05 -0.257479 0.0510343)
(-7.50927e-05 -0.373574 0.0815295)
(-0.000683723 -0.9696 0.185768)
(-0.000700105 -1.30675 0.23303)
(-0.000225294 -1.29421 0.225062)
(-0.000712438 -1.33566 0.230461)
(-0.00148319 -1.40714 0.241382)
(-0.00219741 -1.5056 0.256791)
(-0.00289066 -1.60937 0.269686)
(-0.0046889 -1.70195 0.273985)
(-0.00895947 -1.77425 0.275975)
(-0.0167392 -1.83347 0.277504)
(-0.0272181 -1.87679 0.288846)
(-0.039537 -1.89738 0.295764)
(-0.048828 -1.8836 0.246601)
(-0.068487 -1.8552 0.0103252)
(-0.0858172 -1.74636 -0.560769)
(-0.0507683 -1.71005 -0.754908)
(0.0587971 -1.74569 -0.873071)
(0.342956 -1.84874 -0.851638)
(1.13 -1.8787 -0.519288)
(2.18753 -1.3527 -0.10163)
(1.57199 -1.58215 -0.777622)
(-1.01887 -1.74689 -0.886522)
(-1.24305 0.827804 1.63393)
(-1.44888 0.665182 1.53679)
(-1.67019 0.202219 1.48294)
(-1.06006 -1.27991 1.22588)
(0.0743333 -1.91648 0.523892)
(0.885251 -2.03862 -0.24099)
(1.17508 -2.13042 -0.642506)
(0.992489 -2.3966 -0.756205)
(0.0555428 -2.74245 0.41379)
(0.00111558 -2.82025 0.537709)
(0.00368714 -2.88372 0.558189)
(0.00671372 -2.92732 0.569749)
(0.00704825 -2.95695 0.57318)
(0.0036426 -2.97589 0.578272)
(-0.00135305 -2.95709 0.580584)
(-0.0144079 -2.86547 0.648709)
(-0.0879412 -2.76421 0.640223)
(-0.0834839 -2.6611 0.645067)
(-0.0188101 -2.58989 0.601361)
(-0.00171158 -2.55966 0.503385)
(-0.00582203 -2.53136 0.477209)
(-0.00592096 -2.49779 0.505976)
(-0.00295445 -2.47771 0.479674)
(-0.00107131 -2.45018 0.451391)
(-0.00174703 -2.39881 0.431658)
(-0.00347101 -2.29749 0.406389)
(-0.00161091 -2.12948 0.365648)
(0.00209354 -1.90853 0.31466)
(-0.000463572 -1.63626 0.259377)
(-0.0112928 -1.33391 0.205615)
(-0.00706489 -1.1025 0.157518)
(-0.00585199 -0.994058 0.148598)
(-0.121988 -0.85686 0.146883)
(-0.731668 -0.537691 0.078848)
(-0.59308 -0.499767 0.0556987)
(-0.0301265 -0.405297 0.193611)
(-6.85519e-05 -0.286825 0.0617045)
(-0.000100745 -0.337117 0.0829621)
(-0.0131613 -0.612384 0.145424)
(-0.0422897 -0.97834 0.214382)
(-0.0527523 -1.11727 0.138405)
(-0.0896187 -1.21977 -0.0969354)
(-0.230753 -1.01329 -0.782295)
(-0.557442 -0.498384 -1.17738)
(-0.977783 -0.251313 -1.14901)
(-0.847189 -0.924762 -0.876773)
(-0.175419 -1.44975 0.0274103)
(-0.0762374 -1.43397 0.163275)
(-0.0711776 -1.40005 0.130211)
(-0.160182 -1.37007 -0.000331849)
(-0.4382 -1.37251 -0.0802677)
(-0.370432 -1.49535 0.217929)
(-0.138667 -1.70282 0.336147)
(0.0152774 -1.93949 0.418092)
(0.145833 -2.17524 0.480083)
(0.291044 -2.40028 0.541216)
(0.595546 -2.55243 0.589074)
(0.815457 -2.61682 0.582685)
(0.156964 -2.70021 0.549927)
(-0.0457288 -2.6687 0.50081)
(-0.226632 -2.60737 0.502951)
(-1.03 -2.33189 0.827691)
(-1.16614 0.198602 2.33736)
(-0.635289 0.434821 2.27142)
(-0.72013 -0.805657 2.00895)
(-0.144338 -1.96768 1.01459)
(0.541082 -2.24737 0.459862)
(1.42138 -2.33132 0.315922)
(2.05163 -2.38736 0.395662)
(0.165639 -2.88155 0.583949)
(0.000225069 -2.97701 0.603148)
(-0.00405635 -3.04231 0.608313)
(-0.00540309 -3.0809 0.606346)
(0.00613806 -3.06074 0.605882)
(0.0690159 -2.97645 0.608101)
(0.32613 -2.92227 0.272481)
(0.0497941 -1.011 -2.5159)
(-0.0447319 -1.07071 -2.38659)
(-0.202913 -1.8742 -1.78428)
(-0.31045 -2.50666 0.664282)
(-0.212773 -2.46765 0.63514)
(-0.0961571 -2.47424 0.394024)
(-0.00805909 -2.40461 0.34664)
(0.0375616 -2.29056 0.333232)
(0.0400591 -2.15478 0.32229)
(0.0168064 -1.97517 0.395662)
(0.00477264 -1.78502 0.386007)
(-7.98123e-06 -1.60067 0.314117)
(-0.0125327 -1.41357 0.238713)
(-0.0382701 -1.21903 0.176545)
(-0.0246944 -1.04131 0.138802)
(-0.00577201 -0.923263 0.142734)
(-0.154997 -0.808282 0.153083)
(-0.873686 -0.390742 0.0954769)
(-0.581555 -0.450372 0.140895)
(-0.0160047 -0.343171 0.275587)