/*--------------------------------*- C++ -*----------------------------------*\
| =========                 |                                                 |
| \\      /  F ield         | OpenFOAM: The Open Source CFD Toolbox           |
|  \\    /   O peration     | Version:  2.1.1                                 |
|   \\  /    A nd           | Web:      www.OpenFOAM.org                      |
|    \\/     M anipulation  |                                                 |
\*---------------------------------------------------------------------------*/
FoamFile
{
    version     2.0;
    format      ascii;
    class       volVectorField;
    location    "0.0015";
    object      gradAlphaUSE;
}
// * * * * * * * * * * * * * * * * * * * * * * * * * * * * * * * * * * * * * //

dimensions      [0 0 0 0 0 0 0];

internalField   nonuniform List<vector> 
36520
(
(-0.000130687 0.000122184 0.000139366)
(-0.000129587 5.18257e-05 0.000232216)
(3.2332e-06 7.55828e-05 0.00022683)
(5.68753e-06 9.49478e-05 0.000244154)
(7.10944e-06 0.000118072 0.000267363)
(7.40025e-06 0.000140361 0.00028722)
(8.1037e-06 0.000162681 0.00031531)
(9.38669e-06 0.000187692 0.000351382)
(1.17592e-05 0.000217174 0.000401173)
(1.57825e-05 0.00025478 0.000470201)
(2.17373e-05 0.000305451 0.000564166)
(3.0453e-05 0.000373769 0.000688508)
(4.27912e-05 0.000468833 0.000849231)
(5.93617e-05 0.000598272 0.0010442)
(8.03544e-05 0.000772205 0.00126941)
(0.000105412 0.000995298 0.00150591)
(0.000133833 0.00127417 0.00173807)
(0.000163767 0.00160998 0.00194624)
(0.000192153 0.00199973 0.00211689)
(0.000215195 0.00242558 0.00223502)
(0.00022955 0.00286368 0.0022912)
(0.000233593 0.00329128 0.00227576)
(0.000227945 0.00369293 0.00218696)
(0.000215339 0.0040548 0.00202193)
(0.000197803 0.00435837 0.00179402)
(0.000180049 0.0045844 0.00152498)
(0.000149173 0.00474288 0.00114234)
(0.000106219 0.00487034 0.000657206)
(8.91011e-05 0.00495773 0.000117071)
(0.000108822 0.005104 -0.000338417)
(0.000138975 0.00542232 -0.000549242)
(0.00014953 0.00590615 -0.000868101)
(0.000116924 0.00647695 -0.00125588)
(2.98329e-05 0.00694006 -0.00156935)
(-0.000113074 0.00708276 -0.00177681)
(-0.000296254 0.00673208 -0.00187879)
(-0.00046719 0.00586948 -0.00194515)
(-0.000578815 0.00454553 -0.00207101)
(-0.000608109 0.00289443 -0.00272002)
(-0.000534887 -0.000206956 -0.0176575)
(-0.000380836 -0.0050236 -0.0520588)
(-0.000214835 -0.00820893 -0.0716475)
(-6.90712e-05 -0.0107838 -0.0622174)
(-0.000420645 -0.0107624 -0.0141158)
(-0.003042 -0.0458203 -0.000152028)
(-0.0180793 -0.226447 0.00381732)
(-0.0488855 -0.499649 0.0196766)
(-0.0751578 -0.619434 0.0369373)
(-0.0792987 -0.607586 0.0141467)
(-0.0599508 -0.805299 -0.213275)
(0.00917802 0.116672 -0.975251)
(-0.136326 0.91555 -0.377407)
(-0.825255 0.564541 -0.0152862)
(-0.943658 0.319383 0.0866239)
(-0.898567 0.159131 0.408968)
(-0.486025 -0.359143 0.796741)
(-0.164092 -0.648655 0.743183)
(-0.193498 -0.536601 0.821351)
(-0.242337 -0.246312 0.938405)
(-0.515887 -0.768306 -0.378901)
(-8.6392e-05 0.000372787 0.000367545)
(-8.79061e-05 0.000448294 0.000493741)
(8.84914e-06 0.00046074 0.000449148)
(2.49682e-05 0.000513689 0.000429232)
(2.75959e-05 0.000572307 0.000410904)
(3.02188e-05 0.000626876 0.000385217)
(3.86614e-05 0.000693125 0.00036907)
(5.02957e-05 0.000778668 0.000361654)
(6.83852e-05 0.000893252 0.000373612)
(9.3468e-05 0.00104884 0.000405754)
(0.000125784 0.00126136 0.000456922)
(0.000166303 0.00154455 0.000517403)
(0.000212261 0.00192026 0.000572249)
(0.000259483 0.00239622 0.00059281)
(0.000300133 0.00297967 0.000550956)
(0.000328326 0.00364226 0.000423473)
(0.000343024 0.00435865 0.000226407)
(0.000343412 0.00508239 -9.25821e-06)
(0.000328705 0.00576679 -0.000269669)
(0.000297091 0.00636193 -0.000606291)
(0.000247761 0.00688673 -0.00101852)
(0.000182733 0.00741107 -0.00151211)
(0.000105871 0.00804565 -0.00198607)
(2.71525e-05 0.00877049 -0.00226082)
(-3.9671e-05 0.00931937 -0.0024877)
(-0.000130771 0.00931143 -0.00328549)
(-0.000264142 0.0088498 -0.00434931)
(-0.000381541 0.00877661 -0.0052978)
(-0.000384157 0.0082792 -0.00788771)
(-0.000208448 0.00751128 -0.0109352)
(-0.000114601 0.00783786 -0.00972565)
(-0.000188967 0.00832663 -0.00660376)
(-0.0002193 0.00810606 -0.00504678)
(-0.000219847 0.00740134 -0.00447997)
(-0.000260365 0.00638994 -0.00422774)
(-0.000374343 0.00510127 -0.00396872)
(-0.000554471 0.00331355 -0.00504372)
(-0.000937181 0.000532864 -0.0107279)
(-0.00799656 -0.0019011 -0.0220844)
(-0.0243756 0.00814687 -0.0332533)
(-0.0272416 0.0165198 -0.0378598)
(-0.00546508 0.0088022 -0.0396751)
(0.0209538 -0.054665 -0.293769)
(0.00683209 -0.154233 -0.765491)
(0.000791857 -0.174691 -0.856702)
(-0.000449434 -0.194719 -0.841313)
(-0.0210524 -0.331068 -0.493959)
(-0.0866671 -0.533457 -0.181062)
(-0.222243 -0.656128 -0.269217)
(-0.664426 -0.395389 -0.593984)
(-0.77218 -0.170636 -0.609431)
(-0.285956 0.20554 -0.935714)
(-0.0232059 0.156475 -0.987382)
(0.00529647 0.190762 0.981618)
(0.000229182 0.100955 0.994891)
(-0.000671103 0.0998474 0.995002)
(-0.00377164 0.0999972 0.994981)
(-0.11217 0.0924813 0.989376)
(-0.537502 0.046598 0.841974)
(-0.995084 0.0946128 -0.0292751)
(-6.82753e-05 0.000904789 0.000291739)
(-8.79547e-05 0.000872187 0.000264552)
(-2.61915e-05 0.000911634 0.000181075)
(-1.08018e-05 0.000981568 7.95607e-05)
(-1.21304e-05 0.00105272 -3.63703e-05)
(-1.07178e-05 0.00112183 -0.00017634)
(-9.58641e-07 0.0012121 -0.000357374)
(1.42647e-05 0.0013355 -0.000506695)
(3.62866e-05 0.00152097 -0.000578887)
(6.01668e-05 0.00175007 -0.000676616)
(8.12374e-05 0.00204001 -0.000808726)
(9.38865e-05 0.00240748 -0.000983536)
(8.9926e-05 0.0028706 -0.00121193)
(6.35139e-05 0.00342311 -0.00149498)
(1.68653e-05 0.00404166 -0.00184627)
(-3.00406e-05 0.00463735 -0.0022798)
(-5.26406e-05 0.00514249 -0.00269607)
(-5.41047e-05 0.0053694 -0.0032923)
(-7.62816e-05 0.00477057 -0.00573494)
(-0.000127677 0.00277519 -0.0127527)
(-0.000186679 -0.00158265 -0.0279038)
(-0.000204886 -0.00951764 -0.057615)
(-0.000104808 -0.0234166 -0.111516)
(-1.30546e-05 -0.0444211 -0.192239)
(-0.000204651 -0.0726524 -0.297209)
(-0.000427062 -0.100538 -0.399995)
(-0.000434935 -0.117428 -0.46239)
(-0.00079448 -0.124226 -0.490304)
(-0.00115693 -0.139666 -0.545676)
(-0.000290398 -0.161241 -0.617469)
(0.000704323 -0.173856 -0.657674)
(0.000811207 -0.167752 -0.63621)
(0.000428527 -0.154406 -0.591037)
(0.000176006 -0.135014 -0.526286)
(4.90261e-05 -0.114145 -0.457271)
(-0.000438558 -0.0922254 -0.386949)
(-0.00254627 -0.0693852 -0.316189)
(-0.00656749 -0.0496521 -0.261733)
(-0.00904278 -0.0352945 -0.238741)
(-0.0067861 -0.0288359 -0.229365)
(-0.00316025 -0.0315903 -0.22209)
(-0.135541 -0.0444132 -0.2069)
(-0.608506 0.00997913 -0.158314)
(-0.653763 0.0535562 -0.430831)
(-0.178171 -0.0787311 -0.837762)
(0.26365 -0.371458 -0.775789)
(0.273617 -0.507576 -0.685086)
(-0.0137621 -0.49564 -0.753267)
(-0.382378 -0.755846 -0.465418)
(-0.707303 -0.638154 -0.290985)
(-0.842988 -0.380696 -0.378998)
(-0.806791 -0.234683 -0.542143)
(-0.0257509 0.0386626 -0.998898)
(0.610611 0.472056 -0.635804)
(0.425048 0.894109 -0.140102)
(-0.457728 0.888764 -0.0198207)
(-0.889334 0.365822 0.274286)
(-0.998813 -0.0251224 -0.0417127)
(-0.973263 0.0778872 0.216086)
(-0.939496 0.278479 0.199492)
(-9.82789e-05 0.00122289 -0.000260406)
(-0.000137002 0.00140413 -0.000462066)
(-7.37935e-05 0.00163666 -0.000650482)
(-7.28765e-05 0.00191585 -0.000665378)
(-8.85926e-05 0.00206758 -0.00081182)
(-0.000115824 0.00196153 -0.00162632)
(-0.000110182 0.00188962 -0.00275407)
(-4.51582e-05 0.00182445 -0.00430444)
(-1.62872e-07 0.00172975 -0.00658958)
(-1.95136e-07 0.00153637 -0.0102403)
(-2.34441e-07 0.00156455 -0.0145278)
(-2.81324e-07 0.00188161 -0.0196853)
(-3.42506e-07 0.00232489 -0.0264321)
(-6.83947e-06 0.0024476 -0.0360601)
(-3.51563e-05 0.00191574 -0.0492127)
(-4.13669e-05 -0.000206673 -0.069038)
(-0.000107717 -0.00490187 -0.0985692)
(-0.000944821 -0.01502 -0.146477)
(-0.00325923 -0.0360384 -0.22975)
(-0.00659626 -0.0758019 -0.370601)
(-0.00960801 -0.135627 -0.559907)
(-0.0113572 -0.194099 -0.726928)
(-0.0110606 -0.235913 -0.836266)
(-0.00928896 -0.262564 -0.897541)
(-0.00651796 -0.277946 -0.928124)
(-0.00352118 -0.286272 -0.941167)
(-0.00161728 -0.289706 -0.945722)
(-0.00184216 -0.288612 -0.946383)
(-0.00526894 -0.279888 -0.943838)
(-0.00847269 -0.267246 -0.940638)
(-0.00164905 -0.273022 -0.938618)
(0.00511072 -0.280649 -0.938845)
(0.00653187 -0.280876 -0.939371)
(0.00674083 -0.280663 -0.937061)
(0.00651485 -0.279845 -0.931851)
(0.00660125 -0.278909 -0.923641)
(0.00645949 -0.275344 -0.911386)
(0.0055018 -0.2605 -0.885626)
(0.00235452 -0.234586 -0.849571)
(-0.00161373 -0.215408 -0.831444)
(-0.00268296 -0.197059 -0.832919)
(-0.0106222 -0.192488 -0.848046)
(-0.093131 -0.19899 -0.860325)
(-0.353759 -0.230638 -0.75842)
(-0.378936 -0.726911 -0.266988)
(-0.0139238 -0.950313 0.0586905)
(-0.000622905 -0.983241 0.0304227)
(-0.0227314 -0.991174 0.0792293)
(-0.0580357 -0.991752 0.0997159)
(-0.258394 -0.960343 0.0995811)
(-0.701827 -0.709127 0.0659199)
(-0.609473 -0.788256 0.0844925)
(-0.126394 -0.444454 0.886802)
(0.920745 0.229208 -0.315609)
(0.814321 0.0713618 -0.575863)
(-0.294991 0.955415 -0.00801162)
(-0.918746 0.392139 0.046073)
(-0.992194 -0.103197 0.0699927)
(-0.9997 0.0159571 0.0185837)
(-0.996384 0.0187459 0.0828742)
(-0.00015207 0.00236934 -0.000956304)
(-0.000246652 0.00352277 -0.0014913)
(-9.45496e-05 0.00401131 -0.00692369)
(-6.39458e-05 0.00261684 -0.0211932)
(-0.000434679 -0.00190668 -0.0473237)
(-0.000853062 -0.00835327 -0.0813396)
(-0.00113047 -0.0139262 -0.113906)
(-0.00155102 -0.0187954 -0.148958)
(-0.00229198 -0.0234303 -0.188093)
(-0.00287194 -0.0302272 -0.241469)
(-0.00311851 -0.0417493 -0.311444)
(-0.00343001 -0.0621654 -0.40455)
(-0.00394251 -0.090687 -0.508533)
(-0.00429692 -0.127797 -0.618427)
(-0.00504068 -0.152912 -0.6956)
(-0.00565569 -0.184294 -0.773072)
(-0.00722617 -0.20098 -0.821199)
(-0.00999096 -0.218431 -0.86292)
(-0.014587 -0.236636 -0.897345)
(-0.0204575 -0.2545 -0.923471)
(-0.0246994 -0.268845 -0.93992)
(-0.0268467 -0.279127 -0.948311)
(-0.0295015 -0.285992 -0.95187)
(-0.031382 -0.291969 -0.95298)
(-0.027002 -0.297888 -0.952875)
(-0.0171812 -0.320709 -0.946356)
(-0.0061273 -0.362447 -0.931547)
(0.0047483 -0.394429 -0.918498)
(0.0126572 -0.410176 -0.911299)
(0.0152066 -0.381899 -0.922272)
(-0.00814866 -0.324862 -0.941439)
(-0.0120536 -0.331651 -0.939152)
(0.00600935 -0.322851 -0.942846)
(0.0194646 -0.324867 -0.942397)
(0.0226444 -0.328618 -0.941189)
(0.0209359 -0.315776 -0.945616)
(0.0184849 -0.308819 -0.948183)
(0.0155119 -0.30886 -0.948101)
(0.0121994 -0.305646 -0.947293)
(0.00419287 -0.302197 -0.946501)
(-0.00222448 -0.297996 -0.946751)
(-0.00809087 -0.292115 -0.948586)
(-0.0068565 -0.291429 -0.950899)
(-0.00195415 -0.291729 -0.951844)
(0.00613849 -0.301703 -0.94783)
(0.0132061 -0.354558 -0.926112)
(0.00616725 -0.519517 -0.842037)
(-0.00169418 -0.858082 -0.494235)
(-0.056637 -0.991979 -0.0579171)
(-0.340028 -0.922483 0.173643)
(-0.708244 -0.60197 0.367828)
(-0.37427 -0.27116 0.886704)
(-0.124446 -0.0073035 0.992173)
(0.0663309 -0.417647 -0.906145)
(0.232056 0.108597 -0.966584)
(0.106081 0.993625 -0.0372559)
(-0.813094 0.517368 0.266769)
(-0.994368 0.0515181 0.0926117)
(-0.808276 -0.280518 -0.517686)
(-0.966373 -0.134164 -0.219368)
(-0.000276932 -0.00245304 -0.0222318)
(-0.00258459 -0.0220415 -0.117839)
(-0.00705403 -0.0563457 -0.275717)
(-0.0112054 -0.0915162 -0.453666)
(-0.013645 -0.110305 -0.57217)
(-0.0132008 -0.116575 -0.647577)
(-0.0129291 -0.110322 -0.685661)
(-0.0128767 -0.117107 -0.734902)
(-0.0151818 -0.122978 -0.772876)
(-0.0195943 -0.129164 -0.807783)
(-0.0238542 -0.152579 -0.851848)
(-0.023548 -0.201095 -0.896344)
(-0.0223801 -0.24804 -0.920545)
(-0.0194181 -0.27348 -0.931208)
(-0.021938 -0.284342 -0.935896)
(-0.0233575 -0.26859 -0.945729)
(-0.0253505 -0.25809 -0.952579)
(-0.0345303 -0.29837 -0.943433)
(-0.0519541 -0.358444 -0.924016)
(-0.0735511 -0.371418 -0.920111)
(-0.0881857 -0.365462 -0.923549)
(-0.0946344 -0.380111 -0.918402)
(-0.120673 -0.439665 -0.888922)
(-0.180073 -0.580413 -0.79335)
(-0.186392 -0.787499 -0.586893)
(-0.0883863 -0.940395 -0.328043)
(-0.0201636 -0.980061 -0.197444)
(0.00968204 -0.9881 -0.153316)
(0.0292399 -0.990747 -0.13229)
(0.0457328 -0.991909 -0.117863)
(0.079505 -0.92943 -0.358908)
(-0.0336166 -0.423704 -0.903474)
(-0.0522809 -0.370123 -0.925978)
(-0.0300733 -0.35718 -0.932318)
(-0.0079494 -0.354193 -0.934144)
(-0.0123406 -0.360599 -0.931673)
(-0.00477399 -0.385712 -0.921711)
(0.0453545 -0.341493 -0.938141)
(0.0408586 -0.310372 -0.949292)
(0.01333 -0.308931 -0.950637)
(0.00323756 -0.310921 -0.950072)
(-0.0092245 -0.297508 -0.954266)
(-0.0185516 -0.251683 -0.967182)
(-0.00156458 -0.230778 -0.972639)
(0.0139422 -0.243004 -0.969615)
(0.0145454 -0.273237 -0.961513)
(0.00941645 -0.290138 -0.956561)
(0.0070462 -0.300787 -0.953244)
(0.00366548 -0.308925 -0.950627)
(-0.0342144 -0.319878 -0.94635)
(-0.28869 -0.390462 -0.873471)
(-0.885544 0.0335296 0.462828)
(-0.944407 -0.21818 -0.245771)
(-0.199638 -0.306503 -0.930677)
(0.442772 0.610268 -0.656874)
(0.808444 0.556815 -0.190405)
(-0.99945 0.0311106 -0.0105245)
(-0.999902 -0.000725118 -0.0139545)
(-0.56664 -0.510458 -0.646801)
(-0.945474 -0.17976 -0.271596)
(-0.0523705 0.00449259 -0.0304778)
(-0.133067 0.0233109 -0.22704)
(-0.172627 0.0657344 -0.480133)
(-0.166023 0.125531 -0.629989)
(-0.158573 0.232346 -0.637917)
(-0.137919 0.466839 -0.479712)
(-0.139694 0.634961 -0.295914)
(-0.151866 0.751963 -0.0430476)
(-0.161538 0.77669 -0.0380488)
(-0.254989 0.775272 -0.0375954)
(-0.484066 0.702193 -0.0431414)
(-0.677307 0.590036 -0.0611962)
(-0.738758 0.556601 -0.0898312)
(-0.696883 0.620512 -0.121138)
(-0.651056 0.674738 -0.140798)
(-0.0258801 -0.98055 0.185803)
(-0.00491324 -0.999691 -0.00904602)
(-0.0044638 -0.99353 -0.111889)
(-0.014115 -0.906766 -0.420656)
(-0.0477139 -0.375875 -0.924934)
(-0.063253 -0.296344 -0.952666)
(-0.0525751 -0.288004 -0.956005)
(-0.0396711 -0.314546 -0.948295)
(-0.0478658 -0.425093 -0.903788)
(-0.077785 -0.811002 -0.579745)
(-0.0486767 -0.998673 -0.0157254)
(-0.0160343 -0.991842 0.126418)
(-0.00155647 -0.990299 0.138923)
(0.00929802 -0.991449 0.130138)
(0.0204834 -0.992539 0.120147)
(0.0511013 -0.995306 0.0818087)
(0.0829935 -0.565288 -0.819965)
(-0.0644987 0.0232714 -0.997038)
(-0.0839103 0.0169473 -0.995834)
(-0.0336937 -0.0295879 -0.998673)
(-0.0164721 -0.0421659 -0.998656)
(-0.121406 -0.483621 -0.866251)
(-0.158631 -0.967829 -0.193841)
(-0.121855 -0.743845 -0.656861)
(-0.0167199 -0.327776 -0.944542)
(0.0113192 -0.19846 -0.979982)
(0.0171472 -0.182811 -0.982937)
(-0.0141386 -0.192575 -0.981077)
(-0.0609914 -0.200646 -0.977639)
(-0.0156416 -0.179023 -0.983632)
(0.0194671 -0.167978 -0.98553)
(0.0229754 -0.172027 -0.98476)
(0.0131584 -0.19206 -0.981233)
(0.00876133 -0.222015 -0.974946)
(0.0110304 -0.235854 -0.971668)
(0.0055256 -0.228921 -0.973371)
(-0.409062 -0.206158 -0.888847)
(-0.999241 0.0218214 -0.0311677)
(-0.2352 0.682659 0.691819)
(0.558008 0.744792 0.365885)
(0.993701 0.0306375 -0.107273)
(-0.998681 -0.0015094 -0.0511439)
(-0.999998 0.00213985 -0.000196644)
(-0.838668 -0.451494 -0.304614)
(-0.987683 -0.122239 -0.0976705)
(-0.12343 0.0140119 0.0147908)
(-0.319638 0.1269 0.0620856)
(-0.335276 0.462041 0.111712)
(-0.122975 0.759375 0.133219)
(0.0366599 0.808469 0.179195)
(0.114187 0.732739 0.30492)
(0.144211 0.697114 0.370108)
(0.00190688 -0.964588 0.251514)
(0.000372084 -0.981398 0.187291)
(0.000358844 -0.980753 0.193252)
(0.000361534 -0.988248 0.151627)
(0.000364105 -0.994898 0.100064)
(0.000364745 -0.996736 0.0803357)
(0.000359551 -0.985294 0.170803)
(0.000353558 -0.970639 0.240521)
(-0.000827184 -0.968267 0.249905)
(-0.00187536 -0.968036 0.250793)
(-0.00116099 -0.96878 0.247907)
(-0.000415779 -0.971342 0.237672)
(-0.00511797 -0.989184 0.146537)
(-0.0363258 -0.47215 -0.880748)
(-0.0176652 -0.118483 -0.992793)
(-0.00746479 -0.10635 -0.994298)
(-0.0033164 -0.117504 -0.993065)
(-0.000767986 -0.188473 -0.982076)
(-1.42669e-05 -0.578459 -0.815709)
(-0.0031867 -0.996175 -0.0873057)
(-0.0023056 -0.991823 0.127591)
(0.00235578 -0.987289 0.158913)
(0.011746 -0.990424 0.137551)
(0.0353869 -0.989784 -0.138067)
(0.0194871 -0.263769 -0.964365)
(-0.0122916 -0.012092 -0.999811)
(-0.0751309 0.121131 -0.989692)
(-0.0876244 0.218955 -0.971638)
(0.0827698 0.00715115 -0.9964)
(0.106933 -0.112158 -0.987804)
(-0.102914 -0.154834 -0.982464)
(-0.625703 -0.16417 -0.762482)
(-0.598672 -0.161896 -0.784345)
(-0.0375361 -0.130639 -0.990598)
(0.335974 -0.291749 -0.895441)
(0.33554 -0.338857 -0.878883)
(-0.058349 -0.248715 -0.966748)
(-0.175858 -0.167687 -0.969976)
(-0.0830474 -0.134477 -0.987392)
(-0.0231496 -0.105931 -0.994074)
(-0.0217143 -0.0887303 -0.995795)
(-0.0104315 -0.0712318 -0.997386)
(-0.00155219 -0.0185969 -0.999807)
(0.0118881 0.0430957 -0.998981)
(0.136517 0.170288 -0.975867)
(0.370987 0.916806 0.147304)
(0.0191022 0.317321 0.948103)
(0.0780776 0.428032 0.900315)
(-0.00619907 -0.749227 -0.662269)
(-0.434645 -0.725408 -0.53372)
(-0.997848 -0.0596339 -0.0272643)
(-0.961914 -0.178972 0.206617)
(-0.999071 -0.0395701 0.0170822)
(0.000730808 -0.920733 -0.390183)
(0.000730864 -0.920818 -0.389983)
(0.00073092 -0.920904 -0.389782)
(0.000730976 -0.920989 -0.389581)
(0.000731038 -0.921072 -0.389384)
(0.000731104 -0.921153 -0.389192)
(0.00073116 -0.921237 -0.388996)
(0.000678246 -0.920661 -0.390359)
(0.000663467 -0.920189 -0.391471)
(0.000515988 -0.91939 -0.393344)
(-0.000205402 -0.917925 -0.39675)
(-0.00179703 -0.916475 -0.400086)
(-0.00083925 -0.916426 -0.400203)
(0.00123897 -0.917354 -0.39807)
(0.00172437 -0.918053 -0.396454)
(0.00111812 -0.92077 -0.390104)
(-0.000219583 -0.922398 -0.386239)
(-0.0132982 -0.924792 -0.380227)
(-0.0405602 -0.920077 -0.389616)
(-0.0839442 -0.912856 -0.399551)
(-0.0944534 -0.908205 -0.407725)
(-0.0520822 -0.908387 -0.414874)
(-0.0143307 -0.910401 -0.41348)
(-0.0029247 -0.903062 -0.429499)
(0.00588523 -0.894374 -0.447282)
(0.0175902 -0.88071 -0.473328)
(0.0175209 -0.897508 -0.44065)
(0.00909464 -0.911539 -0.411113)
(0.00688333 -0.914087 -0.405458)
(0.00660205 -0.914056 -0.405535)
(0.00602216 -0.912986 -0.407947)
(0.00591136 -0.911862 -0.410454)
(0.00605465 -0.911303 -0.411692)
(0.0043078 -0.912533 -0.408979)
(0.00156961 -0.916048 -0.401064)
(-0.000701811 -0.920184 -0.391484)
(-0.00460866 -0.919533 -0.392978)
(-0.00396162 -0.913249 -0.40737)
(0.00258096 -0.913741 -0.406276)
(0.00291917 -0.929295 -0.369313)
(-0.00119122 -0.923796 -0.382871)
(-0.00509308 -0.918097 -0.396313)
(-0.00613679 -0.908278 -0.418316)
(-0.00599246 -0.909016 -0.416715)
(-0.00514655 -0.91414 -0.405363)
(-0.00353301 -0.918402 -0.395631)
(-0.00209448 -0.920898 -0.389797)
(-0.0015046 -0.922042 -0.387087)
(-0.000694759 -0.922381 -0.386279)
(0.000775821 -0.922599 -0.38576)
(0.00259153 -0.922993 -0.384807)
(0.00583074 -0.923666 -0.383153)
(0.00492844 -0.92457 -0.38098)
(-0.000768255 -0.924531 -0.381106)
(-0.00931392 -0.922778 -0.385219)
(-0.00791864 -0.920593 -0.390442)
(-0.0629221 -0.91535 -0.397713)
(-0.803697 -0.53198 -0.266586)
(-0.760294 -0.572866 -0.306233)
(-0.967971 0.238945 0.0770515)
(0.000674932 -0.973611 -0.228206)
(0.000674903 -0.97348 -0.228767)
(0.00067487 -0.973349 -0.229325)
(0.000674836 -0.973217 -0.229885)
(0.000674804 -0.973085 -0.230443)
(0.000674773 -0.972952 -0.231002)
(0.000216659 -0.97282 -0.231561)
(-0.000659311 -0.972713 -0.232009)
(-0.000992242 -0.972631 -0.232351)
(-0.0009562 -0.97254 -0.23273)
(-0.00150926 -0.972459 -0.233065)
(-0.00359557 -0.972319 -0.23363)
(-0.00475906 -0.971871 -0.235466)
(-0.000638121 -0.971082 -0.238743)
(0.00320138 -0.97102 -0.238976)
(0.00386296 -0.971389 -0.237464)
(0.00184915 -0.971473 -0.237141)
(-0.000634009 -0.971553 -0.236818)
(-0.0154715 -0.974709 -0.222926)
(-0.0604166 -0.981015 -0.18426)
(-0.186085 -0.974434 -0.125877)
(-0.229382 -0.953187 -0.197021)
(-0.0931652 -0.948995 -0.301212)
(-0.018309 -0.952009 -0.30552)
(0.00286107 -0.949262 -0.314475)
(0.0218278 -0.94413 -0.328849)
(0.0395929 -0.942155 -0.332831)
(0.018446 -0.960521 -0.277597)
(0.00552974 -0.966612 -0.256183)
(0.00388244 -0.968283 -0.249825)
(0.00325002 -0.96923 -0.246136)
(0.00292177 -0.969367 -0.245598)
(0.00395554 -0.968876 -0.247516)
(0.00604713 -0.96838 -0.249404)
(0.00693531 -0.968362 -0.249451)
(0.00473621 -0.968584 -0.248641)
(0.0015718 -0.96863 -0.248501)
(-0.000199632 -0.96859 -0.248661)
(-0.00284513 -0.9682 -0.250159)
(-0.00666932 -0.96788 -0.251319)
(-0.00776422 -0.968201 -0.250047)
(-0.00936899 -0.96859 -0.248482)
(-0.00927012 -0.968975 -0.246981)
(-0.00607474 -0.969065 -0.246727)
(-0.00231475 -0.968751 -0.248023)
(-0.000165174 -0.968287 -0.249841)
(0.000493005 -0.968016 -0.250887)
(0.000615127 -0.968012 -0.250903)
(0.000771955 -0.968099 -0.250567)
(0.00109376 -0.967915 -0.251274)
(0.001701 -0.967506 -0.252844)
(0.00290293 -0.966906 -0.255115)
(0.00231836 -0.966031 -0.258415)
(-0.000798701 -0.96589 -0.258949)
(-0.00789739 -0.966323 -0.257212)
(-0.00861131 -0.967586 -0.252396)
(-0.0717148 -0.965006 -0.25223)
(-0.768325 -0.614274 -0.179847)
(-0.744747 -0.578518 -0.332671)
(-0.997845 -0.032591 -0.0569412)
(0.000240415 -0.982003 -0.188854)
(0.000240528 -0.981799 -0.189914)
(0.000239676 -0.98159 -0.190993)
(0.00024073 -0.98138 -0.192072)
(0.000241405 -0.981178 -0.1931)
(0.000240919 -0.980984 -0.194084)
(0.00024102 -0.980779 -0.195119)
(0.000241118 -0.980731 -0.195359)
(0.000241218 -0.980866 -0.194682)
(0.000145581 -0.981205 -0.192967)
(-0.000656002 -0.981666 -0.190605)
(-0.00379923 -0.982073 -0.188461)
(-0.0062241 -0.981783 -0.189902)
(-0.00144459 -0.980812 -0.194949)
(0.00158079 -0.980033 -0.19883)
(0.00225004 -0.979118 -0.203279)
(0.00123785 -0.978638 -0.205584)
(1.80505e-05 -0.978307 -0.207156)
(-0.0155948 -0.994454 -0.103407)
(-0.49477 0.168914 0.852316)
(-0.903822 -0.122475 0.409976)
(-0.854069 -0.456098 0.250074)
(-0.37125 -0.928268 0.0221567)
(-0.0462791 -0.987902 -0.148014)
(-0.00174883 -0.982833 -0.18449)
(0.0215668 -0.939724 -0.341252)
(0.0494912 -0.733075 -0.678345)
(0.0415645 -0.620525 -0.783084)
(0.016181 -0.879336 -0.475927)
(0.00832771 -0.971514 -0.236834)
(0.00551692 -0.979039 -0.203596)
(0.00272715 -0.979129 -0.203219)
(0.00145684 -0.978852 -0.204564)
(0.0020977 -0.977747 -0.209777)
(0.00269261 -0.976132 -0.217162)
(0.00189991 -0.974744 -0.223317)
(0.000621668 -0.973956 -0.226733)
(-0.000149419 -0.972539 -0.23274)
(-0.000640898 -0.970907 -0.239452)
(0.00209894 -0.984499 -0.175349)
(0.00159914 -0.995413 -0.0955716)
(-0.00454562 -0.997094 -0.07594)
(-0.00424533 -0.99321 -0.116221)
(-0.00233638 -0.981874 -0.189514)
(-0.0012925 -0.971519 -0.236955)
(-0.000598186 -0.971884 -0.235457)
(-0.000296155 -0.971805 -0.235785)
(-0.000283073 -0.972817 -0.231574)
(-0.000436336 -0.973355 -0.229304)
(-0.000453166 -0.972875 -0.231329)
(1.86164e-05 -0.972484 -0.232971)
(0.00102089 -0.972057 -0.23474)
(0.00152154 -0.970665 -0.240432)
(0.00140125 -0.969942 -0.243333)
(-0.00105985 -0.970742 -0.240121)
(-0.00494066 -0.972948 -0.230972)
(-0.0777119 -0.971531 -0.223806)
(-0.719317 -0.68261 -0.128943)
(-0.770457 -0.605585 -0.199156)
(-0.953662 -0.202553 0.222487)
(-0.482879 0.408245 -0.381146)
(-0.745954 0.49078 -0.337128)
(-0.511031 0.596475 -0.598142)
(-0.0556906 -0.718056 -0.690749)
(0.0186482 -0.845513 -0.532585)
(0.0112345 -0.863533 -0.503587)
(0.000764314 -0.845661 -0.533163)
(-0.00213795 -0.776785 -0.629093)
(-0.00481417 -0.710385 -0.703253)
(-0.0114778 -0.76617 -0.642251)
(-0.0185957 -0.848123 -0.52934)
(-0.015621 -0.906659 -0.421525)
(-0.00800098 -0.927809 -0.372955)
(-0.00150104 -0.932702 -0.36064)
(0.00184176 -0.924344 -0.381551)
(0.00254422 -0.90368 -0.428196)
(0.000488534 -0.874667 -0.484713)
(-0.01855 0.026409 -0.999445)
(-0.0141262 0.0217902 -0.999644)
(-0.00779355 0.0240808 -0.999662)
(-0.00117133 -0.163577 -0.986487)
(-0.00260457 -0.322373 0.946603)
(-0.0152984 -0.294686 0.955471)
(-0.0851901 -0.291873 0.952655)
(-0.650894 -0.243812 0.718952)
(-0.954488 -0.266485 0.133931)
(-0.0375351 -0.720233 -0.692716)
(0.0679558 -0.688119 -0.722408)
(0.101454 -0.718988 -0.687578)
(0.130247 -0.764028 -0.6319)
(0.128198 -0.86045 -0.493143)
(0.00112546 -0.953329 -0.301924)
(-0.00626034 -0.94319 -0.332188)
(-0.00373138 -0.936236 -0.351348)
(0.00130809 -0.925449 -0.378865)
(-0.00610848 -0.915064 -0.403254)
(-0.0602691 -0.916225 -0.396086)
(-0.176912 -0.779365 -0.601016)
(0.507081 -0.592122 -0.626206)
(0.410335 -0.794982 -0.44669)
(0.04925 -0.99517 -0.0843387)
(-0.0136833 -0.765787 -0.642861)
(-0.256873 -0.709122 -0.656569)
(-0.663068 -0.648894 -0.373129)
(-0.594375 -0.70849 -0.380392)
(-0.00499217 -0.494514 -0.869131)
(0.344522 -0.496789 -0.796527)
(0.514786 -0.836144 -0.189242)
(0.14096 -0.989989 0.00287491)
(-0.0427066 -0.998169 0.0422901)
(0.0793384 -0.980777 0.17815)
(0.0703825 -0.947656 0.311374)
(-0.0921721 -0.969201 0.228259)
(-0.127708 -0.850227 -0.510633)
(0.0726787 -0.772437 -0.630893)
(0.0138984 -0.924257 -0.381512)
(-0.185013 -0.931531 -0.313077)
(-0.976471 -0.213094 -0.0330885)
(-0.869277 -0.441128 -0.223079)
(-0.749462 -0.357283 0.557365)
(-0.450086 0.757271 0.0986679)
(-0.687 0.689221 0.0686989)
(-0.722961 0.668387 0.103776)
(-0.173329 -0.923675 -0.335263)
(-0.0437363 -0.954666 0.292315)
(-0.0356637 -0.943508 0.328438)
(-0.0621809 -0.981043 0.181639)
(-0.141384 -0.912621 -0.38233)
(-0.164784 -0.703576 -0.690753)
(-0.107571 -0.861896 -0.495163)
(-0.0231907 -0.9923 -0.121027)
(0.00769165 -0.981762 0.189839)
(0.00335081 -0.944417 0.328717)
(0.000389261 -0.937096 0.349066)
(-0.000994167 -0.976713 0.214542)
(-0.00788747 -0.957781 -0.287387)
(-0.0148761 -0.450072 -0.892867)
(-0.014261 -0.281646 -0.959412)
(-0.00891342 -0.274388 -0.961577)
(0.0102834 -0.264368 -0.964366)
(0.0953807 -0.239891 -0.9661)
(0.660376 -0.317025 -0.680681)
(0.00588999 0.36522 0.929961)
(-0.61267 -0.355593 0.705804)
(-0.689147 -0.261231 0.675894)
(-0.645648 -0.250865 0.721252)
(-0.341534 -0.697625 0.62982)
(-0.0358286 -0.998574 -0.039563)
(0.209545 -0.809352 -0.548671)
(0.297062 -0.613304 -0.731856)
(0.401721 -0.514963 -0.757254)
(0.252733 -0.966632 -0.0417675)
(-0.000638481 -0.94014 0.340784)
(0.000507509 -0.938099 0.346363)
(0.00114631 -0.939989 0.341198)
(-0.0031559 -0.942619 0.333848)
(-0.05983 -0.933544 0.353413)
(-0.257031 -0.730349 0.632822)
(-0.00469692 -0.541629 0.840523)
(0.65284 -0.74554 -0.133432)
(0.277913 -0.958803 -0.058023)
(-0.146109 -0.951918 0.269032)
(-0.0856148 -0.945251 0.314743)
(-0.0545528 -0.871342 0.487576)
(-0.280358 -0.650691 0.705672)
(-0.249209 -0.58718 0.770117)
(0.289105 -0.648722 0.703948)
(0.356078 -0.854037 0.37919)
(-0.00221566 -0.999605 0.0270923)
(-0.0564333 -0.997977 -0.0284361)
(0.107173 -0.972153 -0.208301)
(0.101674 -0.952081 -0.288382)
(-0.227363 -0.959485 -0.166273)
(-0.546342 -0.68755 -0.478221)
(0.17847 0.0435299 -0.982959)
(0.0322557 -0.965359 0.258916)
(-0.231202 -0.938048 0.258087)
(-0.978191 -0.207705 -0.000839474)
(-0.805886 -0.57758 -0.130191)
(-0.179359 -0.752256 0.633988)
(-0.000107424 -0.982562 0.185924)
(-0.000121622 -0.982511 0.186191)
(-0.000482144 -0.982436 0.186585)
(-0.000371106 -0.982687 0.185266)
(-0.000123451 -0.982786 0.184741)
(-0.000382123 -0.982851 0.184391)
(-0.000765874 -0.982929 0.183975)
(-0.00107474 -0.983037 0.183398)
(-0.00134188 -0.983443 0.181204)
(-0.00208774 -0.984601 0.174797)
(-0.00386408 -0.985735 0.168253)
(-0.00699685 -0.986841 0.161534)
(-0.0110534 -0.986952 0.16063)
(-0.0157544 -0.9872 0.158703)
(-0.0195225 -0.991143 0.131356)
(-0.0281157 -0.999589 0.00561894)
(-0.0359449 -0.948731 -0.314033)
(-0.0208648 -0.904594 -0.425764)
(0.0229635 -0.876426 -0.480988)
(0.12738 -0.884133 -0.449536)
(0.405795 -0.87577 -0.26145)
(0.776129 -0.62863 -0.0493673)
(0.56217 -0.738611 -0.371862)
(-0.371747 -0.825306 -0.424775)
(-0.464769 0.400505 0.78966)
(-0.557366 0.336329 0.759095)
(-0.64812 0.106007 0.754123)
(-0.395703 -0.670286 0.627802)
(0.0256332 -0.964771 0.261841)
(0.274126 -0.954943 -0.113746)
(0.322189 -0.904785 -0.278492)
(0.246859 -0.921136 -0.300946)
(0.013205 -0.98794 0.154269)
(0.000259683 -0.981644 0.190719)
(0.000842702 -0.981535 0.191282)
(0.00150726 -0.981502 0.191443)
(0.00155619 -0.981529 0.191306)
(0.000795703 -0.981086 0.193572)
(-0.000300142 -0.980255 0.197733)
(-0.00335081 -0.973509 0.228613)
(-0.0216456 -0.971866 0.234498)
(-0.0216057 -0.969374 0.244595)
(-0.00506096 -0.972157 0.23425)
(-0.000471302 -0.979869 0.19963)
(-0.00162103 -0.981415 0.191885)
(-0.00165731 -0.978494 0.206264)
(-0.000831186 -0.979994 0.199025)
(-0.000305003 -0.981198 0.193003)
(-0.000510837 -0.981129 0.193351)
(-0.0010755 -0.980714 0.195444)
(-0.000552795 -0.980725 0.195392)
(0.000829942 -0.981001 0.193999)
(-0.000222135 -0.98106 0.193703)
(-0.00691561 -0.980613 0.195833)
(-0.00544714 -0.982422 0.18659)
(-0.0048107 -0.982548 0.185946)
(-0.101254 -0.977255 0.186332)
(-0.684041 -0.720353 0.114799)
(-0.595176 -0.798172 0.0932053)
(-0.0429417 -0.892992 0.448019)
(-0.000181121 -0.975764 0.218768)
(-0.000181169 -0.975824 0.218459)
(-0.0141254 -0.975612 0.218903)
(-0.0294455 -0.976708 0.212368)
(-0.0336761 -0.991721 0.123528)
(-0.0533078 -0.995292 -0.0799618)
(-0.132049 -0.781494 -0.609539)
(-0.311001 -0.367701 -0.876232)
(-0.536569 -0.178876 -0.824544)
(-0.460971 -0.641377 -0.613171)
(-0.0953515 -0.995248 0.018932)
(-0.0416154 -0.992751 0.112722)
(-0.0393228 -0.995088 0.090834)
(-0.0895574 -0.995981 -0.00023371)
(-0.237747 -0.969763 -0.0551015)
(-0.185066 -0.972688 0.140105)
(-0.060863 -0.97902 0.194464)
(0.00579779 -0.976734 0.214377)
(0.0484639 -0.97419 0.220466)
(0.0866958 -0.970404 0.225386)
(0.165656 -0.959434 0.228131)
(0.220818 -0.950878 0.216952)
(0.0425933 -0.978536 0.201604)
(-0.0126771 -0.982731 0.184582)
(-0.0647716 -0.979956 0.18837)
(-0.305393 -0.898273 0.315967)
(-0.360845 0.0799908 0.929188)
(-0.203609 0.185304 0.961356)
(-0.232706 -0.359417 0.903696)
(-0.0448887 -0.882705 0.46778)
(0.155157 -0.966061 0.206525)
(0.366461 -0.921047 0.13183)
(0.484933 -0.861389 0.151159)
(0.0373587 -0.977642 0.206932)
(4.9474e-05 -0.978928 0.204205)
(-0.000870987 -0.979637 0.200773)
(-0.00114132 -0.980119 0.198404)
(0.00130663 -0.97961 0.200903)