/*--------------------------------*- C++ -*----------------------------------*\
| =========                 |                                                 |
| \\      /  F ield         | OpenFOAM: The Open Source CFD Toolbox           |
|  \\    /   O peration     | Version:  2.1.1                                 |
|   \\  /    A nd           | Web:      www.OpenFOAM.org                      |
|    \\/     M anipulation  |                                                 |
\*---------------------------------------------------------------------------*/
FoamFile
{
    version     2.0;
    format      ascii;
    class       volVectorField;
    location    "0.0015";
    object      grad1Alpha;
}
// * * * * * * * * * * * * * * * * * * * * * * * * * * * * * * * * * * * * * //

dimensions      [0 -1 0 0 0 0 0];

internalField   nonuniform List<vector> 
36520
(
(3.55141e-09 -3.32033e-09 -3.78727e-09)
(3.52168e-09 -1.40842e-09 -6.31073e-09)
(-8.78629e-11 -2.05398e-09 -6.16416e-09)
(-1.54564e-10 -2.58029e-09 -6.63509e-09)
(-1.93211e-10 -3.20881e-09 -7.26603e-09)
(-2.0112e-10 -3.81465e-09 -7.80591e-09)
(-2.20245e-10 -4.42142e-09 -8.56961e-09)
(-2.55126e-10 -5.10138e-09 -9.55043e-09)
(-3.1963e-10 -5.90303e-09 -1.09043e-08)
(-4.29021e-10 -6.92576e-09 -1.27816e-08)
(-5.90956e-10 -8.30406e-09 -1.53375e-08)
(-8.28018e-10 -1.01628e-08 -1.87206e-08)
(-1.16371e-09 -1.275e-08 -2.3095e-08)
(-1.61473e-09 -1.62739e-08 -2.84039e-08)
(-2.18638e-09 -2.10111e-08 -3.45396e-08)
(-2.8691e-09 -2.709e-08 -4.09877e-08)
(-3.64394e-09 -3.46924e-08 -4.73234e-08)
(-4.46063e-09 -4.38521e-08 -5.30112e-08)
(-5.23585e-09 -5.4489e-08 -5.76815e-08)
(-5.86596e-09 -6.61185e-08 -6.09241e-08)
(-6.2596e-09 -7.80896e-08 -6.24785e-08)
(-6.37197e-09 -8.97798e-08 -6.20783e-08)
(-6.21971e-09 -1.00765e-07 -5.96734e-08)
(-5.87715e-09 -1.10666e-07 -5.51836e-08)
(-5.39952e-09 -1.18973e-07 -4.89722e-08)
(-4.91547e-09 -1.25158e-07 -4.16331e-08)
(-4.07272e-09 -1.2949e-07 -3.11883e-08)
(-2.9001e-09 -1.32975e-07 -1.79437e-08)
(-2.43283e-09 -1.35367e-07 -3.19654e-09)
(-2.97177e-09 -1.39382e-07 9.24164e-09)
(-3.79648e-09 -1.48125e-07 1.5004e-08)
(-4.08694e-09 -1.61427e-07 2.37269e-08)
(-3.19778e-09 -1.77139e-07 3.43474e-08)
(-8.1633e-10 -1.89904e-07 4.29429e-08)
(3.09467e-09 -1.93845e-07 4.86288e-08)
(8.10555e-09 -1.84191e-07 5.1404e-08)
(1.27722e-08 -1.60461e-07 5.3177e-08)
(1.58051e-08 -1.24121e-07 5.6551e-08)
(1.65882e-08 -7.89554e-08 7.41978e-08)
(1.47936e-08 5.72385e-09 4.88359e-07)
(1.09179e-08 1.44017e-07 1.49243e-06)
(6.29044e-09 2.4036e-07 2.09786e-06)
(2.00306e-09 3.1273e-07 1.8043e-06)
(1.1635e-08 2.97685e-07 3.9044e-07)
(8.66252e-08 1.3048e-06 4.32921e-09)
(6.35601e-07 7.96103e-06 -1.34203e-07)
(2.66924e-06 2.72818e-05 -1.07438e-06)
(5.44618e-06 4.48862e-05 -2.6766e-06)
(5.56565e-06 4.2644e-05 -9.92899e-07)
(9.88445e-06 0.000132775 3.5164e-05)
(-1.40465e-05 -0.00017856 0.00149257)
(0.00989918 -0.0664818 0.027405)
(3.12911 -2.14056 0.0579603)
(70.7847 -23.9573 -6.49775)
(326.53 -57.8266 -148.615)
(421.646 311.57 -691.203)
(227.552 899.512 -1030.6)
(273.167 757.538 -1159.53)
(343.32 348.952 -1329.44)
(134.932 200.954 99.1031)
(2.34841e-09 -1.01335e-08 -9.99103e-09)
(2.38991e-09 -1.21878e-08 -1.34234e-08)
(-2.40575e-10 -1.25258e-08 -1.22107e-08)
(-6.78809e-10 -1.39656e-08 -1.16695e-08)
(-7.50274e-10 -1.55598e-08 -1.11716e-08)
(-8.21612e-10 -1.7044e-08 -1.04736e-08)
(-1.05121e-09 -1.88462e-08 -1.00351e-08)
(-1.36765e-09 -2.11736e-08 -9.83415e-09)
(-1.85974e-09 -2.42921e-08 -1.01604e-08)
(-2.54228e-09 -2.8528e-08 -1.10363e-08)
(-3.42202e-09 -3.43157e-08 -1.24307e-08)
(-4.52565e-09 -4.20324e-08 -1.40802e-08)
(-5.77851e-09 -5.22763e-08 -1.55787e-08)
(-7.06737e-09 -6.52643e-08 -1.6146e-08)
(-8.17915e-09 -8.12013e-08 -1.50145e-08)
(-8.95315e-09 -9.93211e-08 -1.15478e-08)
(-9.36051e-09 -1.1894e-07 -6.17823e-09)
(-9.37785e-09 -1.38789e-07 2.52822e-10)
(-8.98245e-09 -1.57588e-07 7.36917e-09)
(-8.12356e-09 -1.73959e-07 1.65782e-08)
(-6.77858e-09 -1.88416e-07 2.7866e-08)
(-5.00247e-09 -2.02885e-07 4.13953e-08)
(-2.90041e-09 -2.20417e-07 5.44101e-08)
(-7.44441e-10 -2.40461e-07 6.19849e-08)
(1.08831e-09 -2.55662e-07 6.8246e-08)
(3.58833e-09 -2.55503e-07 9.01529e-08)
(7.2479e-09 -2.42833e-07 1.19343e-07)
(1.04734e-08 -2.40921e-07 1.45427e-07)
(1.05579e-08 -2.27539e-07 2.16779e-07)
(5.73942e-09 -2.06816e-07 3.01091e-07)
(3.15294e-09 -2.15638e-07 2.67576e-07)
(5.18915e-09 -2.28655e-07 1.81343e-07)
(6.01555e-09 -2.22355e-07 1.38437e-07)
(6.02511e-09 -2.02841e-07 1.22778e-07)
(7.12844e-09 -1.74948e-07 1.1575e-07)
(1.02367e-08 -1.39498e-07 1.08528e-07)
(1.51561e-08 -9.0574e-08 1.37867e-07)
(2.57396e-08 -1.4635e-08 2.94642e-07)
(2.225e-07 5.28968e-08 6.14485e-07)
(6.91307e-07 -2.31051e-07 9.43085e-07)
(7.78647e-07 -4.72187e-07 1.08215e-06)
(1.54828e-07 -2.4937e-07 1.12401e-06)
(-8.1274e-07 2.12031e-06 1.13945e-05)
(-8.47206e-07 1.91256e-05 9.49239e-05)
(-1.71195e-07 3.77673e-05 0.000185214)
(8.9489e-08 3.87714e-05 0.000167518)
(1.41232e-06 2.221e-05 3.31378e-05)
(5.47557e-06 3.37034e-05 1.14394e-05)
(2.35145e-05 6.94216e-05 2.84845e-05)
(0.000721858 0.000429566 0.000645327)
(0.0130401 0.0028816 0.0102917)
(0.0368567 -0.026492 0.120604)
(0.0231213 -0.155905 0.983783)
(-0.0340847 -1.22762 -6.31706)
(-0.0339011 -14.9335 -147.166)
(0.462228 -68.7707 -685.316)
(3.8796 -102.86 -1023.46)
(130.918 -107.938 -1154.74)
(943.738 -81.8159 -1478.32)
(816.237 -77.608 24.0135)
(1.85672e-09 -2.46054e-08 -7.93375e-09)
(2.39181e-09 -2.37179e-08 -7.19412e-09)
(7.12253e-10 -2.4791e-08 -4.92415e-09)
(2.93762e-10 -2.66943e-08 -2.1637e-09)
(3.29914e-10 -2.86314e-08 9.89178e-10)
(2.9152e-10 -3.05133e-08 4.79638e-09)
(2.6078e-11 -3.29729e-08 9.72169e-09)
(-3.88109e-10 -3.63357e-08 1.3786e-08)
(-9.87468e-10 -4.13902e-08 1.57533e-08)
(-1.63773e-09 -4.76366e-08 1.84174e-08)
(-2.21198e-09 -5.55464e-08 2.20204e-08)
(-2.55743e-09 -6.55788e-08 2.67911e-08)
(-2.45082e-09 -7.82344e-08 3.30296e-08)
(-1.73206e-09 -9.33503e-08 4.07692e-08)
(-4.60255e-10 -1.10297e-07 5.03848e-08)
(8.20406e-10 -1.26645e-07 6.22611e-08)
(1.43853e-09 -1.40531e-07 7.36767e-08)
(1.47927e-09 -1.46805e-07 9.00146e-08)
(2.08805e-09 -1.30585e-07 1.56982e-07)
(3.51468e-09 -7.63955e-08 3.51057e-07)
(5.21766e-09 4.42349e-08 7.7991e-07)
(5.91173e-09 2.74619e-07 1.6624e-06)
(3.21369e-09 7.18016e-07 3.41937e-06)
(4.41857e-10 1.50352e-06 6.50671e-06)
(8.01125e-09 2.84404e-06 1.16345e-05)
(1.97472e-08 4.64885e-06 1.84957e-05)
(2.25969e-08 6.10092e-06 2.40233e-05)
(4.36764e-08 6.82931e-06 2.69544e-05)
(7.19719e-08 8.68847e-06 3.3946e-05)
(2.18054e-08 1.21072e-05 4.63644e-05)
(-5.98484e-08 1.4773e-05 5.58845e-05)
(-6.44344e-08 1.33246e-05 5.05344e-05)
(-2.99197e-08 1.07806e-05 4.12661e-05)
(-1.04711e-08 8.03236e-06 3.13103e-05)
(-2.51936e-09 5.8657e-06 2.34983e-05)
(1.97855e-08 4.16074e-06 1.74572e-05)
(1.02294e-07 2.78748e-06 1.27026e-05)
(2.43253e-07 1.83906e-06 9.69431e-06)
(3.23906e-07 1.26422e-06 8.55152e-06)
(2.39837e-07 1.01913e-06 8.1063e-06)
(1.10694e-07 1.10651e-06 7.77915e-06)
(4.91851e-06 1.61166e-06 7.50796e-06)
(4.45426e-05 -7.30472e-07 1.15886e-05)
(8.25313e-05 -6.76096e-06 5.43883e-05)
(3.46035e-05 1.52908e-05 0.000162706)
(-7.1369e-05 0.000100552 0.000210003)
(-7.11072e-05 0.000131908 0.000178039)
(3.80789e-06 0.000137141 0.000208425)
(0.000310149 0.000613071 0.000377503)
(0.00491167 0.00443148 0.00202066)
(0.0570139 0.0257477 0.0256328)
(0.471553 0.137167 0.316871)
(0.0317883 -0.0477273 1.2331)
(-0.472568 -0.365337 0.492066)
(-0.0841079 -0.176925 0.0277232)
(0.130293 -0.252989 0.00564202)
(1.87534 -0.771409 -0.578386)
(56.4695 1.42034 2.35829)
(909.688 -72.7995 -201.971)
(854.939 -253.415 -181.537)
(2.67347e-09 -3.32661e-08 7.08379e-09)
(3.7277e-09 -3.82051e-08 1.25724e-08)
(2.00842e-09 -4.45444e-08 1.7704e-08)
(1.98399e-09 -5.21571e-08 1.81143e-08)
(2.41231e-09 -5.62988e-08 2.21053e-08)
(3.15483e-09 -5.34287e-08 4.42982e-08)
(3.00355e-09 -5.15109e-08 7.50755e-08)
(1.23266e-09 -4.98008e-08 1.17496e-07)
(4.45538e-12 -4.73176e-08 1.80259e-07)
(5.35708e-12 -4.2178e-08 2.81126e-07)
(6.46392e-12 -4.31372e-08 4.00554e-07)
(7.79742e-12 -5.21522e-08 5.45615e-07)
(9.5591e-12 -6.48859e-08 7.37701e-07)
(1.92788e-10 -6.89919e-08 1.01644e-06)
(1.00463e-09 -5.47445e-08 1.40631e-06)
(1.20723e-09 6.03144e-09 2.01477e-06)
(3.24699e-09 1.4776e-07 2.97124e-06)
(3.01021e-08 4.7854e-07 4.66678e-06)
(1.15386e-07 1.27586e-06 8.13381e-06)
(2.88276e-07 3.31277e-06 1.61963e-05)
(6.15915e-07 8.69429e-06 3.58924e-05)
(1.24661e-06 2.13052e-05 7.97909e-05)
(2.29348e-06 4.89178e-05 0.000173404)
(3.89479e-06 0.000110091 0.000376332)
(5.68868e-06 0.000242583 0.00081004)
(5.8862e-06 0.000478548 0.00157331)
(4.03166e-06 0.000722197 0.00235755)
(4.72821e-06 0.000740769 0.00242905)
(9.22199e-06 0.000489875 0.00165196)
(1.04167e-05 0.000328566 0.00115647)
(1.99309e-06 0.000329983 0.00113444)
(-6.91098e-06 0.000379509 0.00126956)
(-9.09408e-06 0.000391053 0.00130785)
(-8.40583e-06 0.000349987 0.00116852)
(-6.5523e-06 0.000281454 0.000937208)
(-5.10316e-06 0.000215613 0.000714029)
(-3.66324e-06 0.00015615 0.000516856)
(-1.94531e-06 9.21068e-05 0.000313137)
(-5.39218e-07 5.37236e-05 0.000194564)
(3.10714e-07 4.14755e-05 0.00016009)
(5.05906e-07 3.7158e-05 0.000157058)
(2.21452e-06 4.013e-05 0.000176801)
(2.25786e-05 4.82429e-05 0.000208576)
(7.28492e-05 4.74949e-05 0.00015618)
(7.46753e-05 0.000143249 5.26142e-05)
(7.91829e-06 0.000540431 -3.33765e-05)
(1.03901e-06 0.00164005 -5.07451e-05)
(0.000114263 0.00498231 -0.00039826)
(0.00101077 0.0172727 -0.00173669)
(0.013285 0.0493748 -0.00511983)
(0.163816 0.16552 -0.0153866)
(0.598776 0.774421 -0.0830095)
(0.101791 0.357939 -0.714182)
(-0.595615 -0.148271 0.204163)
(-0.260217 -0.0228037 0.184018)
(0.164362 -0.532334 0.00446388)
(4.9343 -2.10606 -0.247444)
(32.2943 3.35888 -2.27815)
(848.64 -13.5459 -15.7756)
(821.061 -15.4474 -68.2917)
(4.14216e-09 -6.45371e-08 2.60483e-08)
(6.72702e-09 -9.60776e-08 4.06728e-08)
(2.58952e-09 -1.09861e-07 1.89625e-07)
(1.77523e-09 -7.26475e-08 5.88356e-07)
(1.23969e-08 5.43777e-08 1.34965e-06)
(2.52406e-08 2.47158e-07 2.40669e-06)
(3.46949e-08 4.27405e-07 3.49588e-06)
(4.95841e-08 6.00865e-07 4.76198e-06)
(7.68352e-08 7.85464e-07 6.30554e-06)
(1.03124e-07 1.08538e-06 8.67055e-06)
(1.23552e-07 1.65405e-06 1.2339e-05)
(1.57764e-07 2.85931e-06 1.86074e-05)
(2.21569e-07 5.09662e-06 2.85796e-05)
(3.1681e-07 9.42242e-06 4.55963e-05)
(4.75891e-07 1.44364e-05 6.56716e-05)
(7.48659e-07 2.43956e-05 0.000102334)
(1.27044e-06 3.53345e-05 0.000144376)
(2.47199e-06 5.40449e-05 0.000213506)
(5.51474e-06 8.94621e-05 0.000339248)
(1.32701e-05 0.000165086 0.000599026)
(3.03991e-05 0.000330885 0.00115682)
(6.5721e-05 0.000683307 0.00232148)
(0.000141702 0.00137368 0.00457202)
(0.000304194 0.00283013 0.00923749)
(0.000571997 0.00631031 0.0201853)
(0.000739604 0.0138057 0.0407381)
(0.000408865 0.0241855 0.0621606)
(-0.000337733 0.0280546 0.06533)
(-0.000608957 0.0197342 0.043844)
(-0.000247444 0.00621431 0.0150073)
(5.46125e-05 0.00217723 0.00630954)
(8.32021e-05 0.00228928 0.00648265)
(-4.81282e-05 0.00258568 0.00755115)
(-0.000176886 0.00295225 0.0085641)
(-0.000217044 0.00314977 0.00902119)
(-0.000200796 0.00302862 0.00906942)
(-0.00019153 0.00319981 0.00982455)
(-0.000153913 0.00306459 0.00940733)
(-7.29345e-05 0.00182731 0.00566341)
(-1.77474e-05 0.00127913 0.00400631)
(8.10594e-06 0.00108589 0.00344993)
(2.96183e-05 0.00106935 0.0034725)
(3.43599e-05 0.00146044 0.00476523)
(1.19267e-05 0.00178049 0.00580933)
(-3.15162e-05 0.001549 0.00486634)
(-4.34945e-05 0.00116774 0.00305017)
(-1.58443e-05 0.00133469 0.00216327)
(4.71629e-06 0.00238874 0.00137586)
(0.000326076 0.00571112 0.000333446)
(0.00567224 0.0153886 -0.00289666)
(0.0530308 0.0450734 -0.0275417)
(0.135068 0.0978573 -0.319997)
(0.129226 0.00758401 -1.03028)
(-0.0494805 0.311549 0.675952)
(-0.175809 -0.0822744 0.732296)
(-0.0844916 -0.791402 0.0296736)
(1.02997 -0.655362 -0.337922)
(47.5352 -2.46279 -4.42725)
(874.289 303.429 559.966)
(827.737 114.916 187.898)
(7.69604e-09 6.81708e-08 6.17831e-07)
(7.97873e-08 6.80431e-07 3.63773e-06)
(2.66736e-07 2.13062e-06 1.04258e-05)
(5.66856e-07 4.62962e-06 2.295e-05)
(8.88726e-07 7.18438e-06 3.72665e-05)
(1.04904e-06 9.26403e-06 5.14619e-05)
(1.15019e-06 9.81437e-06 6.09973e-05)
(1.3681e-06 1.24422e-05 7.80806e-05)
(1.89857e-06 1.53791e-05 9.66524e-05)
(2.92951e-06 1.93111e-05 0.00012077)
(4.82687e-06 3.08742e-05 0.00017237)
(7.89124e-06 6.73896e-05 0.000300376)
(1.31155e-05 0.00014536 0.000539471)
(1.80241e-05 0.000253849 0.000864361)
(2.75724e-05 0.00035737 0.00117626)
(3.82455e-05 0.000439789 0.00154853)
(5.40146e-05 0.000549916 0.00202967)
(9.46871e-05 0.000818174 0.00258703)
(0.000187335 0.00129247 0.0033318)
(0.000397247 0.00200602 0.00496949)
(0.000836813 0.00346795 0.00876376)
(0.00165893 0.00666333 0.0160995)
(0.00335875 0.0122374 0.0247419)
(0.00758215 0.0244388 0.0334048)
(0.015353 0.0648658 0.0483421)
(0.0206495 0.219703 0.0766401)
(0.0123126 0.59846 0.120566)
(-0.00883453 0.901607 0.139896)
(-0.0248117 0.840707 0.112256)
(-0.0185765 0.40291 0.0478755)
(-0.00421659 0.0492928 0.0190349)
(0.000592602 0.00746915 0.0159267)
(0.000999254 0.00707421 0.0176984)
(0.00070988 0.00843124 0.0220074)
(0.000232298 0.0103503 0.0272977)
(0.000371931 0.010868 0.0280795)
(0.000156974 0.0126826 0.0303068)
(-0.00202495 0.0152467 0.0418854)
(-0.00262786 0.0199619 0.0610546)
(-0.0010763 0.0249439 0.076757)
(-0.000258112 0.0247879 0.0757436)
(0.000642658 0.0207269 0.0664824)
(0.00115739 0.0157019 0.0603399)
(0.000119364 0.0176063 0.0742038)
(-0.00125899 0.0219436 0.0875573)
(-0.00127065 0.0238694 0.0839956)
(-0.00070783 0.0218095 0.0719042)
(-0.000476297 0.0203321 0.0644358)
(-0.000231544 0.0195144 0.0600499)
(0.00199901 0.0186892 0.0552916)
(0.0125972 0.0170381 0.0381146)
(0.100623 -0.00380994 -0.0525907)
(0.57714 0.133333 0.150194)
(0.265913 0.408254 1.23964)
(-0.569798 -0.785346 0.845321)
(-0.359537 -0.247631 0.0846782)
(2.56656 -0.0798911 0.0270266)
(310.522 0.225187 4.3336)
(947.441 853.502 1081.47)
(639.491 121.584 183.699)
(1.51488e-06 -1.29954e-07 8.8161e-07)
(4.91334e-06 -8.60724e-07 8.38317e-06)
(9.65909e-06 -3.67807e-06 2.68651e-05)
(1.34038e-05 -1.01347e-05 5.0862e-05)
(1.42274e-05 -2.08463e-05 5.72346e-05)
(1.18367e-05 -4.00659e-05 4.11707e-05)
(1.32853e-05 -6.03863e-05 2.81422e-05)
(1.78116e-05 -8.81938e-05 5.04882e-06)
(2.13279e-05 -0.000102546 5.02358e-06)
(3.78553e-05 -0.000115096 5.58135e-06)
(9.0057e-05 -0.000130638 8.02615e-06)
(0.000184665 -0.000160871 1.66849e-05)
(0.000283978 -0.000213957 3.4531e-05)
(0.000320541 -0.000285413 5.5719e-05)
(0.000341081 -0.000353488 7.37626e-05)
(0.000422093 0.0159923 -0.00303037)
(0.000521757 0.106161 0.000960635)
(0.000674418 0.150108 0.0169048)
(0.00122801 0.0788894 0.0365974)
(0.00276185 0.021757 0.0535385)
(0.00566878 0.0265586 0.0853787)
(0.00829031 0.0454139 0.150748)
(0.00959008 0.0760381 0.22924)
(0.0151491 0.134538 0.286041)
(0.0350495 0.365433 0.26123)
(0.0740205 1.51864 0.023913)
(0.0807524 4.99515 -0.636669)
(0.0138727 8.82647 -1.23821)
(-0.0809072 8.62714 -1.1324)
(-0.103094 4.99551 -0.604705)
(-0.0444818 0.866377 -0.0712115)
(-0.00370116 0.0252095 0.036567)
(0.0028874 -0.00104179 0.0446342)
(0.00461916 -0.000932928 0.0548194)
(0.00285713 0.00250897 0.0846846)
(0.00140425 0.00359467 0.085136)
(0.00672865 0.0268035 0.0480098)
(0.0151674 0.0925382 0.0185339)
(0.0174089 0.10627 0.0938428)
(0.00738511 0.144777 0.417201)
(-0.00512921 0.0899309 0.444073)
(-0.00777126 0.0828517 0.445476)
(0.00377221 0.0513794 0.261754)
(0.0135729 0.0446514 0.217562)
(0.00486202 0.0556475 0.305752)
(-0.00788083 0.0680022 0.39897)
(-0.00980481 0.0734131 0.420249)
(-0.00589384 0.0860264 0.439509)
(-0.00419396 0.106276 0.466696)
(-0.00529358 0.113188 0.466312)
(-0.00265278 0.109903 0.467305)
(0.189182 0.0953433 0.411072)
(0.769184 -0.0167974 0.0239919)
(0.283533 -0.822941 -0.833984)
(-0.74666 -0.996591 -0.489583)
(-0.477327 -0.0147168 0.0515288)
(3.05736 0.00462086 0.156572)
(616.028 -1.31821 0.121138)
(968.434 521.353 351.747)
(355.5 43.9978 35.1549)
(3.83294e-06 -4.3512e-07 -4.59306e-07)
(1.33493e-05 -5.29981e-06 -2.59293e-06)
(2.17761e-05 -3.00095e-05 -7.25565e-06)
(1.52364e-05 -9.40858e-05 -1.65057e-05)
(-5.82121e-06 -0.000128377 -2.84543e-05)
(-1.56544e-05 -0.000100454 -4.18027e-05)
(-1.98217e-05 -9.58182e-05 -5.08712e-05)
(-1.64015e-05 0.00829661 -0.00216332)
(-1.13497e-05 0.0299356 -0.00571293)
(-2.50717e-05 0.0685232 -0.0135021)
(-5.22555e-05 0.14284 -0.0219159)
(-0.000119182 0.325657 -0.0327536)
(-0.000312412 0.853725 -0.0688092)
(-0.000870964 2.38674 -0.413748)
(-0.00208065 5.71209 -1.41544)
(0.00752098 8.80375 -2.27221)
(0.0194349 10.032 -2.59904)
(0.0119255 9.95115 -2.54646)
(0.00344318 8.04396 -1.96823)
(0.0186672 3.60794 -0.534476)
(0.0518959 0.674525 1.25826)
(0.0787563 0.528228 4.42615)
(0.0795354 1.13313 10.594)
(0.0496644 1.75967 14.8715)
(0.0109253 2.6812 13.9709)
(0.00015933 6.46011 9.10968)
(0.0594211 18.5753 1.62796)
(0.075636 32.5371 -4.18565)
(-0.0749252 31.4005 -5.0542)
(-0.222716 18.7795 -2.60811)
(-0.153185 4.28464 0.597673)
(-0.0226926 0.307159 1.123)
(0.00827592 0.00814147 0.673169)
(0.0212696 -0.0342921 0.280182)
(0.0158833 -0.0396891 0.176124)
(-0.0157766 -0.00136306 0.189921)
(-0.0253734 0.0266134 0.23439)
(0.0280052 0.0421335 0.267349)
(0.204995 0.053786 0.249807)
(0.176266 0.0476668 0.230933)
(0.00847328 0.0294901 0.223614)
(-0.0964831 0.0837829 0.257148)
(-0.118722 0.119896 0.310971)
(0.0235472 0.100371 0.39014)
(0.0939251 0.0895611 0.51806)
(0.0592523 0.0959458 0.704479)
(0.0214038 0.0979422 0.919108)
(0.0248933 0.10172 1.14158)
(0.0145193 0.0991459 1.38824)
(0.00229279 0.0274701 1.47685)
(-0.0167757 -0.0608137 1.40969)
(-0.151347 -0.188787 1.08188)
(-0.146722 -0.362588 -0.0582575)
(-0.0237458 -0.39446 -1.17858)
(-0.034005 -0.18642 -0.392112)
(0.0161495 1.95185 1.72531)
(2.33952 3.90457 2.8728)
(499.178 29.8322 13.6391)
(966.4 179.807 -207.581)
(469.535 18.5968 -8.02814)
(-0.00570484 7.18743 3.04585)
(-0.00669287 8.43237 3.57126)
(-0.00789679 9.94937 4.21118)
(-0.00827744 10.4291 4.41155)
(-0.00712725 8.97999 3.7963)
(-0.00705696 8.89139 3.75666)
(-0.00829272 10.4485 4.41194)
(-0.0125557 17.0433 7.22634)
(-0.0196337 27.2308 11.5847)
(-0.0153756 27.3963 11.721)
(0.00520864 23.277 10.0609)
(0.0491145 25.0481 10.9347)
(0.0403997 44.1148 19.2649)
(-0.119662 88.5992 38.4461)
(-0.175125 93.2363 40.2634)
(-0.0780023 64.2346 27.2144)
(0.00490246 20.5937 8.62327)
(0.064381 4.47724 1.84081)
(0.186738 4.23601 1.79378)
(0.662187 7.20098 3.15182)
(2.1097 20.2856 9.10691)
(4.77133 83.2187 38.0073)
(5.24606 333.271 151.363)
(1.56683 483.79 230.092)
(-2.57185 390.841 195.462)
(-4.20624 210.6 113.185)
(-3.23248 165.584 81.2967)
(-1.73933 174.33 78.6246)
(-1.28192 170.236 75.5109)
(-1.07471 148.794 66.0147)
(-0.794937 120.516 53.8498)
(-0.631431 97.402 43.8433)
(-0.533354 80.2767 36.266)
(-0.30855 65.3609 29.2934)
(-0.0798826 46.6208 20.4115)
(0.0188327 24.6926 10.5052)
(0.0467996 9.3376 3.99058)
(0.0210809 4.85966 2.16773)
(-0.0132696 4.69787 2.08881)
(-0.0150848 4.80211 1.90842)
(0.00680834 5.27991 2.18828)
(0.0379779 6.84605 2.95522)
(0.0672577 9.9545 4.58463)
(0.101527 15.401 7.06021)
(0.142316 25.2784 11.2094)
(0.166653 43.3213 18.662)
(0.164275 72.228 30.5726)
(0.160627 98.4349 41.3245)
(0.0783089 103.965 43.539)
(-0.0871992 103.697 43.3579)
(-0.293678 104.596 43.6072)
(-0.663452 105.1 43.5971)
(-0.523958 98.294 40.5032)
(0.0742577 89.363 36.8368)
(1.01843 100.901 42.1217)
(1.62063 188.409 79.9078)
(12.9494 188.379 81.8494)
(499.827 330.843 165.792)
(952.806 717.92 383.774)
(465.46 -114.899 -37.0511)
(-0.00898975 12.968 3.03959)
(-0.0129082 18.6188 4.37539)
(-0.0199665 28.7973 6.78477)
(-0.0270113 38.9544 9.20146)
(-0.0323267 46.616 11.0394)
(-0.0329183 47.4648 11.2693)
(-0.00988032 44.3635 10.5599)
(0.0304046 44.8573 10.6992)
(0.0509776 49.9701 11.9373)
(0.0560149 56.9722 13.6335)
(0.0925506 59.6328 14.2919)
(0.235575 63.7045 15.307)
(0.435232 88.8808 21.5342)
(0.111175 169.185 41.5945)
(-0.74801 226.881 55.8374)
(-0.804879 202.397 49.4775)
(-0.221318 116.272 28.3825)
(0.0222911 34.1588 8.32626)
(0.121227 7.63734 1.74674)
(0.432306 7.01957 1.31846)
(2.07737 10.8781 1.40523)
(7.38783 30.6998 6.34555)
(15.4836 157.718 50.06)
(12.0968 628.995 201.858)
(-2.30002 763.113 252.807)
(-12.8876 557.436 194.16)
(-12.1414 288.919 102.065)
(-4.84927 252.511 72.9773)
(-1.49028 260.504 69.0418)
(-1.03961 259.279 66.8961)
(-0.841356 250.911 63.7191)
(-0.717972 238.204 60.3512)
(-0.904605 221.575 56.6053)
(-1.25599 201.132 51.8012)
(-1.25222 174.845 45.0403)
(-0.683631 139.807 35.8891)
(-0.156684 96.5573 24.7717)
(0.0114503 55.5553 14.2624)
(0.0773928 26.3368 6.80478)
(0.108248 15.7094 4.07908)
(0.124239 15.4927 4.00114)
(0.164334 16.9892 4.35841)
(0.204197 21.344 5.44035)
(0.20124 32.1025 8.17338)
(0.140597 58.8418 15.0649)
(0.0203218 119.131 30.7387)
(-0.0970547 190.567 49.3905)
(-0.128872 202.803 52.5655)
(-0.154677 193.978 50.2062)
(-0.214459 189.784 49.2686)
(-0.349097 198.562 51.8912)
(-0.659062 219.52 57.9196)
(-0.517743 215.736 57.7099)
(0.144799 175.109 46.9457)
(1.44431 176.726 47.0401)
(2.42543 272.527 71.0891)
(20.2057 271.891 71.066)
(615.989 492.482 144.189)
(957.414 743.717 427.667)
(360.604 11.7778 20.5776)
(-0.00338147 13.812 2.65625)
(-0.0035351 14.4297 2.79122)
(-0.00492417 20.1669 3.92398)
(-0.00670806 27.3466 5.35218)
(-0.00817216 33.2154 6.53693)
(-0.00984015 40.0675 7.9272)
(-0.0121613 49.4881 9.8453)
(-0.0126633 51.5069 10.26)
(-0.0118627 48.2373 9.57414)
(-0.00590985 39.832 7.83347)
(0.0237476 35.5368 6.9)
(0.153128 39.5824 7.59589)
(0.477779 75.3644 14.5774)
(0.29599 200.965 39.9442)
(-0.475869 295.022 59.8543)
(-0.573487 249.557 51.8114)
(-0.151485 119.763 25.1588)
(-0.000403549 21.8717 4.63132)
(0.00678766 0.432838 0.0450079)
(0.117671 -0.0401727 -0.202706)
(1.99071 0.269757 -0.902992)
(12.4965 6.67351 -3.65902)
(32.8727 82.1945 -1.96189)
(31.3636 669.507 100.31)
(2.21054 1242.31 233.197)
(-23.8178 1037.81 376.87)
(-29.2877 433.816 401.428)
(-16.4301 245.289 309.547)
(-5.77321 313.738 169.806)
(-2.8947 337.697 82.3231)
(-1.68846 299.636 62.3108)
(-0.681507 244.682 50.7839)
(-0.314154 211.08 44.1122)
(-0.420769 196.122 42.0784)
(-0.506831 183.738 40.8765)
(-0.312229 160.188 36.6997)
(-0.0749853 117.478 27.3485)
(0.00975262 63.478 15.1911)
(0.0139024 21.061 5.19421)
(-0.01028 4.82182 0.858813)
(-0.00497948 3.09956 0.297595)
(0.0163707 3.59096 0.273492)
(0.0280296 6.55762 0.767347)
(0.0369135 15.513 2.99421)
(0.0459442 34.5344 8.42302)
(0.0432172 70.2157 17.0111)
(0.0362402 118.919 28.8529)
(0.0426398 146.537 34.8823)
(0.0661661 147.6 34.7717)
(0.0678329 145.627 34.6269)
(-0.0027963 146.073 34.9937)
(-0.155233 147.807 35.6936)
(-0.223157 142.363 35.263)
(-0.169556 117.366 29.444)
(0.137722 126.142 31.2023)
(1.216 239.464 56.8473)
(23.2797 291.036 67.0443)
(678.92 644.273 121.701)
(958.326 753.251 247.718)
(301.814 64.1037 -70.4124)
(5.01334e-05 -4.23847e-05 3.95713e-05)
(0.000444895 -0.000292706 0.000201067)
(0.00109095 -0.00127336 0.00127692)
(0.000726841 0.00937165 0.00901526)
(-0.00090952 0.0412379 0.0259755)
(-0.00104454 0.0802874 0.0468213)
(-6.98662e-05 0.0773022 0.0487367)
(0.000137847 0.0500841 0.0405615)
(0.000341592 0.0504058 0.0498997)
(0.00170774 0.113996 0.0955583)
(0.00715109 0.326151 0.203561)
(0.0198386 1.15145 0.535335)
(0.0392325 4.54948 1.82877)
(0.0214283 13.3149 5.14836)
(-0.0337996 16.9634 7.00214)
(-0.0380861 13.5278 6.40995)
(-0.0025941 4.64445 2.57381)
(0.0147871 -0.0210519 0.796707)
(0.02085 -0.032162 1.47546)
(0.0120744 -0.0373078 1.54875)
(0.000752129 0.105035 0.63344)
(0.01285 1.59047 -4.67019)
(0.490915 9.45625 -30.6603)
(7.54761 25.8592 -84.4027)
(91.4795 34.2665 -101.045)
(149.271 41.6751 -20.9452)
(35.2849 677.055 651.187)
(-105.301 1066.28 1119.41)
(-121.059 857.924 820.444)
(-51.5261 302.251 249.981)
(-6.25038 41.9518 24.0435)
(-0.0164371 13.9231 4.40952)
(0.0965636 14.5484 5.12388)
(0.0562365 14.1102 5.29525)
(-0.0169394 11.9843 4.90617)
(0.0532011 7.96964 3.51209)
(0.22152 3.3676 1.45582)
(0.133666 0.588851 0.4541)
(-0.219964 0.256854 0.271639)
(-0.22754 0.440836 0.2477)
(-0.0275062 0.555805 0.0471034)
(0.00658734 0.368661 0.309483)
(0.17692 0.488404 0.452208)
(0.682202 0.66762 0.383896)
(0.517184 0.616478 0.33099)
(0.00640425 0.634392 1.11497)
(-0.376031 0.542225 0.869377)
(-0.609118 0.989363 0.22392)
(-0.177185 1.2444 -0.00361372)
(0.050412 1.17826 -0.0499203)
(-0.0987747 1.22105 -0.221793)
(-0.0947055 1.27515 -0.418979)
(0.097608 1.02636 -0.24172)
(0.120675 0.803403 0.482511)
(-0.122383 1.3007 1.06235)
(-0.158719 10.555 4.35688)
(4.90875 24.7153 8.30653)
(693.73 151.391 23.5076)
(938.036 476.022 240.724)
(249.187 118.792 -185.317)
(0.000107679 -0.000181171 -2.36055e-05)
(0.000763633 -0.000766102 -7.63621e-05)
(0.00197246 -0.00182356 -0.000283132)
(0.00214826 0.0114481 0.00415529)
(0.00189823 0.0414341 -0.0126869)
(0.00298305 0.0789187 -0.0274718)
(0.0048532 0.0765701 -0.0141769)
(0.00803031 0.051835 0.0217156)
(0.0130343 0.0556525 0.0546382)
(0.0154609 0.123877 0.0711681)
(0.00810942 0.346992 0.0423212)
(-0.0093714 1.19617 -0.231297)
(-0.0164201 4.62797 -1.61083)
(-0.00560575 13.4951 -5.0269)
(0.0183906 18.0677 -3.9687)
(0.141033 17.1258 5.13866)
(0.434369 13.1417 26.071)
(0.709039 14.0032 47.7009)
(0.448534 13.8076 48.3877)
(-0.339453 8.72672 31.8335)
(-0.835238 2.1007 8.46003)
(-0.4959 0.238066 0.511148)
(-0.000182515 -0.0113172 -0.0288169)
(1.11606 0.647758 -1.28571)
(18.7824 7.11975 -18.4212)
(185.609 72.1182 -207.344)
(312.713 638.755 -576.672)
(39.2088 1092.78 43.2955)
(-270.555 1045 708.42)
(-221.699 457.713 546.189)
(-60.8443 77.9959 114.693)
(-4.09826 15.6747 0.677293)
(0.0100308 14.77 -5.35387)
(-0.00785105 14.5122 -5.35816)
(-0.0152956 12.5426 -4.55273)
(0.0283185 8.45828 -2.99567)
(0.232569 3.62885 -1.37378)
(0.230055 0.653697 -0.566406)
(0.00185129 0.213483 -0.331291)
(-0.212807 0.243024 0.0434948)
(-0.161234 0.556258 0.0336625)
(0.0626361 0.408082 -0.115333)
(0.0432689 0.477721 -0.159068)
(0.0520903 0.832009 -0.465567)
(0.537007 1.24635 -1.35167)
(0.387498 0.913013 -1.19746)
(-0.45304 1.01657 -1.10312)
(-0.435375 1.04423 -0.463634)
(0.00234918 1.05984 -0.0287249)
(0.0636659 1.12588 0.0320805)
(-0.135319 1.22747 0.263007)
(-0.136732 1.28036 0.387818)
(0.260538 1.09949 0.190534)
(0.331365 0.41701 0.290049)
(-0.216136 -0.0527168 1.19041)
(-0.350679 10.4952 -2.81489)
(6.41297 26.0192 -7.1587)
(767.483 162.964 0.658647)
(866.647 621.127 140.007)
(105.613 442.956 -373.315)
(0.00128961 11.7956 -2.23201)
(0.00131993 10.663 -2.02069)
(0.00601194 12.2502 -2.32657)
(0.00549741 14.5571 -2.74445)
(0.0022197 17.671 -3.32173)
(0.00773618 19.8981 -3.73305)
(0.0160276 20.57 -3.85009)
(0.0250555 22.9177 -4.27558)
(0.0357274 26.184 -4.82453)
(0.0536218 25.2886 -4.48952)
(0.0896264 22.8639 -3.90259)
(0.173117 24.4165 -3.99669)
(0.458294 40.9208 -6.66002)
(1.52088 95.3008 -15.3206)
(4.26892 216.73 -28.7233)
(9.90756 352.24 -1.98003)
(14.7417 389.093 128.791)
(8.19233 355.178 167.171)
(-6.53209 249.304 136.82)
(-16.3554 113.521 57.7195)
(-12.7784 27.5778 8.23299)
(-3.44598 2.79109 0.219189)
(-0.222124 0.291839 0.14693)
(0.0839251 0.18632 0.0958966)
(1.11103 -0.957406 -1.88768)
(26.4758 -15.9762 -36.0583)
(322.721 -52.7846 -375.504)
(468.191 793.075 -742.808)
(-36.8696 1387.68 -376.62)
(-439.22 1530.06 182.249)
(-283.77 796.897 245.284)
(-54.5986 203.731 66.5614)
(-2.29908 172.008 -26.8593)
(-0.0543226 205.348 -39.8962)
(-0.188782 219.884 -42.851)
(-0.324985 211.625 -41.2776)
(-0.279896 176.538 -34.4082)
(-0.0909103 112.091 -22.1159)
(0.01443 47.1278 -9.50644)
(0.0375164 10.8996 -2.5596)
(0.0612486 2.75 -0.663537)
(0.0589556 2.64514 -0.667429)
(0.0230862 4.43462 -1.06856)
(0.00531256 11.0452 -2.25025)
(0.0424348 25.6912 -5.02311)
(0.0868585 51.2824 -10.8102)
(0.0721929 85.1176 -17.2864)
(0.0348248 112.032 -22.0368)
(0.064566 124.008 -24.4381)
(0.138915 126.672 -25.2441)
(0.0722511 128.182 -25.5379)
(-0.108336 128.054 -25.3236)
(0.0269801 119.158 -23.5268)
(0.65262 92.5395 -18.4806)
(0.548838 98.9859 -18.8003)
(0.934563 190.877 -36.1234)
(31.2337 301.453 -57.4777)
(776.249 817.456 -130.274)
(774.901 1039.2 -121.351)
(29.0667 604.455 -303.258)
(0.000400147 2.15574 -0.483319)
(0.000232389 1.25171 -0.280221)
(0.0121688 0.840473 -0.188582)
(0.0217357 0.720974 -0.156763)
(0.0188468 0.555015 -0.0691322)
(0.0184113 0.343751 0.0276169)
(0.0245482 0.145281 0.113314)
(0.0578335 0.0683773 0.162943)
(0.130202 0.0434053 0.20008)
(0.154966 0.215614 0.206131)
(0.165853 1.73111 -0.03293)
(0.329086 7.85048 -0.891384)
(1.06264 26.8907 -2.45465)
(5.4887 61.0406 0.0143234)
(29.5986 120.732 6.85994)
(90.1835 473.995 -68.274)
(79.9672 1286.32 -255.503)
(-9.07573 1528.96 -335.58)
(-73.0958 1469.33 -332.519)
(-80.1206 896.807 -208.293)
(-36.9838 214.201 -50.9319)
(-6.4724 27.8712 -6.35907)
(-0.2646 6.07891 -1.25241)
(0.0774632 6.00497 -1.12789)
(0.518491 7.84446 -1.50788)
(3.0108 8.85588 -3.11505)
(17.6772 -3.91862 -45.5194)
(120.194 -109.388 -567.504)
(241.788 373.445 -938.967)
(66.2872 1303.49 -690.77)
(-209.353 1303.5 -278.664)
(-186.039 467.583 -66.9255)
(-50.1852 89.1443 -15.6433)
(-3.07224 80.3977 -17.0173)
(-0.00423609 83.8184 -17.4846)
(0.0720591 81.048 -16.6105)
(0.0772243 66.3172 -13.4245)
(-0.0511232 38.3282 -7.86052)
(-0.200643 12.851 -2.73961)
(-0.155332 2.02651 -0.198488)
(-0.0196322 0.569846 1.49925)
(0.0184324 0.623529 1.47612)
(0.0697225 0.905799 0.918691)
(0.164467 1.86761 -0.529562)
(0.258707 4.22547 -1.17141)
(0.195419 7.07845 -1.22676)
(0.0195588 8.14045 -1.3007)
(-0.100858 8.43176 -1.39322)
(-0.123737 8.93361 -1.55548)
(-0.0621113 9.55453 -2.28497)
(-0.0229106 10.8695 -2.88384)
(6.045e-05 14.9124 -3.68646)
(0.157767 21.3634 -4.67335)
(0.753925 28.3973 -5.44903)
(0.901265 44.9292 -7.91753)
(0.506048 103.65 -19.2923)
(18.6647 141.232 -28.58)
(735.179 497.879 -125.784)
(731.831 915.878 -298.552)
(14.9299 500.201 -420.825)
(0.000327989 1.23944 -0.475327)
(0.000257625 0.973581 -0.373506)
(0.00610093 1.08779 -0.417536)
(0.0318256 1.07811 -0.432862)
(0.0532309 0.951838 -0.396773)
(0.0541998 0.866209 -0.375505)
(0.0525333 1.32679 -0.564208)