/*--------------------------------*- C++ -*----------------------------------*\
| =========                 |                                                 |
| \\      /  F ield         | OpenFOAM: The Open Source CFD Toolbox           |
|  \\    /   O peration     | Version:  2.1.1                                 |
|   \\  /    A nd           | Web:      www.OpenFOAM.org                      |
|    \\/     M anipulation  |                                                 |
\*---------------------------------------------------------------------------*/
FoamFile
{
    version     2.0;
    format      ascii;
    class       volScalarField;
    location    "0.0015";
    object      k;
}
// * * * * * * * * * * * * * * * * * * * * * * * * * * * * * * * * * * * * * //

dimensions      [0 2 -2 0 0 0 0];

internalField   nonuniform List<scalar> 
36520
(
0.179208
0.271571
0.524019
0.658363
0.773252
0.860021
0.939351
1.01146
1.08025
1.14568
1.20698
1.26465
1.31688
1.36473
1.40591
1.4437
1.4778
1.51001
1.53759
1.55789
1.5665
1.55931
1.53274
1.48441
1.41309
1.31977
1.20851
1.09334
0.99117
0.908497
0.843691
0.790191
0.74169
0.695577
0.651514
0.610594
0.574479
0.546588
0.530805
0.530521
0.548088
0.586192
0.647829
0.735236
0.850936
0.998526
1.18549
1.43223
1.79071
2.34106
3.14332
4.5244
5.9278
6.634
6.39683
5.43876
4.27288
3.0659
0.793507
0.496882
0.132356
0.196638
0.243002
0.247034
0.253455
0.258019
0.267309
0.275185
0.283959
0.290305
0.294972
0.296817
0.297332
0.295828
0.294672
0.293967
0.295047
0.296068
0.295075
0.288727
0.274746
0.253759
0.227488
0.20029
0.176258
0.163119
0.169212
0.160801
0.11861
0.0790669
0.060716
0.0530904
0.0483607
0.045015
0.0429564
0.0423143
0.0428819
0.0451354
0.0500299
0.0586426
0.0721635
0.0925216
0.121761
0.162422
0.219554
0.302248
0.425961
0.621734
0.945175
1.47132
2.17401
3.28869
6.27986
9.98999
10.5608
7.75709
5.48354
5.15816
0.796001
0.442897
0.0693837
0.0681064
0.0750696
0.0675047
0.0636338
0.0607379
0.0609839
0.0609361
0.0620212
0.0623055
0.0626252
0.0625432
0.063269
0.0654658
0.071013
0.0813863
0.0987677
0.124848
0.16275
0.21599
0.288667
0.383804
0.501719
0.638822
0.787128
0.93232
1.0641
0.976439
0.625408
0.275858
0.100221
0.0432837
0.0248102
0.0170366
0.0128213
0.0103862
0.00955046
0.0102065
0.0123795
0.0163755
0.0226703
0.0323089
0.046926
0.0691544
0.103864
0.159933
0.252984
0.40844
0.662572
1.05893
1.70505
2.62488
3.76107
4.42268
4.84891
5.01167
3.15474
3.70317
1.01887
0.404783
0.0365154
0.023752
0.0218339
0.0178431
0.0162277
0.0155579
0.0164968
0.0182412
0.0218158
0.0276578
0.0379465
0.0558208
0.0871786
0.140875
0.229152
0.364933
0.563211
0.844928
1.23965
1.77984
2.49599
3.39639
4.44196
5.54162
6.52052
7.09325
7.04524
6.02032
4.03681
2.07748
0.92235
0.471814
0.303731
0.221123
0.163904
0.113968
0.0753682
0.0487893
0.0333588
0.0263971
0.0249422
0.0281018
0.034561
0.0466005
0.0679711
0.104041
0.165574
0.271696
0.446467
0.701056
1.04126
1.72848
1.96035
1.96377
2.14999
2.50231
1.35701
1.60705
0.757586
0.380931
0.0235353
0.00958315
0.00860113
0.0088431
0.0114774
0.0168105
0.0265248
0.0435931
0.0736577
0.126581
0.219373
0.378443
0.637526
1.03444
1.59635
2.31122
3.1623
4.19326
5.49056
7.18009
9.36916
12.131
15.4357
19.1514
22.9883
25.8853
25.6963
22.2073
16.2555
9.90237
5.47734
3.43093
2.58385
2.14534
1.83197
1.51458
1.22433
0.966711
0.765956
0.639856
0.52443
0.398104
0.269457
0.163962
0.145589
0.1517
0.157777
0.178112
0.262728
0.395127
0.56167
0.812598
0.772264
0.869049
1.21004
1.86634
1.0261
0.843649
0.496992
0.37312
0.0227492
0.0107365
0.0168189
0.0287649
0.0496165
0.087352
0.151953
0.263791
0.452785
0.765152
1.26631
2.03645
3.14148
4.58685
6.28249
7.97422
9.4969
10.9893
12.6788
14.8828
17.8577
21.5709
26.0756
31.0598
36.5258
42.1009
44.7344
42.1598
35.8816
26.7899
18.1455
13.0633
10.5765
9.22504
8.40999
7.75546
7.20491
6.61947
6.02372
5.65113
5.31909
4.89337
4.28072
3.42902
2.86763
2.46901
2.07857
1.54439
1.00656
0.617614
0.530569
0.581
0.707263
0.788857
1.05514
1.83614
1.27312
0.644014
0.442444
0.374024
0.0422545
0.0435296
0.0856898
0.158855
0.270891
0.460166
0.752228
1.20598
1.88632
2.89636
4.31577
6.28199
8.85179
11.8426
14.7433
17.139
19.0801
20.6796
21.8541
23.3949
25.8474
28.7713
31.6795
34.261
36.9917
40.4627
43.8776
44.7467
42.3058
37.0629
30.8132
25.3084
21.4106
18.6545
16.6728
15.3325
14.5741
14.2012
13.9115
13.7906
13.9073
13.9113
13.9767
13.2814
11.7331
10.0572
8.48262
6.87561
5.20036
3.69838
2.70481
2.04376
1.71942
1.51794
1.63743
2.22576
1.72614
0.871261
0.56083
0.393207
0.117014
0.181183
0.382547
0.728057
1.16245
1.83764
2.66684
3.72366
4.97682
6.79725
8.8369
11.0995
13.4742
15.4958
17.1029
18.6233
20.4131
22.2391
23.7457
24.9819
26.174
27.3293
28.2339
28.9508
29.5245
30.4966
32.3191
34.2296
34.8439
33.5722
31.3844
29.6823
28.2007
26.1832
23.6037
21.1272
19.3126
18.2293
17.5437
17.1624
17.2108
17.4756
17.8169
18.1307
17.9107
16.7724
14.696
12.0927
9.42193
7.11256
5.33281
4.03019
3.01051
2.37324
2.09818
2.45612
2.22047
1.29769
0.731728
0.410109
0.236883
0.689954
1.78307
3.07608
4.08957
5.95487
7.21778
8.39748
9.39382
10.2376
11.0497
11.9447
13.085
14.3217
15.0981
15.051
14.8205
15.0735
15.4509
15.6004
15.6992
16.0605
16.7581
17.5842
18.4485
19.1613
19.7357
20.4092
21.2383
21.7837
21.8656
21.8719
22.1499
22.6228
22.7228
21.7696
20.0994
18.6805
17.8025
17.1541
16.5973
16.1789
15.8422
15.5723
15.3311
14.9598
14.2895
13.209
11.641
9.73013
7.7198
5.88783
4.24889
3.0899
2.32792
1.98256
1.66577
1.05491
0.674426
0.378314
0.176517
0.49016
1.50285
2.33876
2.94222
3.51745
3.98733
4.39158
4.80242
5.20471
5.6157
6.06499
6.62437
7.43073
8.35902
8.91371
8.85674
8.60353
8.53364
8.70991
9.05418
9.51381
10.0716
10.6941
11.3952
12.1323
12.7702
13.2211
13.5639
13.8149
14.0158
14.4266
15.095
15.8877
16.5687
16.9668
16.9547
16.2283
14.9502
13.6821
12.6914
11.9952
11.5391
11.2427
11.0666
10.9811
10.818
10.4466
9.77246
8.78703
7.51775
6.11313
4.70895
3.46169
2.49489
1.90063
1.36897
0.817805
0.540283
0.34736
0.11511
0.279853
1.69747
2.82954
3.47985
4.17905
4.84361
5.41347
5.82422
6.04567
6.18114
6.45716
7.02816
7.92499
8.80744
9.20758
8.8071
8.17272
7.89423
7.93726
8.07045
8.15071
8.32949
8.8348
9.66135
10.4787
11.2125
11.976
12.6433
13.1308
13.6671
14.2324
14.8837
15.6772
16.5411
17.3704
17.9762
17.9139
16.9504
15.6318
14.4517
13.5413
12.9889
12.75
12.6908
12.7036
12.6553
12.455
11.9433
11.0109
9.61922
7.96744
6.191
4.39472
3.07716
2.43116
1.84737
1.14422
0.721972
0.40098
0.158999
0.404917
0.912943
1.47818
2.06361
3.19419
4.18669
4.97758
5.5947
6.25216
7.02588
7.98319
9.11474
10.2297
10.7479
10.2619
9.21657
8.40265
8.10947
8.15029
8.3552
8.55574
8.82511
9.2992
9.63804
10.0295
10.7552
11.7799
13.1415
14.7078
15.4504
15.7656
16.7102
17.8988
19.0381
19.9538
20.2447
19.6528
18.3645
17.026
15.8783
15.0371
14.6264
14.5586
14.6839
14.854
14.8999
14.632
13.8876
12.5887
10.7316
8.56166
5.96427
3.61656
2.37103
2.16704
2.55325
1.81994
0.953656
0.500072
0.169096
0.408819
0.801285
1.19591
1.5747
2.32394
3.12827
3.94391
4.67648
5.40073
6.23454
7.31295
8.62081
9.77553
10.1635
9.6756
8.80836
8.04745
7.66361
7.60701
7.69663
7.72127
7.71454
7.85941
7.95338
7.93322
8.34657
9.25456
10.7219
12.8814
15.3985
17.0237
17.8931
18.7694
19.6225
20.3695
20.654
20.2128
19.0117
17.533
16.2548
15.3103
14.8325
14.7155
14.8043
15.0031
15.1752
15.1188
14.4099
12.3378
9.46449
6.6011
4.03563
2.25451
1.71664
1.98249
2.49775
1.83897
1.0211
0.512645
0.135222
0.358764
1.98814
3.45471
3.27443
3.44247
3.76065
4.24332
4.76676
5.2445
5.65314
6.06335
6.45657
6.73257
6.69584
6.37741
6.13849
6.31892
6.90907
7.60518
8.15055
8.40621
8.39031
8.17386
7.85337
7.38385
7.0733
7.31785
8.1793
9.73746
12.0844
14.6237
16.2963
17.329
18.1456
18.7963
19.283
19.5409
19.0219
17.6021
16.0248
14.7107
13.7508
13.1854
12.8685
12.6487
12.4177
12.0214
11.329
10.1137
8.3544
6.38938
4.46496
2.80965
1.82712
1.57098
1.42083
1.0865
0.871067
0.442472
0.154607
0.286398
0.851739
2.04254
2.4892
2.89892
3.19102
3.42768
3.61824
3.75057
3.80131
3.77026
3.65542
3.55375
3.76114
4.39469
5.60204
7.34495
9.39116
11.5771
13.3348
14.2122
14.3178
13.8739
13.2254
12.4881
11.4679
10.4119
9.77151
10.0063
11.2656
13.5968
16.216
18.1545
19.3339
20.2569
20.8161
20.4625
19.1028
17.4576
15.9481
14.7053
13.7919
13.1668
12.6516
12.0718
11.1474
9.85037
8.46782
7.04248
5.58218
4.27273
3.17988
2.28796
1.66075
1.46827
1.37653
1.04721
0.802022
0.437931
0.195549
0.443986
1.13615
2.21229
3.38998
4.46396
5.42818
6.38746
7.40599
8.43167
9.39623
10.2523
11.0366
11.9893
13.7637
16.6721
20.2601
23.679
26.1529
26.8238
26.2913
25.8492
25.5893
25.1219
24.388
23.4171
22.024
19.9531
18.202
17.848
18.9206
21.0078
22.5385
23.0441
23.042
22.7489
22.0937
20.9419
19.3222
17.4683
15.8586
14.7607
14.0177
13.2439
12.2721
10.9448
9.38257
7.89127
6.61052
5.42843
4.37388
3.45675
2.63202
2.01362
1.63582
1.49217
1.39039
1.071
0.786351
0.439171
0.13165
0.203234
0.418103
0.801951
1.32494
2.04015
2.93501
4.12807
5.8619
8.14275
10.7426
13.9819
18.1158
23.0695
27.3425
29.0421
27.845
25.5196
24.5381
25.0019
26.6354
28.9956
31.2943
32.9942
33.9466
34.0892
33.7416
33.7441
34.1412
34.529
34.3305
32.3147
29.6852
27.8551
26.2311
24.3605
22.3945
20.2335
17.8972
15.9223
14.6853
13.9687
13.534
13.0738
12.336
11.1078
9.46544
7.82295
6.37351
5.05458
3.94821
3.06951
2.35043
1.87078
1.6115
1.64113
1.66578
1.09116
0.719849
0.438343
0.0412347
0.0379118
0.0740557
0.13647
0.233155
0.387369
0.621556
0.980903
1.53175
2.34029
3.52366
5.23947
7.53966
10.0548
11.8352
12.3299
11.8703
12.0607
13.3864
15.2567
17.706
20.7005
23.7124
26.4547
29.3418
32.2161
34.5742
36.0731
35.852
33.9959
31.4653
28.8823
26.5809
24.0622
21.4522
19.0564
16.8837
14.8448
13.1714
12.0809
11.3231
10.7015
10.2554
9.84841
9.46407
8.50791
7.13772
5.98582
4.94988
3.83146
3.0705
2.56835
2.13501
1.91292
1.82377
2.36799
2.23869
1.10579
0.653568
0.430273
0.0248957
0.00772148
0.0109533
0.0173628
0.0274092
0.0430526
0.0669298
0.10422
0.164059
0.259669
0.413687
0.654669
1.00821
1.46572
1.96801
2.38318
2.50003
2.86634
3.52685
4.41099
5.57456
7.03007
8.72368
10.6446
12.7879
15.0399
17.135
18.7958
19.6927
19.4936
18.2427
15.9569
12.7987
9.83835
7.75346
6.27504
5.07788
4.03262
3.16155
2.66349
2.54927
2.87031
3.22272
3.46541
3.35789
2.68773
2.07142
1.68503
1.3544
1.22215
1.35424
1.69363
2.11327
2.18358
2.18981
3.067
2.62179
1.1462
0.622686
0.422027
0.0281183
0.00823941
0.00552963
0.00474968
0.00516747
0.00618301
0.00793779
0.0104176
0.014217
0.0201159
0.0296919
0.0451468
0.0695484
0.105855
0.155035
0.217242
0.249393
0.325902
0.4515
0.635488
0.902682
1.27398
1.76335
2.37848
3.11831
3.95548
4.8138
5.6194
6.32242
6.55548
5.88898
4.45348
2.835
1.70543
1.08335
0.723763
0.480999
0.30335
0.181912
0.13919
0.154052
0.185722
0.221415
0.266768
0.337326
0.357285
0.443904
0.59893
0.825952
1.14748
1.57569
2.44589
3.35562
3.21444
2.90127
3.62201
2.85043
1.44696
0.660637
0.411348
0.0452108
0.0237236
0.0166751
0.0120838
0.0102065
0.00892956
0.00873867
0.00843527
0.00845698
0.00834633
0.00836182
0.00849822
0.00925552
0.0109886
0.0140888
0.0188345
0.0230408
0.0309091
0.0435211
0.0629861
0.0931942
0.138615
0.203904
0.29322
0.41017
0.555608
0.726187
0.915665
1.12746
1.18523
0.979969
0.620981
0.316604
0.15554
0.0855804
0.0541017
0.0390116
0.0332124
0.0349599
0.0442762
0.0611719
0.0873317
0.127505
0.189256
0.284122
0.426547
0.63881
0.950452
1.39383
1.94839
2.67981
4.04574
4.82914
4.23555
3.57874
4.19148
3.10935
1.69662
0.701806
0.398752
0.0777277
0.0699729
0.0620159
0.0502317
0.0450306
0.0410399
0.0403225
0.0390426
0.0387879
0.0373394
0.03541
0.0322738
0.0291664
0.0268077
0.0263151
0.0276592
0.0298747
0.0322602
0.0336384
0.0339051
0.0335241
0.0335321
0.0348319
0.0384278
0.0451111
0.0558064
0.0712702
0.0919353
0.117598
0.119333
0.0897926
0.0507064
0.0257462
0.016317
0.0144583
0.0158846
0.0195168
0.0256093
0.035129
0.0498319
0.0723675
0.107363
0.162156
0.24861
0.386099
0.603031
0.943243
1.45784
2.19691
3.16119
4.45518
5.99731
6.29918
6.18966
6.0069
7.08689
5.82735
3.23913
0.691943
0.405367
0.154888
0.199324
0.223749
0.214869
0.213938
0.21219
0.215938
0.217544
0.220723
0.220696
0.218499
0.212477
0.205259
0.198873
0.197011
0.199761
0.204622
0.208873
0.208522
0.202133
0.189574
0.172309
0.151297
0.128381
0.104448
0.0821614
0.0645303
0.0539435
0.0512012
0.0486666
0.045547
0.0432008
0.0424253
0.0428688
0.0442747
0.0470236
0.0518995
0.0600017
0.0727991
0.0915951
0.116795
0.152324
0.204441
0.286276
0.424877
0.661554
1.067
1.71841
2.69667
3.80588
4.96396
6.65
9.1256
12.7746
16.4015
19.0039
14.0418
4.88526
0.601646
0.468651
0.236806
0.344663
0.572362
0.683961
0.777699
0.847664
0.910774
0.968059
1.02149
1.07185
1.11693
1.15628
1.18844
1.21439
1.23584
1.25558
1.27643
1.29601
1.31203
1.32118
1.32024
1.30732
1.28157
1.24302
1.19273
1.13186
1.06219
0.986722
0.909304
0.839846
0.780057
0.729357
0.685326
0.645809
0.610153
0.57993
0.557591
0.545546
0.544093
0.553021
0.572751
0.601332
0.634533
0.667881
0.705885
0.766456
0.887564
1.0663
1.29644
1.62127
2.19076
3.37253
5.00513
5.72244
6.22452
6.48738
4.74247
2.72932
0.892002
0.598725
0.20818
0.324933
0.564553
0.688332
0.793156
0.864963
0.933104
0.987631
1.03827
1.08278
1.12151
1.15623
1.18424
1.20967
1.23022
1.25049
1.26759
1.28252
1.29064
1.29075
1.2805
1.25995
1.22934
1.18988
1.14294
1.09037
1.03369
0.974791
0.914877
0.855205
0.796228
0.738788
0.683271
0.630446
0.580647
0.536401
0.502586
0.482129
0.476157
0.485806
0.511024
0.54982
0.597864
0.64986
0.704
0.76556
0.852583
1.02132
1.39247
2.12551
3.4582
5.4525
7.30039
7.98688
7.66982
6.29179
4.08658
2.63325
1.03256
0.682175
0.129962
0.172815
0.201876
0.194155
0.18877
0.182753
0.180501
0.175141
0.172076
0.166128
0.16102
0.154204
0.148494
0.142599
0.139961
0.138089
0.137434
0.134691
0.129405
0.121243
0.111383
0.101324
0.0916448
0.0832528
0.0761276
0.070212
0.0656849
0.0625907
0.0608267
0.0600061
0.0598105
0.0596088
0.0588799
0.0575916
0.0561467
0.0556219
0.0575854
0.0635173
0.0747956
0.0924418
0.117328
0.149896
0.190972
0.24248
0.308258
0.395088
0.514258
0.686996
0.973942
1.49207
2.413
4.01875
6.50351
10.201
12.7207
11.9541
6.10862
2.81205
0.716787
0.532852
0.0599018
0.051847
0.0476884
0.0375593
0.0312833
0.0266721
0.0238774
0.0208938
0.0189187
0.0164636
0.0146954
0.0127701
0.0113605
0.0102808
0.0100451
0.0102901
0.0109728
0.0116493
0.0123339
0.0132782
0.0150334
0.018125
0.0228235
0.0293597
0.0392794
0.0478196
0.0534721
0.0545187
0.0513648
0.0457946
0.0408661
0.0376446
0.0337794
0.029862
0.0264253
0.0241044
0.0242026
0.0283311
0.0355842
0.0470227
0.0645745
0.0909865
0.129682
0.184478
0.261167
0.366227
0.504548
0.67285
0.873846
1.1323
1.50576
2.12745
3.22568
5.70936
7.74341
8.19818
4.37667
2.51244
0.853329
0.441088
0.03361
0.015674
0.0106601
0.00685381
0.00509636
0.00396223
0.0034252
0.00298374
0.00291182
0.00299756
0.00359476
0.00477908
0.00708127
0.0111195
0.0180972
0.0301737
0.0486152
0.0818882
0.138235
0.230454
0.373569
0.579403
0.855534
1.15915
1.42695
1.62588
1.72652
1.70906
1.5775
1.3636
1.11924
0.884456
0.687609
0.50994
0.358582
0.237069
0.156022
0.122025
0.110837
0.112178
0.126469
0.15564
0.203034
0.273502
0.371958
0.50548
0.67962
0.894414
1.14573
1.42274
1.70873
2.05461
2.70663
5.659
6.89302
8.27151
4.50313
1.97258
0.828797
0.396576
0.0231606
0.00511883
0.00278688
0.00189248
0.00193756
0.00253714
0.00393396
0.00656868
0.0114109
0.0200363
0.0353985
0.0622168
0.108195
0.18389
0.303384
0.486061
0.752841
1.1465
1.71136
2.49257
3.5277
4.81776
6.32016
7.85055
9.25882
10.424
11.2232
11.5836
11.4443
10.8433
9.87803
8.66323
7.30196
5.9226
4.56785
3.28611
2.21419
1.47089
1.00823
0.693389
0.489481
0.370844
0.321369
0.342084
0.413792
0.522014
0.675192
0.888367
1.16317
1.49756
1.89526
2.42798
3.15255
4.44855
5.45493
5.91623
4.79668
2.01375
0.703801
0.396853
0.0175632
0.00296453
0.00332121
0.00547603
0.00969195
0.017384
0.0314948
0.0574239
0.103784
0.182735
0.310672
0.506217
0.791747
1.18663
1.70249
2.33333
3.09001
4.03053
5.21189
6.71123
8.58761
10.8584
13.501
16.3845
19.1764
21.6293
23.5938
25.0043
25.7668
25.8967
25.4691
24.5948
23.2112
21.4117
19.3089
16.7867
13.9599
10.9943
8.49507
6.41508
4.80143
3.56821
2.5697
1.85899
1.48101
1.21339
0.903145
0.781066
0.935667
1.19798
1.53593
1.93405
2.37166
2.92311
3.90051
4.10609
3.57716
1.72757
0.715277
0.412516
0.0201445
0.0123541
0.0256721
0.0517522
0.097988
0.182099
0.331555
0.586018
0.985689
1.56188
2.32467
3.24714
4.29183
5.38197
6.39146
7.29552
8.0985
9.10147
10.3946
12.0285
14.1257
16.7498
19.9197
23.5183
27.2087
30.3974
33.0241
34.9802
36.1927
36.739
36.8014
36.5189
35.8326
34.6913
33.2715
31.5621
29.7756
27.8911
26.0707
24.2369
22.4919
20.9979
19.1841
16.9941
14.0997
11.0791
7.44927
3.78042
1.94363
1.49013
1.50907
1.65727
1.84922
2.06275
2.7101
3.09936
3.06156
1.57066
0.723969
0.415607
0.0593751
0.0931577
0.219519
0.453061
0.824686
1.4148
2.30006
3.59353
5.30818
7.46871
9.99333
12.686
15.3874
17.7694
19.1062
19.016
18.4476
18.0578
18.0887
18.6592
19.886
21.8812
24.6286
28.0339
31.8245
35.3729
38.3439
40.5506
41.9169
42.5333
42.6582
42.4979
42.0849
41.3188
40.2358
38.8451
37.2922
35.8414
34.6475
33.815
33.192
33.1721
33.8383
35.0699
36.3276
36.1829
32.6785
24.4378
15.7001
9.85957
6.74125
4.80352
3.74467
3.23309
3.01893
2.93081
2.77583
1.55384
0.762559
0.413909
0.216136
0.446399
1.03065
1.95917
3.20671
4.91624
6.97607
9.98568
13.6781
17.8971
22.11
26.0194
29.5934
32.6362
34.634
35.1008
33.8855
31.717
29.0061
26.9503
25.7821
25.1889
25.2305
26.3969
28.7772
31.5595
34.0575
36.0372
37.3883
38.0277
38.1009
37.9131
37.6583
37.3335
36.8862
36.1458
35.0046
33.6823
32.4869
31.6267
30.8762
30.176
29.6845
29.3636
28.9653
28.1321
26.6651
24.3725
21.6741
19.0767
16.4125
13.2895
9.73307
6.76215
4.66098
3.49944
2.62736
1.52544
0.781833
0.402844
0.418462
1.67507
4.0535
6.77843
9.5341
12.5472
14.8021
16.96
19.3875
22.1371
24.9785
27.2889
28.738
29.6369
30.473
31.638
33.0241
34.3019
34.3695
32.5193
29.5046
26.0695
22.9017
21.1027
20.881
21.7078
22.8749
23.9907
24.8995
25.476
25.673
25.5456
25.2456
24.9043
24.5961
24.3195
23.9804
23.5007
22.8015
22.0265
21.3043
20.5317
19.6377
18.7133
17.8909
17.066
15.9749
14.4655
12.5833
10.5713
8.56748
6.66516
5.00649
3.72813
2.82475
2.15622
1.48175
0.903073
0.610713
0.35701
0.253745
0.415542
4.14362
6.04317
7.11755
8.39679
9.62525
10.8899
12.0662
13.0232
14.0442
15.0301
15.4607
15.2821
15.1443
15.6522
16.8981
18.3753
19.0774
18.6645
18.017
17.561
17.8041
18.0304
17.7081
17.8508
18.3962
18.9319
19.3446
19.6118
19.6814
19.5321
19.1824
18.6732
18.066
17.4144
16.7334
15.9574
15.04
14.1397
13.3306
12.5893
11.9153
11.3416
10.9232
10.5849
10.1118
9.30705
8.12976
6.73725
5.29419
3.97155
2.87622
2.10029
1.55179
1.1675
0.887313
0.602156
0.481901
0.335299
0.16639
0.148568
1.92278
3.0561
3.48591
3.75832
3.80717
3.79171
3.86351
4.08986
4.33459
4.33142
4.0501
3.7047
3.60284
3.73485
4.18102
5.01419
5.69369
6.06414
6.6138
7.65374
9.47677
12.4769
15.5522
17.6841
18.9455
19.7905
20.468
21.0511
21.3436
21.12
20.3981
19.4069
18.328
17.1806
15.9999
14.8355
13.6825
12.5411
11.4464
10.6021
10.0952
9.85613
9.7546
9.59548
9.20648
8.45697
7.27036
5.7998
4.31362
3.00557
1.99972
1.36548
0.973042
0.80195
0.723192
0.561271
0.489261
0.34103
0.152712
0.452184
2.6153
4.68984
4.56014
4.71024
4.82889
4.94764
5.08843
5.21012
5.33764
5.62889
6.07056
6.55941
7.00028
7.02033
6.49022
5.64251
4.93275
4.79578
5.32565
6.60229
8.61923
11.1568
13.7727
16.118
18.2425
19.9804
20.845
20.9192
20.7514
20.592
20.4809
20.2631
19.6763
18.7395
17.6168
16.3959
15.1921
14.0484
12.8892
11.8996
11.256
10.8997
10.7163
10.5049
10.0542
9.19599
7.86682
6.2096
4.51221
3.08029
2.05828
1.37569
0.926377
0.768102
0.715673
0.580334
0.514773
0.344787
0.165804
0.486009
1.33141
2.3657
2.90759
3.61879
4.17685
4.73003
5.3915
6.16343
7.03383
8.13728
9.43301
10.6367
11.2713
10.9111
10.078
9.40668
8.84786
8.51517
8.72015
9.31553
10.2559
11.7171
13.8152
16.1253
17.9642
19.1314
19.7564
20.0904
20.3286
20.4751
20.5712
20.7007
20.912
21.0555
20.6516
19.5425
18.1871
16.8628
15.5176
14.401
13.7048
13.3128
13.0603
12.7744
12.1805
11.089
9.49093
7.55549
5.58689
3.89184
2.62147
1.7635
1.30521
1.1885
1.04553
0.733823
0.575824
0.36665
0.245824
0.60219
1.28417
1.89974
2.36743
3.07327
3.75422
4.63571
5.78893
7.0702
8.42383
9.93606
11.6737
13.1879
13.7973
13.333
12.4795
12.0113
11.7927
11.6456
11.7678
12.4408
13.8703
16.2297
19.4895
22.9639
25.2803
26.1974
26.4685
26.6487
26.8072
26.8029
26.6755
26.6195
26.7567
26.8307
26.1744
24.8113
23.2872
21.6896
20.0791
18.9781
18.3933
18.0837
17.7462
16.9523
15.435
13.3426
10.9209
8.42372
6.12616
4.2936
2.93935
2.05999
1.54635
1.3751
1.26847
0.927263
0.70318
0.426896
0.348759
0.452428
0.642662
0.990321
1.51441
2.23361
3.17023
4.32564
5.8071
7.54935
9.66191
11.9449
13.9415
15.0034
14.8697
14.1037
13.521
13.472
13.914
14.711
15.9177
17.7059
20.2371
23.6831
27.8634
31.0957
32.0166
32.1602
32.3148
32.394
32.2363
31.8801
31.4805
31.0625
30.5297
29.3741
27.5529
25.6997
23.9739
22.0781
20.3366
19.4836
19.1964
18.7683
17.5464
15.4846
13.054
10.4808
7.93482
5.6795
3.90194
2.72963
1.91552
1.39435
1.11745
1.17073
1.54132
0.993976
0.778987
0.479426
0.214373
0.408953
0.810906
1.48993
2.30698
3.41729
4.69618
6.23982
7.94132
9.87443
12.4294
14.965
16.9308
17.7628
17.6775
17.1603
17.0939
17.818
19.1704
21.0069
23.2977
26.2435
29.608
33.5019
37.3348
38.8561
38.1927
37.4381
36.803
36.0876
35.428
34.8231
34.1284
33.2532
32.1573
30.6802
28.9937
27.2777
25.4599
23.6565
22.1467
20.9869
19.9188
18.7806
17.2188
14.9973
12.3999
9.73974
7.28964
5.23434
3.63314
2.60344
1.96615
1.53617
1.28851
1.47814
1.80894
1.30796
0.899155
0.51172
0.101558
0.169717
0.379683
0.733672
1.23452
1.88209
2.57934
3.38228
4.29582
5.41585
6.83812
8.43719
10.0076
11.275
12.2168
13.2102
14.5169
16.5475
19.4879
23.2859
27.5771
31.4887
34.6513
36.8647
37.2734
35.7916
34.0662
32.8249
32.0008
31.427
30.9406
30.3036
29.4152
28.3834
27.3169
26.217
25.042
23.7905
22.6592
21.8145
21.192
20.5387
19.4987
18.0215
15.8834
12.8882
9.7736
7.15283
5.16693
3.6798
2.65252
2.03406
1.66409
1.4059
1.29572
1.75199
1.72395
1.11487
0.763707
0.483913
0.0317212
0.0190404
0.0406383
0.0831912
0.155584
0.26604
0.419616
0.628175
0.908504
1.28202
1.76772
2.35726
3.02822
3.74074
4.50878
5.38335
6.50656
8.07935
10.2787
13.1956
16.7195
20.3792
22.922
23.9992
23.4869
22.0026
20.5915
19.7161
19.3668
19.1423
18.7987
18.2049
17.4424
16.6321
15.8634
15.0309
14.1409
13.1162
12.1636
10.997
10.0345
8.95304
7.93893
6.9437
5.83893
4.5153
3.42789
2.68193
2.28859
2.27381
2.80249
3.20672
2.9473
2.60714
2.22799
2.68444
2.37017
1.14452
0.725271
0.470106
0.0329743
0.00816463
0.00611669
0.00733485
0.0111257
0.0175361
0.0275418
0.0423173
0.0644315
0.0966568
0.143545
0.209654
0.301396
0.42532
0.592823
0.821599
1.15004
1.63085
2.32671
3.28533
4.50519
5.87995
7.11177
7.4633
6.98854
6.14386
5.44224
5.07925
4.95919
4.86678
4.64847
4.32021
3.97041
3.66994
3.4
3.11251
2.8071
2.48493
2.20651
1.91627
1.73164
1.52105
1.34002
1.18064
1.04351
0.959527
1.08777
1.5187
2.31758
3.59615
5.25166
6.45443
6.00087
4.78338
3.60834
3.67732
2.80861
1.64876
0.835853
0.45277
0.043056
0.0211309
0.0137277
0.00903603
0.0070836
0.00601934
0.00590795
0.00598103
0.0065238
0.00719013
0.00842027
0.0102744
0.0133795
0.0183126
0.0261127
0.0383894
0.0582735
0.0908173
0.143711
0.226347
0.346579
0.504819
0.7002
0.769139
0.67046
0.515409
0.400812
0.352799
0.335384
0.321409
0.290742
0.253991
0.225667
0.204789
0.187645
0.170361
0.153996
0.139192
0.126834
0.119348
0.133737
0.167248
0.230218
0.340483
0.539365
0.895928
1.50951
2.52217
4.13069
6.90638
8.88503
9.33466
8.25475
7.00313
5.67059
5.62377
4.05931
2.75427
0.897333
0.44685
0.0736832
0.0652554
0.056098
0.0429723
0.0363368
0.0312464
0.0292385
0.0272437
0.0263249
0.0246022
0.0233516
0.0216745
0.0206495
0.0202363
0.0205661
0.0211467
0.0213812
0.0207531
0.0195102
0.0186449
0.0194873
0.0233907
0.0318437
0.0382537
0.0359376
0.0321858
0.032902
0.0368135
0.0387096
0.0361992
0.030325
0.0241453
0.0195668
0.0170163
0.016181
0.0168087
0.0189116
0.0232964
0.0319988
0.0475821
0.0755725
0.126037
0.217767
0.385524
0.692307
1.24915
2.24404
3.96037
6.65504
9.87777
11.8259
13.2254
13.7264
13.5985
12.7419
12.63
10.2523
7.10938
0.908158
0.469948
0.152548
0.195103
0.219662
0.205293
0.200014
0.193963
0.193666
0.192384
0.192991
0.190717
0.188832
0.184828
0.182109
0.180558
0.181287
0.182061
0.180723
0.174409
0.162151
0.145605
0.12773
0.112558
0.102944
0.0993245
0.0971118
0.0956929
0.0948469
0.0940092
0.0907226
0.0852652
0.0788805
0.0725371
0.0669164
0.0623238
0.0586884
0.0561663
0.0554661
0.0576634
0.0646786
0.0787284
0.104708
0.153474
0.246042
0.426951
0.781519
1.47201
2.79044
5.24314
7.90216
10.8729
14.112
17.7308
22.3815
26.1616
27.2291
26.6766
23.7508
9.77602
0.866888
0.558147
0.227869
0.348544
0.588912
0.707055
0.804459
0.877245
0.944007
1.00198
1.05651
1.10655
1.15122
1.19212
1.22676
1.25865
1.28725
1.31583
1.34185
1.36445
1.37822
1.38026
1.36789
1.3415
1.30284
1.25534
1.20448
1.15067
1.09211
1.02861
0.962668
0.896712
0.83211
0.770631
0.712706
0.658911
0.609648
0.565844
0.529407
0.503762
0.492108
0.495946
0.517941
0.56204
0.634935
0.751968
0.950518
1.30031
1.98879
2.76124
3.38714
3.99251
4.77707
6.34613
9.31907
12.5551
13.0186
11.0941
8.6948
5.18331
1.22361
0.695973
0.204364
0.318372
0.536643
0.645977
0.737719
0.807599
0.867998
0.923473
0.974149
1.02215
1.06488
1.10179
1.13152
1.1551
1.17472
1.19338
1.21424
1.23394
1.25026
1.25984
1.25973
1.24833
1.22537
1.19112
1.14692
1.09406
1.03406
0.969411
0.902022
0.839847
0.78701
0.74358
0.707906
0.677866
0.652245
0.631773
0.618035
0.612775
0.616701
0.628677
0.647467
0.673926
0.712061
0.785652
0.925671
1.10674
1.31426
1.56382
1.84028
2.13657
2.58235
3.52503
4.93457
5.40092
5.70106
6.03926
4.00339
2.33712
0.806144
0.538888
0.171754
0.275279
0.477315
0.58041
0.6627
0.727075
0.78042
0.830382
0.874897
0.917327
0.954813
0.987047
1.01286
1.03346
1.05103
1.0685
1.08693
1.10557
1.12135
1.13122
1.13284
1.125
1.10775
1.08157
1.04761
1.00677
0.959853
0.908183
0.853167
0.797284
0.745368
0.698969
0.657024
0.618384
0.585815
0.56067
0.542633
0.535358
0.546321
0.584299
0.653538
0.756885
0.901163
1.07863
1.31068
1.54913
1.80317
2.06041
2.32031
2.55595
2.86661
3.56238
4.75736
5.00015
5.17835
5.38454
3.28811
1.86361
0.696637
0.483528
0.170703
0.258671
0.412717
0.49317
0.56076
0.615642
0.660599
0.703808
0.741855
0.778428
0.810768
0.838645
0.861008
0.878826
0.893917
0.908591
0.923602
0.93805
0.94939
0.955251
0.95407
0.945172
0.92866
0.905423
0.876474
0.842064
0.802123
0.75684
0.706421
0.653034
0.60302
0.560689
0.531164
0.521648
0.53449
0.560851
0.595983
0.64994
0.735946
0.852964
0.989013
1.1883
1.41744
1.64423
1.85089
2.03462
2.23357
2.45963
2.70847
2.93001
3.17029
3.66704
4.54978
4.59371
4.67868
4.95575
2.91091
1.47421
0.591373
0.428731
0.175326
0.235905
0.341425
0.39616
0.448869
0.493447
0.531021
0.567778
0.599851
0.629775
0.65517
0.676292
0.692588
0.704784
0.714258
0.723115
0.732168
0.741429
0.749756
0.756931
0.76427
0.773935
0.788043
0.811124
0.853179
0.919979
1.01628
1.1573
1.32617
1.4856
1.61431
1.68309
1.69011
1.68475
1.70252
1.70019
1.68262
1.65434
1.66287
1.74284
1.88609
2.07674
2.25486
2.39323
2.52625
2.63762
2.78033
2.95674
3.14789
3.2967
3.42733
3.71704
4.39133
4.27202
4.31073
4.72833
2.59384
1.20496
0.52536
0.380209
0.169577
0.187584
0.231787
0.270121
0.307021
0.342016
0.368326
0.39594
0.416424
0.434623
0.44826
0.457806
0.46211
0.462078
0.459624
0.457942
0.457426
0.457887
0.458226
0.46026
0.468019
0.486945
0.522597
0.578803
0.657583
0.766405
0.916189
1.0837
1.25789
1.44341
1.62492
1.78069
1.88936
1.96097
2.01724
2.02832
2.00257
1.99034
2.02554
2.07073
2.13505
2.24129
2.35535
2.41897
2.43334
2.45447
2.54435
2.64846
2.74673
2.81929
2.85646
3.24682
4.09678
4.02691
3.98629
4.61661
2.39649
1.077
0.482456
0.342865
0.151484
0.13059
0.162242
0.193334
0.226171
0.251872
0.276828
0.297694
0.316448
0.331221
0.340844
0.343841
0.340892
0.334837
0.328949
0.325956
0.327151
0.333534
0.345514
0.363811
0.389806
0.423478
0.466436
0.521287
0.592152
0.688336
0.803253
0.923176
1.05267
1.19516
1.34146
1.48664
1.61259
1.71755
1.78684
1.7743
1.74947
1.73282
1.77511
1.84688
1.93932
2.04313
2.13965
2.20262
2.23231
2.29827
2.40691
2.48117
2.51022
2.50467
2.58976
3.01996
3.76868
3.73812
3.64041
4.26344
2.35164
1.06039
0.442341
0.323483
0.14117
0.1676
0.222026
0.265095
0.308316
0.344322
0.382183
0.414636
0.444405
0.467929
0.482865
0.488537
0.486218
0.478208
0.467929
0.459709
0.454111
0.452948
0.457077
0.467396
0.485752
0.512844
0.549387
0.59639
0.656051
0.728457
0.790359
0.852922
0.934496
1.04363
1.16979
1.31356
1.46364
1.61948
1.76507
1.88189
1.919
1.95444
2.03916
2.1412
2.26767
2.40693
2.52194
2.59668
2.66553
2.77714
2.84868
2.81248
2.69648
2.51957
2.56482
3.15302
3.69767
3.5159
3.44664
3.74665
2.32907
1.19144
0.474257
0.338713
0.110736
0.183293
0.303641
0.377679
0.451078
0.508206
0.564891
0.613425
0.658372
0.697687
0.729637
0.75149
0.762479
0.763103
0.75316
0.739011
0.722316
0.703264
0.681418
0.659963
0.643393
0.636664
0.647215
0.680602
0.740383
0.829702
0.921539
1.0129
1.11793
1.24625
1.40606
1.59718
1.82586
2.08188
2.32204
2.4446
2.57859
2.73432
2.8864
3.01617
3.11805
3.1965
3.26877
3.39324
3.55753
3.69391
3.76422
3.77831
3.76372
3.67763
3.55091
3.92039
4.86761
4.76689
4.88861
5.37627
3.57822
1.98087
0.600635
0.421505
0.103178
0.192768
0.349522
0.445754
0.540048
0.614371
0.685716
0.747968
0.805701
0.859696
0.909559
0.952853
0.989136
1.01933
1.0456
1.07155
1.09741
1.1213
1.13825
1.14381
1.1325
1.09351
1.0423
1.00282
0.986055
1.00151
1.06369
1.14793
1.25354
1.38394
1.55045
1.74922
1.9811
2.21879
2.45365
2.63192
2.65746
2.70235
2.81387
2.94146
3.07466
3.1864
3.29391
3.4495
3.63708
3.80954
3.96977
4.12608
4.29226
4.44518
4.43567
4.33833
5.27796
5.41779
6.03549
6.87224
4.59109
2.65672
0.761057
0.467631
0.112106
0.217698
0.39719
0.507292
0.609429
0.691724
0.766221
0.830988
0.890282
0.944989
0.996006
1.04167
1.0816
1.11745
1.15227
1.19071
1.23419
1.28231
1.3307
1.37412
1.40768
1.42802
1.43309
1.41915
1.37887
1.306
1.24791
1.21366
1.20559
1.23128
1.28482
1.35836
1.44174
1.50926
1.55945
1.58318
1.58547
1.60074
1.66125
1.73186
1.92679
2.16589
2.41236
2.67369
2.93111
3.15305
3.3531
3.55793
3.79459
4.08715
4.31588
4.50413
5.77109
6.02165
6.39533