/*--------------------------------*- C++ -*----------------------------------*\
| =========                 |                                                 |
| \\      /  F ield         | OpenFOAM: The Open Source CFD Toolbox           |
|  \\    /   O peration     | Version:  2.1.1                                 |
|   \\  /    A nd           | Web:      www.OpenFOAM.org                      |
|    \\/     M anipulation  |                                                 |
\*---------------------------------------------------------------------------*/
FoamFile
{
    version     2.0;
    format      ascii;
    class       volScalarField;
    location    "0.0015";
    object      Lzero;
}
// * * * * * * * * * * * * * * * * * * * * * * * * * * * * * * * * * * * * * //

dimensions      [0 1 0 0 0 0 0];

internalField   nonuniform List<scalar> 
36520
(
9.25396e-05
9.23556e-05
9.23519e-05
9.23535e-05
9.23457e-05
9.23376e-05
9.23319e-05
9.2328e-05
9.23269e-05
9.23312e-05
9.23439e-05
9.23651e-05
9.23918e-05
9.24178e-05
9.24387e-05
9.24504e-05
9.24537e-05
9.24541e-05
9.24597e-05
9.24795e-05
9.25191e-05
9.25805e-05
9.26636e-05
9.27696e-05
9.28993e-05
9.30457e-05
9.32008e-05
9.32262e-05
9.3179e-05
9.30789e-05
9.29919e-05
9.29466e-05
9.29422e-05
9.29679e-05
9.30097e-05
9.30846e-05
9.31585e-05
9.32303e-05
9.32813e-05
9.33136e-05
9.33322e-05
9.33091e-05
9.3234e-05
9.31284e-05
9.30085e-05
9.29034e-05
9.28561e-05
9.29151e-05
9.30752e-05
9.31502e-05
9.32109e-05
9.36409e-05
9.33924e-05
9.30623e-05
9.25538e-05
9.16924e-05
9.11276e-05
9.12895e-05
9.15221e-05
9.17446e-05
0.000194456
7.57868e-05
7.51262e-05
7.14108e-05
6.89929e-05
6.70581e-05
6.57011e-05
6.44328e-05
6.33141e-05
6.21895e-05
6.11247e-05
6.00655e-05
5.90708e-05
5.80321e-05
5.69792e-05
5.57915e-05
5.44803e-05
5.29711e-05
5.12449e-05
4.9188e-05
4.66926e-05
4.37121e-05
4.01664e-05
3.61223e-05
3.17037e-05
2.7755e-05
2.54989e-05
2.48505e-05
2.55029e-05
3.01214e-05
3.58529e-05
3.82819e-05
3.93042e-05
4.01148e-05
4.10331e-05
4.20742e-05
4.31752e-05
4.43901e-05
4.5763e-05
4.74136e-05
4.9503e-05
5.19125e-05
5.44011e-05
5.67158e-05
5.87949e-05
6.07345e-05
6.27915e-05
6.56176e-05
7.00329e-05
7.62281e-05
8.22048e-05
8.82663e-05
9.91014e-05
0.000104229
0.000100536
8.92236e-05
7.46417e-05
6.52524e-05
4.55365e-05
0.000192985
0.000194534
5.00505e-05
4.79693e-05
4.35622e-05
4.07078e-05
3.83984e-05
3.70077e-05
3.56328e-05
3.45639e-05
3.3356e-05
3.2157e-05
3.07996e-05
2.94316e-05
2.80818e-05
2.70603e-05
2.65921e-05
2.68885e-05
2.78397e-05
2.9416e-05
3.15275e-05
3.41147e-05
3.70688e-05
4.02027e-05
4.32639e-05
4.5897e-05
4.76254e-05
4.80625e-05
4.4789e-05
3.77277e-05
2.91039e-05
2.15709e-05
1.66771e-05
1.41667e-05
1.3004e-05
1.28067e-05
1.39383e-05
1.66048e-05
1.98867e-05
2.25919e-05
2.48489e-05
2.70797e-05
2.94497e-05
3.18214e-05
3.41282e-05
3.65118e-05
3.93319e-05
4.30331e-05
4.80787e-05
5.47777e-05
6.30487e-05
7.34452e-05
8.34298e-05
9.32692e-05
9.41568e-05
9.38097e-05
9.07262e-05
7.26744e-05
6.76253e-05
5.45786e-05
0.000193566
0.000194537
3.19424e-05
2.82376e-05
2.41122e-05
2.14939e-05
1.94125e-05
1.82454e-05
1.73137e-05
1.70352e-05
1.72332e-05
1.83165e-05
2.0439e-05
2.38955e-05
2.87723e-05
3.50031e-05
4.22177e-05
5.00695e-05
5.83355e-05
6.69401e-05
7.57892e-05
8.4806e-05
9.36514e-05
0.000101869
0.000108872
0.000113728
0.00011476
0.000110288
0.000101339
8.79561e-05
7.22965e-05
5.78572e-05
4.69515e-05
4.00254e-05
3.50995e-05
3.05682e-05
2.58039e-05
2.14309e-05
1.80613e-05
1.62552e-05
1.62407e-05
1.77888e-05
2.00827e-05
2.28803e-05
2.55054e-05
2.78983e-05
3.06965e-05
3.42845e-05
3.90216e-05
4.50152e-05
5.18564e-05
5.93661e-05
7.29414e-05
8.169e-05
8.23493e-05
8.38294e-05
8.43329e-05
5.50991e-05
6.24907e-05
5.70793e-05
0.000194502
0.000194628
1.79728e-05
1.43389e-05
1.21685e-05
1.21551e-05
1.32926e-05
1.54827e-05
1.86074e-05
2.28495e-05
2.84022e-05
3.55387e-05
4.44053e-05
5.48683e-05
6.65936e-05
7.89133e-05
9.08279e-05
0.000101773
0.000111893
0.000121511
0.000131149
0.000141117
0.000151301
0.000161355
0.000170897
0.000179418
0.000184505
0.000181031
0.000170427
0.000155888
0.00013955
0.000124765
0.000112649
0.000104186
9.77875e-05
9.13061e-05
8.33306e-05
7.47654e-05
6.62219e-05
5.86644e-05
5.27898e-05
4.69279e-05
4.03108e-05
3.30907e-05
2.70137e-05
2.60346e-05
2.70689e-05
2.91693e-05
3.27957e-05
3.70315e-05
4.19526e-05
4.71822e-05
5.50067e-05
5.63585e-05
6.47485e-05
7.4512e-05
8.21635e-05
5.28634e-05
5.98677e-05
5.95097e-05
0.00019552
0.000194907
1.19323e-05
1.32857e-05
1.61698e-05
2.01705e-05
2.54303e-05
3.17937e-05
3.9565e-05
4.87933e-05
5.95541e-05
7.19101e-05
8.56381e-05
0.000100104
0.00011443
0.000127648
0.000138784
0.000147939
0.000156003
0.000163342
0.000170706
0.000178754
0.000187291
0.000195939
0.000204464
0.000213049
0.000220975
0.000224221
0.000219905
0.000211707
0.000201903
0.00019471
0.000188379
0.000182039
0.000176914
0.000172179
0.000166363
0.00015956
0.000151216
0.000142143
0.000134132
0.000126348
0.000117931
0.00010755
9.52761e-05
8.64555e-05
7.95677e-05
7.26428e-05
6.32837e-05
5.28095e-05
4.47292e-05
4.39813e-05
4.74134e-05
5.30211e-05
5.91967e-05
6.99105e-05
8.37329e-05
7.61118e-05
6.37441e-05
6.33411e-05
0.000196408
0.00019475
1.91197e-05
2.4695e-05
3.15812e-05
3.94706e-05
4.89636e-05
5.92559e-05
7.06564e-05
8.28303e-05
9.58485e-05
0.00010936
0.000123511
0.000137705
0.000150875
0.000161842
0.000170149
0.00017707
0.000183514
0.000189197
0.000194892
0.000201275
0.000208263
0.000215463
0.000222549
0.000229758
0.000237078
0.00024249
0.000243311
0.000240854
0.000236327
0.00023179
0.000228555
0.000224858
0.000220347
0.000216016
0.000212075
0.0002082
0.000203684
0.00019844
0.000192784
0.000187123
0.000181026
0.00017447
0.000165919
0.000155793
0.000144819
0.000133659
0.000121618
0.000107741
9.30539e-05
8.18307e-05
7.4123e-05
7.13299e-05
7.13097e-05
7.63174e-05
8.65354e-05
8.22696e-05
6.94309e-05
6.69511e-05
0.00019698
0.000194593
3.19528e-05
4.07357e-05
5.14691e-05
6.2423e-05
7.5127e-05
8.70587e-05
9.90747e-05
0.000110456
0.000123122
0.0001344
0.000145242
0.000155676
0.00016467
0.000172525
0.00017979
0.000186637
0.000192718
0.000198198
0.000203644
0.00020944
0.000215582
0.000221705
0.000227871
0.000234224
0.000240839
0.000247031
0.000251029
0.000252161
0.000251349
0.000249219
0.000246164
0.000242548
0.000238584
0.000234336
0.000230189
0.000226464
0.000222836
0.000219091
0.000215242
0.000211331
0.000207199
0.000202578
0.00019673
0.000189098
0.000179384
0.000167566
0.000154091
0.000139682
0.000125009
0.000111519
9.97996e-05
9.0152e-05
8.38184e-05
8.23833e-05
8.60928e-05
8.54602e-05
7.66336e-05
7.40425e-05
0.000196805
0.000194637
4.32365e-05
5.89195e-05
7.26157e-05
8.25316e-05
9.61834e-05
0.000104149
0.000111107
0.00011732
0.000123563
0.000129952
0.000136424
0.000142965
0.000149957
0.000156944
0.000163358
0.000169589
0.000175641
0.000180945
0.000186131
0.000192237
0.000199515
0.000207146
0.000214672
0.000221939
0.000228418
0.000233469
0.000236636
0.000238074
0.000238272
0.00023764
0.00023642
0.000234739
0.000232523
0.000229782
0.000226501
0.000223042
0.000219686
0.000216105
0.000212357
0.000208901
0.000205995
0.000203482
0.000200882
0.000197334
0.000192191
0.000185073
0.000175637
0.000163992
0.000150355
0.000135304
0.00012007
0.00010569
9.45256e-05
8.74271e-05
8.65467e-05
8.36437e-05
7.57797e-05
7.87646e-05
0.000195759
0.000194587
3.77645e-05
5.45611e-05
6.35303e-05
7.30182e-05
8.02556e-05
8.63415e-05
9.18887e-05
9.72892e-05
0.000102607
0.000108126
0.000114162
0.000121033
0.000128707
0.000136526
0.00014372
0.000150245
0.000156959
0.000163889
0.000170943
0.000178356
0.000186281
0.00019443
0.000202181
0.000209525
0.000215963
0.000221193
0.000225409
0.000228684
0.000231085
0.000232844
0.000233958
0.000234505
0.000234571
0.000234232
0.000233273
0.000231074
0.000227667
0.000223704
0.000220031
0.000216799
0.000214267
0.00021271
0.00021193
0.000211388
0.000210102
0.000207001
0.000201214
0.000192157
0.000179659
0.00016399
0.000146235
0.000127492
0.000109562
9.60567e-05
9.02993e-05
8.45455e-05
7.87666e-05
9.22898e-05
0.000195754
0.00019448
3.38958e-05
5.67123e-05
6.64547e-05
7.31683e-05
7.93129e-05
8.46423e-05
8.95339e-05
9.42804e-05
9.91681e-05
0.000104824
0.000111618
0.000118959
0.000126478
0.000133929
0.000140921
0.000147494
0.000154526
0.000161453
0.000168051
0.000174711
0.000181763
0.000189274
0.000196073
0.000201854
0.000207455
0.000212374
0.000216638
0.000220823
0.000224693
0.000227974
0.000230668
0.000232669
0.000233808
0.00023392
0.000232998
0.000231101
0.00022828
0.000224795
0.000221123
0.000217389
0.000214171
0.000211918
0.000210522
0.000209608
0.000208657
0.000206868
0.000203406
0.000197534
0.000188745
0.000176807
0.000161391
0.000141421
0.000119053
0.000102243
9.57615e-05
9.10751e-05
8.56485e-05
9.11904e-05
0.00019601
0.000194744
4.01434e-05
5.03192e-05
5.71759e-05
6.32467e-05
7.28453e-05
7.94385e-05
8.57183e-05
9.17557e-05
9.80992e-05
0.000105719
0.000114737
0.000124094
0.000132581
0.000139334
0.000144213
0.000148257
0.000152395
0.00015742
0.000163339
0.00016985
0.000176794
0.000184258
0.000191145
0.000197079
0.000201984
0.000205459
0.000209039
0.00021349
0.00021869
0.00022326
0.000226387
0.000227984
0.000228239
0.000227928
0.000227623
0.000227467
0.000226765
0.000224818
0.000221359
0.000216209
0.000210798
0.000206425
0.000203423
0.000201451
0.000199641
0.000197325
0.000193374
0.000186941
0.000177318
0.00016367
0.000145453
0.000121511
9.70626e-05
8.38998e-05
8.95759e-05
9.85933e-05
9.67787e-05
8.96988e-05
0.0001965
0.000194629
3.78004e-05
4.57718e-05
5.13687e-05
5.65837e-05
6.52426e-05
7.35481e-05
8.16974e-05
8.9183e-05
9.65808e-05
0.000104544
0.000113211
0.000121508
0.000128651
0.000133447
0.000135661
0.000136598
0.000138254
0.000141917
0.000147399
0.000153933
0.000160849
0.00016836
0.000176551
0.000184025
0.000190586
0.00019636
0.000201594
0.000206772
0.000212606
0.000219041
0.000224651
0.00022762
0.000228387
0.000228278
0.000227998
0.000227873
0.000227465
0.000225741
0.00022248
0.000217539
0.000211958
0.000207219
0.000203346
0.000200261
0.000197513
0.000193769
0.000187282
0.000176928
0.000161953
0.000143696
0.000122655
9.95817e-05
7.9904e-05
7.86744e-05
9.3093e-05
0.000103024
9.96293e-05
9.30292e-05
0.000196671
0.000194465
3.23674e-05
5.6489e-05
6.56695e-05
6.6226e-05
7.06906e-05
7.64374e-05
8.30235e-05
8.97254e-05
9.62455e-05
0.000102638
0.000108982
0.000114727
0.000119173
0.000121725
0.000122899
0.000124239
0.000126938
0.000131227
0.000136919
0.000143526
0.000150372
0.000156987
0.000163131
0.000168915
0.000174488
0.000181078
0.000189111
0.000197294
0.000205554
0.000214593
0.000223903
0.000231235
0.000235028
0.000236164
0.000235797
0.000234321
0.000231747
0.000228345
0.000224446
0.000220165
0.000216178
0.000212788
0.0002101
0.000207682
0.0002047
0.000200071
0.000192583
0.000181836
0.000168035
0.000151375
0.000132248
0.000111032
9.10783e-05
7.99737e-05
8.42787e-05
9.14566e-05
9.62009e-05
0.000101836
0.000196244
0.000194657
3.14378e-05
4.49742e-05
5.95604e-05
6.62836e-05
7.25037e-05
7.80031e-05
8.30398e-05
8.76426e-05
9.17326e-05
9.5212e-05
9.79739e-05
9.98695e-05
0.000101149
0.000102856
0.00010664
0.00011371
0.000123595
0.000135115
0.000147216
0.000158193
0.000167147
0.000174492
0.000180196
0.000184854
0.000188752
0.000191203
0.000193802
0.000197997
0.000204482
0.000212553
0.000221388
0.000229692
0.0002355
0.00023734
0.000236525
0.000234323
0.000231116
0.000226724
0.000221396
0.000215692
0.000210373
0.000205735
0.000201605
0.000197227
0.000191395
0.000182847
0.000171704
0.000158946
0.000144584
0.000129288
0.000114312
9.98649e-05
8.72289e-05
8.0319e-05
8.42334e-05
9.33493e-05
9.94019e-05
0.000104983
0.000196602
0.000194821
3.7204e-05
5.12855e-05
6.53915e-05
7.79201e-05
8.7381e-05
9.50561e-05
0.000102467
0.000109959
0.000116927
0.000123146
0.000128782
0.000134073
0.000139007
0.000144431
0.000150972
0.000158092
0.000165114
0.000171803
0.000179143
0.000188136
0.000197143
0.000204559
0.000210196
0.000214689
0.000218186
0.000219899
0.000219852
0.000220616
0.000223028
0.000227053
0.000232155
0.000236987
0.000239603
0.000239612
0.000237868
0.000234874
0.000230579
0.000225043
0.000218627
0.000212283
0.000206635
0.000201145
0.000194621
0.000186324
0.000176056
0.000164423
0.000152688
0.000141234
0.000129491
0.000117725
0.000105785
9.42391e-05
8.59629e-05
8.35576e-05
8.72585e-05
9.45898e-05
0.000100608
0.000105401
0.000196839
0.000194615
3.44255e-05
4.40548e-05
5.56591e-05
6.67795e-05
7.77916e-05
8.77321e-05
9.78997e-05
0.000108946
0.0001194
0.000129429
0.000140583
0.000152619
0.00016387
0.000171511
0.000175466
0.000177936
0.000180009
0.000183919
0.000190514
0.000198914
0.000208025
0.000216384
0.000223326
0.000229023
0.000233408
0.000236208
0.000237743
0.000238039
0.000237777
0.000238656
0.000240598
0.000243133
0.000244328
0.000243292
0.000240486
0.000236585
0.000231821
0.0002263
0.000220273
0.000214586
0.000209088
0.000203291
0.000196396
0.000187269
0.000175555
0.000162218
0.00014866
0.000135281
0.000121845
0.000109214
9.80302e-05
8.87614e-05
8.33514e-05
8.24852e-05
8.56497e-05
9.01212e-05
8.98681e-05
9.38943e-05
0.000196851
0.000194725
1.76925e-05
2.28079e-05
2.91173e-05
3.62923e-05
4.44709e-05
5.32041e-05
6.27839e-05
7.32773e-05
8.44668e-05
9.68393e-05
0.000110662
0.000125264
0.000138356
0.000146646
0.00015022
0.000153631
0.000156942
0.000161748
0.000168491
0.000177026
0.000186591
0.000195723
0.000203619
0.000211076
0.000217946
0.000223752
0.000228261
0.000230738
0.00023151
0.000231942
0.000231886
0.000229979
0.000225479
0.000219818
0.000213758
0.000207408
0.000200125
0.000191882
0.000184123
0.000178421
0.000173753
0.000169129
0.000163977
0.00015713
0.000146325
0.000133109
0.000119981
0.000106152
9.1877e-05
8.19178e-05
7.70313e-05
7.57007e-05
7.77624e-05
8.22024e-05
9.22979e-05
9.55699e-05
8.48057e-05
8.56983e-05
0.000196745
0.000194481
1.10755e-05
1.13187e-05
1.32169e-05
1.57849e-05
1.88428e-05
2.23354e-05
2.64375e-05
3.14165e-05
3.7496e-05
4.50337e-05
5.41365e-05
6.44989e-05
7.50088e-05
8.40541e-05
9.06022e-05
9.62967e-05
0.000102493
0.000109991
0.000118953
0.000129292
0.000140294
0.000151112
0.000161548
0.000171724
0.000181181
0.000189001
0.000194507
0.000196978
0.00019707
0.000194676
0.000187749
0.000175093
0.000160514
0.000147872
0.00013692
0.000126383
0.000115201
0.000103775
9.56904e-05
9.26646e-05
9.51565e-05
9.757e-05
9.83974e-05
9.43457e-05
8.35471e-05
7.29456e-05
6.53256e-05
5.92709e-05
5.79642e-05
6.17982e-05
7.02795e-05
8.09477e-05
8.8554e-05
9.30861e-05
0.000102595
0.000101296
8.41433e-05
7.99658e-05
0.000196349
0.000194295
1.90528e-05
1.34261e-05
1.06894e-05
9.85433e-06
9.70901e-06
1.01464e-05
1.07869e-05
1.17756e-05
1.31715e-05
1.52008e-05
1.7996e-05
2.16395e-05
2.60184e-05
3.08448e-05
3.55057e-05
3.93028e-05
4.4476e-05
5.10174e-05
5.88806e-05
6.80347e-05
7.80369e-05
8.83579e-05
9.86242e-05
0.000108544
0.000117635
0.000125096
0.000130345
0.000132995
0.000132237
0.000125483
0.000111563
9.27957e-05
7.54172e-05
6.2402e-05
5.25568e-05
4.42748e-05
3.6886e-05
3.11691e-05
2.95311e-05
3.04896e-05
3.22463e-05
3.40287e-05
3.59578e-05
3.82987e-05
3.96793e-05
4.29875e-05
4.75344e-05
5.29018e-05
5.92244e-05
6.68879e-05
8.13135e-05
9.78012e-05
0.000104069
0.000104877
0.000108979
0.000102511
8.59173e-05
7.5989e-05
0.000195773
0.000194349
3.26872e-05
2.6043e-05
2.17397e-05
1.93694e-05
1.75036e-05
1.65637e-05
1.5562e-05
1.48255e-05
1.39464e-05
1.30755e-05
1.21559e-05
1.15845e-05
1.1594e-05
1.23326e-05
1.36835e-05
1.50361e-05
1.68422e-05
1.91942e-05
2.21966e-05
2.59824e-05
3.05108e-05
3.56211e-05
4.10888e-05
4.66816e-05
5.20968e-05
5.69553e-05
6.0933e-05
6.39915e-05
6.32212e-05
5.68914e-05
4.60282e-05
3.43004e-05
2.5501e-05
2.02987e-05
1.77276e-05
1.71306e-05
1.81534e-05
1.98751e-05
2.16258e-05
2.38057e-05
2.65387e-05
2.98939e-05
3.39161e-05
3.86259e-05
4.39804e-05
5.00006e-05
5.66299e-05
6.37177e-05
7.0773e-05
7.95274e-05
9.50823e-05
0.000108661
0.000111208
0.000110341
0.00011279
9.66835e-05
8.65561e-05
7.53103e-05
0.000195068
0.000194525
5.10356e-05
4.49783e-05
3.96768e-05
3.66784e-05
3.42909e-05
3.29756e-05
3.16206e-05
3.06492e-05
2.94865e-05
2.83385e-05
2.69936e-05
2.57095e-05
2.45913e-05
2.38975e-05
2.36053e-05
2.34989e-05
2.331e-05
2.28064e-05
2.19701e-05
2.0853e-05
1.96358e-05
1.85113e-05
1.77656e-05
1.7562e-05
1.79823e-05
1.89479e-05
2.03909e-05
2.20733e-05
2.17209e-05
1.90166e-05
1.52365e-05
1.27962e-05
1.32696e-05
1.55219e-05
1.75368e-05
1.90297e-05
2.04933e-05
2.22847e-05
2.45942e-05
2.7384e-05
3.07314e-05
3.47331e-05
3.9455e-05
4.49901e-05
5.13931e-05
5.87226e-05
6.66954e-05
7.52041e-05
8.38867e-05
9.43841e-05
0.000107503
0.000114954
0.000119095
0.00012023
0.000119924
0.000110004
9.29383e-05
7.36066e-05
0.000193336
0.000194446
7.72889e-05
7.37895e-05
6.95881e-05
6.70526e-05
6.50287e-05
6.3601e-05
6.21898e-05
6.09914e-05
5.97607e-05
5.86084e-05
5.74746e-05
5.6456e-05
5.55129e-05
5.46074e-05
5.36615e-05
5.27136e-05
5.16479e-05
5.03937e-05
4.8895e-05
4.71288e-05
4.51419e-05
4.29521e-05
4.06642e-05
3.83597e-05
3.63252e-05
3.4841e-05
3.3754e-05
3.26341e-05
3.27825e-05
3.48621e-05
3.81797e-05
4.08805e-05
4.24603e-05
4.33987e-05
4.40304e-05
4.45467e-05
4.51181e-05
4.58859e-05
4.68177e-05
4.76955e-05
4.86074e-05
4.96301e-05
5.11226e-05
5.39583e-05
5.84532e-05
6.48821e-05
7.28603e-05
8.20588e-05
8.99447e-05
9.85133e-05
0.000110469
0.000121884
0.000129519
0.00013355
0.000132617
0.000117949
8.2244e-05
3.58913e-05
0.000191707
9.66779e-05
9.66288e-05
9.66375e-05
9.664e-05
9.66376e-05
9.66355e-05
9.66353e-05
9.66376e-05
9.6645e-05
9.66609e-05
9.66858e-05
9.67171e-05
9.67471e-05
9.6767e-05
9.67717e-05
9.67622e-05
9.67548e-05
9.67576e-05
9.67758e-05
9.68132e-05
9.68664e-05
9.69316e-05
9.70064e-05
9.70897e-05
9.71799e-05
9.72731e-05
9.73627e-05
9.7446e-05
9.74641e-05
9.74383e-05
9.74072e-05
9.73875e-05
9.73919e-05
9.74183e-05
9.74576e-05
9.74997e-05
9.75359e-05
9.75591e-05
9.7576e-05
9.75543e-05
9.75167e-05
9.74743e-05
9.74382e-05
9.73944e-05
9.73711e-05
9.73761e-05
9.74141e-05
9.75434e-05
9.77521e-05
9.79078e-05
9.79919e-05
9.81392e-05
9.76548e-05
9.73599e-05
9.7702e-05
9.77197e-05
9.60349e-05
9.44998e-05
9.47268e-05
9.54698e-05
9.70628e-05
9.69637e-05
9.69949e-05
9.69963e-05
9.69958e-05
9.69999e-05
9.70075e-05
9.70174e-05
9.70316e-05
9.70475e-05
9.70672e-05
9.70868e-05
9.71054e-05
9.71182e-05
9.71254e-05
9.71273e-05
9.71372e-05
9.71559e-05
9.71885e-05
9.72334e-05
9.72856e-05
9.73402e-05
9.73934e-05
9.74445e-05
9.74937e-05
9.75419e-05
9.75899e-05
9.76375e-05
9.76864e-05
9.77356e-05
9.77871e-05
9.78425e-05
9.79027e-05
9.79689e-05
9.804e-05
9.80559e-05
9.80452e-05
9.80359e-05
9.80292e-05
9.8017e-05
9.7992e-05
9.79532e-05
9.79054e-05
9.78656e-05
9.78602e-05
9.79222e-05
9.81214e-05
9.85056e-05
9.89085e-05
9.90315e-05
9.88639e-05
9.84881e-05
9.80285e-05
9.76746e-05
9.74537e-05
9.72357e-05
9.64691e-05
9.47627e-05
9.50786e-05
9.57491e-05
0.000194537
7.34972e-05
7.0743e-05
6.60908e-05
6.28511e-05
6.03866e-05
5.85815e-05
5.69073e-05
5.55767e-05
5.42552e-05
5.31276e-05
5.20324e-05
5.10739e-05
5.01137e-05
4.91809e-05
4.81556e-05
4.71218e-05
4.60428e-05
4.49755e-05
4.39544e-05
4.30569e-05
4.23421e-05
4.18299e-05
4.15247e-05
4.14335e-05
4.15764e-05
4.19433e-05
4.24809e-05
4.31062e-05
4.37168e-05
4.41836e-05
4.4553e-05
4.4973e-05
4.5529e-05
4.63993e-05
4.76824e-05
4.91e-05
5.01998e-05
5.11492e-05
5.23312e-05
5.36729e-05
5.48054e-05
5.55484e-05
5.59575e-05
5.62469e-05
5.67464e-05
5.79401e-05
6.04754e-05
6.54499e-05
7.34358e-05
8.30388e-05
9.27819e-05
0.000103888
0.00011542
0.00012487
0.000118656
9.12508e-05
7.18034e-05
4.12191e-05
0.000190852
0.000194607
4.54946e-05
4.01742e-05
3.46086e-05
3.0882e-05
2.8069e-05
2.61189e-05
2.42875e-05
2.29343e-05
2.14976e-05
2.03936e-05
1.92769e-05
1.83829e-05
1.75871e-05
1.70433e-05
1.65841e-05
1.62776e-05
1.58753e-05
1.53852e-05
1.48818e-05
1.46268e-05
1.488e-05
1.56705e-05
1.6912e-05
1.8596e-05
1.99542e-05
2.07811e-05
2.09122e-05
2.04587e-05
1.96937e-05
1.89954e-05
1.84899e-05
1.79179e-05
1.74919e-05
1.74465e-05
1.81042e-05
1.94147e-05
2.09273e-05
2.26593e-05
2.48223e-05
2.73663e-05
3.01697e-05
3.31295e-05
3.62313e-05
3.9553e-05
4.31509e-05
4.69912e-05
5.09393e-05
5.54452e-05
6.12548e-05
6.84138e-05
7.62504e-05
8.69875e-05
0.000111732
0.000130937
0.000135847
0.000114724
8.84117e-05
7.33911e-05
0.000191798
0.000194472
2.79252e-05
2.16424e-05
1.70601e-05
1.44097e-05
1.24274e-05
1.1132e-05
9.85764e-06
8.95983e-06
8.14114e-06
7.94559e-06
8.27454e-06
9.35428e-06
1.1117e-05
1.36458e-05
1.70438e-05
2.11186e-05
2.66399e-05
3.36173e-05
4.20732e-05
5.17926e-05
6.22114e-05
7.2699e-05
8.1852e-05
8.87499e-05
9.31904e-05
9.4892e-05
9.37181e-05
8.97882e-05
8.35707e-05
7.58003e-05
6.71868e-05
5.85442e-05
4.98093e-05
4.14955e-05
3.40895e-05
2.86928e-05
2.64005e-05
2.60355e-05
2.68798e-05
2.85799e-05
3.08384e-05
3.35628e-05
3.67246e-05
4.0269e-05
4.41652e-05
4.83029e-05
5.24615e-05
5.65457e-05
6.05969e-05
6.47197e-05
6.96514e-05
7.82332e-05
0.000113049
0.000130726
0.00013923
0.000120559
9.11658e-05
7.15489e-05
0.000193963
0.000194479
1.69594e-05
1.0898e-05
7.38606e-06
6.07664e-06
5.93121e-06
6.72119e-06
8.20573e-06
1.0496e-05
1.36945e-05
1.80726e-05
2.38143e-05
3.10737e-05
3.97421e-05
4.96417e-05
6.05715e-05
7.23919e-05
8.53658e-05
9.94812e-05
0.000114404
0.000129677
0.000144575
0.000158339
0.000170195
0.000179875
0.00018711
0.000191572
0.000193132
0.000191584
0.000187012
0.000179541
0.00016923
0.00015624
0.0001411
0.000124304
0.000106309
8.84217e-05
7.24785e-05
5.98496e-05
4.97032e-05
4.22817e-05
3.78345e-05
3.65367e-05
3.79735e-05
4.073e-05
4.42189e-05
4.82515e-05
5.2514e-05
5.69583e-05
6.15933e-05
6.64016e-05
7.20436e-05
8.07285e-05
9.9689e-05
0.0001213
0.000129723
0.000121894
9.23418e-05
7.04748e-05
0.000196127
0.000194719
7.07235e-06
5.34335e-06
6.03078e-06
7.60088e-06
9.88201e-06
1.31236e-05
1.76874e-05
2.39494e-05
3.21909e-05
4.26196e-05
5.51718e-05
6.94975e-05
8.46122e-05
9.93284e-05
0.000112371
0.000123956
0.000135185
0.000146799
0.000159002
0.000171588
0.000184201
0.000196503
0.000208225
0.000218501
0.000226824
0.000233044
0.000237185
0.000239174
0.000239159
0.000237361
0.000233908
0.000228285
0.000220539
0.000210755
0.000198532
0.00018359
0.000165438
0.00014608
0.000126925
0.000109266
9.33223e-05
7.86924e-05
6.64981e-05
5.7909e-05
5.17931e-05
4.78338e-05
4.93278e-05
5.28592e-05
5.69549e-05
6.14055e-05
6.61072e-05
7.28055e-05
8.61407e-05
0.00010521
0.000116286
0.000111631
8.77965e-05
7.08263e-05
0.000197048
0.000195193
8.32005e-06
1.1005e-05
1.49167e-05
1.98822e-05
2.64406e-05
3.49186e-05
4.55388e-05
5.82408e-05
7.26603e-05
8.83156e-05
0.000104604
0.000121071
0.000136662
0.000149754
0.000158973
0.000165441
0.00017175
0.000178852
0.000186972
0.000196141
0.000206069
0.000216465
0.000226997
0.000237015
0.000245379
0.000252089
0.000257006
0.000260003
0.000261234
0.000261093
0.000259992
0.000257785
0.000254276
0.000249547
0.000243353
0.000235617
0.000226522
0.000215782
0.00020325
0.000190632
0.000178746
0.000166973
0.000154702
0.000139616
0.000121935
0.000100003
7.61711e-05
6.28575e-05
6.01527e-05
6.12296e-05
6.39791e-05
6.89134e-05
7.87764e-05
9.50196e-05
0.000105542
0.000103578
8.24055e-05
7.0037e-05
0.000197299
0.000195309
2.07325e-05
2.87304e-05
3.90225e-05
5.00426e-05
6.24559e-05
7.60277e-05
9.10454e-05
0.000107006
0.000123559
0.000139804
0.000155015
0.000169024
0.000181174
0.000190351
0.000194797
0.000196532
0.000198244
0.000200937
0.000205169
0.000210732
0.000217464
0.000225226
0.000233884
0.000242803
0.000250951
0.000257911
0.000263433
0.000267287
0.000269476
0.000270315
0.000270264
0.000269527
0.00026803
0.00026589
0.000262867
0.000258752
0.00025342
0.0002469
0.000238992
0.000229703
0.00022036
0.000211624
0.000204225
0.000197938
0.000190203
0.000177039
0.000156392
0.000133291
0.00011323
9.88593e-05
8.82272e-05
8.32055e-05
8.42868e-05
9.02356e-05
9.70906e-05
9.58632e-05
7.99914e-05
7.17974e-05
0.000197493
0.000194778
3.98583e-05
5.23077e-05
6.68927e-05
8.0931e-05
9.51905e-05
0.000108681
0.000123663
0.000138214
0.000152781
0.000166229
0.000178004
0.000188127
0.000196424
0.000202398
0.00020643
0.000208676
0.000209472
0.000209453
0.000210503
0.000213066
0.000216518
0.000221405
0.000228642
0.000237248
0.000245742
0.00025324
0.000259458
0.000264268
0.000267603
0.000269553
0.000270406
0.000270466
0.000269881
0.000268912
0.000267652
0.000265983
0.000263675
0.000260524
0.00025627
0.000250875
0.000244744
0.000238963
0.000234146
0.000230053
0.000225256
0.000217828
0.000207639
0.000194978
0.000180607
0.00016435
0.000145619
0.000125697
0.000109054
9.81204e-05
9.38625e-05
8.85134e-05
7.73951e-05
7.41294e-05
0.000197208
0.000194363
5.39855e-05
7.17589e-05
8.68597e-05
0.000100302
0.000111383
0.000119978
0.000128483
0.000137471
0.000146592
0.000155428
0.000163759
0.000171227
0.000177597
0.000182744
0.000186746
0.00018934
0.000190643
0.000191131
0.000191381
0.000192168
0.000194433
0.000199387
0.000207273
0.000217089
0.00022686
0.000235319
0.000242245
0.00024769
0.00025166
0.000254228
0.00025563
0.000256118
0.000255862
0.00025504
0.000253711
0.000251898
0.000249678
0.000247084
0.00024394
0.000240029
0.000235606
0.000231451
0.00022803
0.00022481
0.000220633
0.000214464
0.000205376
0.000193252
0.000178814
0.000162657
0.000145158
0.000127848
0.000113046
0.000102329
9.42001e-05
8.47379e-05
7.65281e-05
8.55115e-05
0.000196325
0.000194415
3.57529e-05
7.45884e-05
8.62561e-05
9.48146e-05
0.000102821
0.000110011
0.000117057
0.000123761
0.000129962
0.000136435
0.00014292
0.000148432
0.000152821
0.000156886
0.000161585
0.000166434
0.000170243
0.000173035
0.00017554
0.000178814
0.000182982
0.000187931
0.000193613
0.000200774
0.000209349
0.000217309
0.00022378
0.000228828
0.000232472
0.000234703
0.000235718
0.000235781
0.000235139
0.000233944
0.000232242
0.000230088
0.000227532
0.000224569
0.000221382
0.00021798
0.000214571
0.000211828
0.000209905
0.000208254
0.000205743
0.000201255
0.000193569
0.000182373
0.00016838
0.000152211
0.00013497
0.000118026
0.000103787
9.2578e-05
8.46418e-05
7.9956e-05
8.00052e-05
0.000100779
0.000196051
0.000194429
2.67904e-05
5.6173e-05
6.60192e-05
7.22832e-05
7.74967e-05
8.16172e-05
8.54094e-05
8.93323e-05
9.33143e-05
9.69094e-05
9.932e-05
0.000100812
0.000102699
0.000106115
0.000110801
0.000116186
0.000121716
0.000127746
0.000134776
0.000143939
0.000154828
0.000166057
0.000177267
0.000189113
0.000200013
0.000207811
0.000213271
0.000216863
0.000219105
0.000220488
0.000221287
0.000221517
0.000221059
0.000219767
0.000217555
0.0002144
0.000210475
0.000206259
0.000202035
0.000198057
0.000195176
0.000193559
0.000192919
0.000192525
0.000190944
0.000187019
0.000179581
0.000167647
0.000151886
0.000134014
0.000114974
9.68126e-05
8.3255e-05
7.39438e-05
7.15444e-05
7.58752e-05
8.40603e-05
0.000105037
0.00019615
0.000194298
3.25518e-05
5.89155e-05
7.22402e-05
7.55456e-05
8.0389e-05
8.51763e-05
9.01767e-05
9.50989e-05
9.94603e-05
0.000103634
0.000108439
0.00011341
0.000118077
0.000122582
0.000125866
0.000127223
0.000126778
0.000127352
0.000132198
0.000141095
0.000152272
0.000164408
0.000177297
0.000190283
0.000200826
0.000208527
0.0002144
0.000219069
0.00022267
0.0002252
0.000226569
0.000226972
0.000226816
0.000226268
0.000224911
0.000222104
0.000217774
0.000212557
0.000206936
0.00020123
0.000196768
0.00019408
0.000192774
0.000191763
0.000189483
0.000184584
0.000175712
0.000162255
0.000144843
0.00012578
0.00010701
9.08633e-05
7.78103e-05
6.83161e-05
6.78182e-05
7.50376e-05
8.47343e-05
0.00010425
0.000196284
0.000194492
3.42298e-05
4.9953e-05
6.22211e-05
7.11256e-05
7.92963e-05
8.65034e-05
9.37995e-05
0.00010132
0.000108289
0.000114432
0.000120938
0.000128151
0.000134933
0.000140927
0.000145385
0.000148351
0.000150092
0.000150339
0.000151592
0.000157627
0.00016766
0.000179748
0.000193223
0.000206935
0.000219172
0.000228789
0.000235824
0.000240889
0.000244537
0.000246987
0.000248272
0.000248496
0.000247776
0.000246203
0.000243862
0.00024074
0.000236798
0.000232137
0.000226552
0.000220188
0.000214716
0.000210969
0.000208107
0.000204938
0.000200323
0.000192701
0.00018132
0.000166457
0.000148843
0.000130051
0.000111675
9.51609e-05
8.22929e-05
7.50243e-05
7.53108e-05
7.97197e-05
8.58725e-05
0.000101657
0.000195947
0.000194343
4.37591e-05
5.81149e-05
6.53414e-05
7.37271e-05
8.23132e-05
9.12061e-05
0.000100787
0.000111207
0.000121359
0.000130767
0.000139313
0.000147276
0.000154468
0.000160114
0.000164732
0.000169199
0.000172802
0.000175094
0.000177417
0.000182566
0.000191675
0.000203333
0.00021599
0.000228272
0.000239146
0.000247765
0.000254074
0.000258605
0.000261714
0.000263513
0.000264252
0.000264065
0.000262942
0.000260869
0.000258013
0.000254547
0.000250291
0.000244812
0.000237281
0.000228534
0.000221458
0.000216019
0.000210896
0.00020477
0.000197176
0.000187297
0.000174717
0.000159271
0.000141466
0.000122852
0.00010544
9.01331e-05
7.8722e-05
7.25478e-05
7.48315e-05
8.47901e-05
8.85446e-05
9.40006e-05
0.000195745
0.00019443
5.05512e-05
5.83929e-05
6.668e-05
7.68517e-05
8.73002e-05
9.84097e-05
0.00010978
0.000122305
0.000134623
0.000147177
0.000159051
0.000169061
0.00017578
0.000180304
0.000184185
0.000187048
0.000190873
0.000195734
0.000201479
0.000207682
0.000215318
0.000224492
0.000234723
0.000245574
0.000255947
0.000263813
0.000268883
0.000271818
0.000273474
0.000274499
0.00027501
0.000274966
0.000274319
0.00027301
0.00027104
0.000267907
0.000262764
0.00025493
0.000244239
0.000233138
0.00022412
0.000216138
0.000208428
0.000199216
0.000187472
0.000172896
0.000155774
0.000137122
0.000118107
0.00010059
8.67298e-05
7.58112e-05
6.90072e-05
6.83255e-05
7.96688e-05
9.37737e-05
6.42515e-05
8.25814e-05
0.000196345
0.000194947
4.90593e-05
6.25932e-05
7.68613e-05
8.87043e-05
0.000101051
0.000112423
0.000124059
0.000135388
0.000147082
0.000160126
0.000171587
0.000180937
0.000187503
0.000192227
0.000195633
0.000199201
0.000204213
0.000210372
0.000216926
0.000223424
0.000230471
0.000237974
0.000246106
0.000255028
0.000263728
0.00027026
0.000274347
0.000276922
0.000278702
0.000279707
0.000279932
0.000279604
0.000279007
0.000278145
0.000276278
0.000272363
0.000266223
0.000258129
0.000248967
0.00024011
0.000232187
0.000224512
0.000216139
0.000205672
0.000192077
0.00017548
0.0001564
0.000136576
0.00011733