/*--------------------------------*- C++ -*----------------------------------*\
| =========                 |                                                 |
| \\      /  F ield         | OpenFOAM: The Open Source CFD Toolbox           |
|  \\    /   O peration     | Version:  2.1.1                                 |
|   \\  /    A nd           | Web:      www.OpenFOAM.org                      |
|    \\/     M anipulation  |                                                 |
\*---------------------------------------------------------------------------*/
FoamFile
{
    version     2.0;
    format      ascii;
    class       volScalarField;
    location    "0.0015";
    object      nut;
}
// * * * * * * * * * * * * * * * * * * * * * * * * * * * * * * * * * * * * * //

dimensions      [0 2 -1 0 0 0 0];

internalField   nonuniform List<scalar> 
36520
(
1.13528e-05
1.39476e-05
1.93738e-05
2.17161e-05
2.35327e-05
2.48158e-05
2.59335e-05
2.69093e-05
2.7809e-05
2.86401e-05
2.94004e-05
3.01015e-05
3.07256e-05
3.12877e-05
3.17635e-05
3.21916e-05
3.25707e-05
3.29239e-05
3.32252e-05
3.3451e-05
3.35577e-05
3.35028e-05
3.32459e-05
3.27549e-05
3.20032e-05
3.0977e-05
2.9692e-05
2.82495e-05
2.68836e-05
2.57104e-05
2.47532e-05
2.39439e-05
2.31963e-05
2.24699e-05
2.17563e-05
2.1079e-05
2.04623e-05
1.99748e-05
1.96951e-05
1.96966e-05
2.00241e-05
2.07033e-05
2.1747e-05
2.31414e-05
2.48637e-05
2.69034e-05
2.92991e-05
3.22247e-05
3.60946e-05
4.13033e-05
4.78912e-05
5.77219e-05
6.58952e-05
6.94635e-05
6.78378e-05
6.19696e-05
5.4589e-05
4.63229e-05
2.36263e-05
1.87414e-05
2.05016e-05
9.73919e-06
1.07323e-05
1.02858e-05
1.00658e-05
9.87125e-06
9.84407e-06
9.79523e-06
9.77739e-06
9.71046e-06
9.62061e-06
9.48341e-06
9.33444e-06
9.14709e-06
8.96357e-06
8.76623e-06
8.57591e-06
8.35277e-06
8.067e-06
7.65946e-06
7.09267e-06
6.38129e-06
5.55185e-06
4.6849e-06
3.85726e-06
3.24855e-06
3.0397e-06
2.88785e-06
2.54534e-06
2.45453e-06
2.56018e-06
2.55621e-06
2.50484e-06
2.46648e-06
2.46459e-06
2.50816e-06
2.591e-06
2.733e-06
2.96636e-06
3.3274e-06
3.85376e-06
4.57603e-06
5.50119e-06
6.62402e-06
7.98371e-06
9.67637e-06
1.18763e-05
1.4994e-05
1.97312e-05
2.67956e-05
3.51255e-05
4.63876e-05
7.19698e-05
9.54696e-05
9.46812e-05
7.20152e-05
5.06532e-05
4.29476e-05
1.17737e-05
3.72194e-05
1.48498e-05
3.78528e-06
3.80882e-06
3.27999e-06
2.97589e-06
2.74245e-06
2.64847e-06
2.54908e-06
2.49453e-06
2.41286e-06
2.33209e-06
2.23219e-06
2.14538e-06
2.08222e-06
2.08976e-06
2.19849e-06
2.44889e-06
2.85069e-06
3.43906e-06
4.24621e-06
5.31172e-06
6.65516e-06
8.2524e-06
1.0021e-05
1.18005e-05
1.33265e-05
1.43679e-05
1.28259e-05
8.64643e-06
4.42985e-06
1.97899e-06
1.00549e-06
6.46664e-07
4.91885e-07
4.20241e-07
4.11656e-07
4.70263e-07
5.82233e-07
7.2845e-07
9.21507e-07
1.18159e-06
1.53404e-06
1.99766e-06
2.60087e-06
3.41004e-06
4.55836e-06
6.27256e-06
8.90454e-06
1.29216e-05
1.8802e-05
2.77925e-05
3.91716e-05
5.2419e-05
5.73838e-05
5.98639e-05
5.88598e-05
3.74075e-05
3.7713e-05
1.59653e-05
3.56892e-05
1.0773e-05
1.42664e-06
1.20917e-06
9.33397e-07
7.93483e-07
7.01701e-07
6.79123e-07
6.77659e-07
7.29171e-07
8.30556e-07
1.03401e-06
1.39943e-06
2.04464e-06
3.12959e-06
4.85582e-06
7.39088e-06
1.08894e-05
1.55395e-05
2.15989e-05
2.93017e-05
3.88279e-05
5.00171e-05
6.22193e-05
7.42728e-05
8.41598e-05
8.85742e-05
8.4834e-05
7.20576e-05
5.1213e-05
3.01982e-05
1.61028e-05
9.3461e-06
6.39257e-06
4.78313e-06
3.58641e-06
2.52449e-06
1.70502e-06
1.15613e-06
8.60384e-07
7.64675e-07
8.1416e-07
9.7563e-07
1.23268e-06
1.59559e-06
2.10782e-06
2.86937e-06
4.04287e-06
5.89443e-06
8.71663e-06
1.25827e-05
1.75555e-05
2.77908e-05
3.3146e-05
3.34426e-05
3.56213e-05
3.86601e-05
1.86008e-05
2.29576e-05
1.43976e-05
3.47891e-05
8.65286e-06
5.09877e-07
3.8538e-07
3.31614e-07
3.77378e-07
4.99456e-07
7.30747e-07
1.12587e-06
1.79713e-06
2.9284e-06
4.82378e-06
7.91644e-06
1.2696e-05
1.96282e-05
2.88941e-05
4.00161e-05
5.24482e-05
6.64012e-05
8.25122e-05
0.000101842
0.000125177
0.000152716
0.000183713
0.000216735
0.000249295
0.000272038
0.00026594
0.000232745
0.000182141
0.00012726
8.462e-05
6.04684e-05
4.85331e-05
4.15075e-05
3.58142e-05
2.97198e-05
2.39743e-05
1.88688e-05
1.48789e-05
1.22373e-05
9.8485e-06
7.3708e-06
4.9779e-06
3.16994e-06
2.87879e-06
3.05532e-06
3.35771e-06
4.01106e-06
5.50072e-06
7.64227e-06
1.02474e-05
1.43697e-05
1.43528e-05
1.74923e-05
2.37531e-05
3.25289e-05
1.55183e-05
1.59356e-05
1.21579e-05
3.46108e-05
8.51932e-06
3.58302e-07
4.9932e-07
7.94749e-07
1.30204e-06
2.17813e-06
3.59162e-06
5.88892e-06
9.51483e-06
1.50966e-05
2.34507e-05
3.54159e-05
5.14181e-05
7.10218e-05
9.27202e-05
0.000113574
0.00013212
0.00014987
0.000168552
0.000190847
0.000218909
0.000252085
0.000289958
0.000330226
0.000373142
0.000415513
0.000434603
0.00041379
0.000367509
0.000302848
0.000240363
0.000197312
0.000171565
0.000155719
0.000144701
0.000134263
0.000124117
0.000112747
0.0001011
9.24051e-05
8.44466e-05
7.5601e-05
6.4486e-05
5.11286e-05
4.24277e-05
3.62321e-05
3.03508e-05
2.27911e-05
1.53542e-05
1.0187e-05
9.28399e-06
1.04733e-05
1.29221e-05
1.52367e-05
2.0811e-05
3.28809e-05
2.48875e-05
1.48246e-05
1.22098e-05
3.48099e-05
1.16013e-05
1.15603e-06
2.09493e-06
3.64775e-06
5.95342e-06
9.62554e-06
1.48937e-05
2.24862e-05
3.29679e-05
4.72723e-05
6.58392e-05
8.97118e-05
0.00011873
0.000150465
0.000180088
0.000204135
0.000224145
0.000241845
0.000256316
0.00027318
0.000296547
0.000323733
0.000351445
0.000377504
0.000404966
0.000437033
0.00046549
0.00047167
0.000453993
0.000416944
0.000372871
0.00033321
0.000301522
0.0002758
0.000255615
0.000240653
0.000230339
0.00022244
0.000214492
0.00020747
0.000202229
0.000195668
0.000189025
0.000175231
0.00015465
0.000133094
0.000112813
9.24161e-05
7.12021e-05
5.18603e-05
3.90014e-05
3.07089e-05
2.71055e-05
2.54608e-05
2.83009e-05
3.74135e-05
3.13237e-05
1.87811e-05
1.45301e-05
3.57955e-05
1.92904e-05
3.94151e-06
7.30152e-06
1.27269e-05
1.95041e-05
2.95135e-05
4.12008e-05
5.54043e-05
7.14104e-05
9.30248e-05
0.000115782
0.000140229
0.000165603
0.000187853
0.000206768
0.000224848
0.000244369
0.000263376
0.00027989
0.00029497
0.00031052
0.000326604
0.000341394
0.000355317
0.000368823
0.000385432
0.000406983
0.000425618
0.000431356
0.000422049
0.000404607
0.000388658
0.000373271
0.000353792
0.000329932
0.00030662
0.000288414
0.000275718
0.000265938
0.000258411
0.000254073
0.000251015
0.000247802
0.000242758
0.00023192
0.0002129
0.000186157
0.000155286
0.000124253
9.66161e-05
7.46316e-05
5.80613e-05
4.53305e-05
3.74202e-05
3.45824e-05
3.91009e-05
3.69047e-05
2.52988e-05
1.83549e-05
3.65243e-05
2.74528e-05
1.04077e-05
2.28002e-05
3.69084e-05
4.83675e-05
6.80192e-05
8.1087e-05
9.3306e-05
0.000104205
0.000114574
0.000125186
0.000136639
0.000149869
0.00016446
0.000176726
0.000183661
0.000189201
0.000197619
0.000206119
0.00021305
0.000220734
0.000231713
0.000245744
0.000260875
0.000276255
0.00028976
0.000300574
0.000309805
0.000317955
0.00032228
0.000322029
0.000320423
0.00032016
0.000320504
0.000317426
0.00030626
0.000289784
0.000275164
0.000264241
0.000254886
0.000246635
0.000240119
0.000234708
0.000229728
0.000223915
0.000215422
0.000202744
0.000184989
0.000162149
0.000135917
0.000108945
8.44322e-05
6.31346e-05
4.81523e-05
3.86567e-05
3.5315e-05
3.1285e-05
2.25557e-05
1.87453e-05
3.48933e-05
2.3692e-05
7.6621e-06
1.93836e-05
2.81559e-05
3.62964e-05
4.36199e-05
4.99639e-05
5.58043e-05
6.1786e-05
6.78374e-05
7.42553e-05
8.14767e-05
9.02758e-05
0.000101675
0.00011439
0.000124349
0.000129578
0.00013342
0.000138744
0.000146202
0.000155527
0.000166511
0.000178817
0.000191605
0.000204971
0.000217994
0.000229068
0.000237521
0.000244075
0.000248909
0.000252621
0.000257523
0.000264036
0.000270957
0.000276303
0.000278458
0.000275735
0.000265785
0.000250664
0.000235861
0.000223824
0.000215057
0.000209396
0.000205931
0.00020379
0.000201766
0.000197307
0.000188469
0.000174082
0.000154335
0.000130303
0.00010478
8.01753e-05
5.90746e-05
4.39692e-05
3.60768e-05
2.86671e-05
2.06425e-05
1.96589e-05
3.34346e-05
1.91217e-05
5.19644e-06
2.14128e-05
3.23951e-05
3.95547e-05
4.6987e-05
5.39843e-05
6.03699e-05
6.5938e-05
7.06625e-05
7.55251e-05
8.21962e-05
9.13934e-05
0.000103183
0.000115184
0.000123921
0.000126848
0.000128021
0.00013146
0.000137205
0.000143835
0.000150383
0.000158305
0.000168893
0.000181824
0.000194614
0.000206086
0.000217263
0.000227546
0.000235955
0.000244241
0.000252186
0.000260129
0.00026828
0.000275706
0.000281419
0.000283952
0.00028
0.000268208
0.000253357
0.000239492
0.000228395
0.000221335
0.000217846
0.000216395
0.000215521
0.000213267
0.000208033
0.000197833
0.000181503
0.000158915
0.000132018
0.000101974
7.23268e-05
5.19763e-05
4.32707e-05
3.58733e-05
2.65503e-05
2.24546e-05
3.59695e-05
2.25038e-05
7.40273e-06
1.39332e-05
2.01452e-05
2.63298e-05
3.77292e-05
4.71044e-05
5.54214e-05
6.28951e-05
7.10847e-05
8.12078e-05
9.3948e-05
0.000108572
0.000122887
0.000132377
0.000133879
0.000130435
0.000128019
0.000129912
0.000135136
0.000142278
0.000149862
0.000158628
0.00016892
0.000177309
0.000185375
0.000195267
0.000207918
0.000224282
0.000243051
0.000254317
0.000260496
0.000270078
0.000279832
0.000288207
0.000294662
0.000296598
0.000291328
0.0002792
0.000264697
0.000249674
0.000236888
0.000228784
0.000224934
0.00022371
0.00022298
0.000220734
0.00021436
0.00020189
0.000182322
0.000155381
0.000123338
8.59981e-05
5.34928e-05
3.74391e-05
3.82138e-05
4.56551e-05
3.78359e-05
2.5385e-05
4.02694e-05
2.31936e-05
7.00418e-06
1.18737e-05
1.62796e-05
2.05771e-05
2.8823e-05
3.76981e-05
4.70183e-05
5.58904e-05
6.50447e-05
7.56476e-05
8.87217e-05
0.000103389
0.000116568
0.000123289
0.00012229
0.000117486
0.000113658
0.000113853
0.000117814
0.000123759
0.000129527
0.000135516
0.000143436
0.0001504
0.000155565
0.0001644
0.000177726
0.000196211
0.000221132
0.000249092
0.000268615
0.000279028
0.000286742
0.000293046
0.000298206
0.000300116
0.000296362
0.000285243
0.00026997
0.000254169
0.000240346
0.000231276
0.000226057
0.000223298
0.000221708
0.000218749
0.000211033
0.000194636
0.000164855
0.000128111
9.13251e-05
5.79736e-05
3.47688e-05
2.98722e-05
3.79855e-05
4.71852e-05
3.91534e-05
2.72426e-05
4.0808e-05
2.07233e-05
5.61834e-06
2.30825e-05
3.53724e-05
3.47289e-05
3.80095e-05
4.29568e-05
4.9562e-05
5.67704e-05
6.38745e-05
7.07211e-05
7.77693e-05
8.44817e-05
8.96117e-05
9.12804e-05
8.99425e-05
8.92038e-05
9.24717e-05
9.99604e-05
0.000109424
0.000118746
0.000126346
0.00013178
0.000135159
0.00013718
0.000137405
0.000139563
0.000148253
0.000163518
0.000185885
0.000216184
0.000248133
0.000270516
0.000283532
0.000291538
0.000296258
0.000298191
0.00029688
0.000288612
0.000272891
0.000255411
0.000240284
0.000228668
0.000221089
0.000215903
0.000210977
0.000204315
0.000193504
0.000177366
0.000154864
0.000126797
9.68754e-05
6.7991e-05
4.42421e-05
3.13275e-05
3.06124e-05
3.15924e-05
2.90595e-05
2.75436e-05
3.78298e-05
2.21809e-05
4.87564e-06
1.20285e-05
2.46683e-05
3.03062e-05
3.57745e-05
4.03805e-05
4.45535e-05
4.83125e-05
5.14835e-05
5.37964e-05
5.51305e-05
5.53346e-05
5.52586e-05
5.78078e-05
6.47859e-05
7.7995e-05
9.70716e-05
0.000119993
0.000145161
0.000167408
0.000182609
0.000191342
0.000194509
0.000194818
0.000193302
0.000187643
0.000181225
0.000179364
0.000187451
0.000206748
0.000236575
0.000268049
0.000290789
0.000302431
0.000308502
0.000309821
0.000302973
0.000287172
0.000268076
0.000249623
0.000233788
0.000221419
0.000212001
0.000203298
0.000192714
0.000176917
0.000156171
0.000134039
0.000111194
8.85232e-05
6.84761e-05
5.16075e-05
3.82366e-05
2.99961e-05
2.9579e-05
3.17394e-05
2.94786e-05
2.72462e-05
3.77039e-05
2.49665e-05
7.18405e-06
1.58419e-05
2.81863e-05
4.1576e-05
5.35023e-05
6.41804e-05
7.50488e-05
8.67193e-05
9.83934e-05
0.000109394
0.000119498
0.000129078
0.000139486
0.000155283
0.000178643
0.000206217
0.000232842
0.000254616
0.000268879
0.000279559
0.000290469
0.000299876
0.000305314
0.000307251
0.000305977
0.000299066
0.000284597
0.000272768
0.000273054
0.000286213
0.000308364
0.000326048
0.000333325
0.000333322
0.000328784
0.000319936
0.00030579
0.000286675
0.000264805
0.000244987
0.000230066
0.000218244
0.000205254
0.000189157
0.000168791
0.000145955
0.000124301
0.000105233
8.74321e-05
7.13506e-05
5.69969e-05
4.43068e-05
3.53505e-05
3.09705e-05
3.08895e-05
3.23227e-05
3.01732e-05
2.70863e-05
3.78028e-05
2.04636e-05
4.49754e-06
8.25524e-06
1.44446e-05
2.2276e-05
3.22002e-05
4.35571e-05
5.76434e-05
7.64409e-05
9.87379e-05
0.000122936
0.000152339
0.000188249
0.000228094
0.000259901
0.000274033
0.000272103
0.000263528
0.000264024
0.000276063
0.000297503
0.000324621
0.000350794
0.000371751
0.000386699
0.000394929
0.000397624
0.000400223
0.000403073
0.000404909
0.000405235
0.000396357
0.000383892
0.000373698
0.000361104
0.000343976
0.000324454
0.000302192
0.000277442
0.000254718
0.000238307
0.000226466
0.000216733
0.000205792
0.000190611
0.00016956
0.000144632
0.000120497
9.89744e-05
7.93864e-05
6.28889e-05
4.97725e-05
3.9436e-05
3.30385e-05
3.0345e-05
3.17975e-05
3.37079e-05
2.72048e-05
2.30863e-05
3.77694e-05
1.1459e-05
9.98326e-07
1.79871e-06
3.1172e-06
5.07846e-06
8.02109e-06
1.21557e-05
1.80201e-05
2.6282e-05
3.74469e-05
5.26798e-05
7.34071e-05
9.96778e-05
0.000127139
0.000146202
0.000152863
0.000153393
0.00015795
0.000171501
0.000190723
0.00021587
0.000246024
0.000276201
0.000303504
0.000331342
0.000358493
0.000381275
0.000397299
0.000400379
0.000391181
0.000377043
0.000361149
0.000343613
0.00032053
0.000295049
0.00027042
0.000246976
0.000223452
0.000201811
0.000185461
0.00017399
0.000164722
0.00015696
0.000149129
0.000140086
0.000123687
0.000103059
8.50684e-05
6.8442e-05
5.21176e-05
4.15986e-05
3.57758e-05
3.20549e-05
3.11683e-05
3.2171e-05
4.11602e-05
4.14394e-05
2.58439e-05
2.00777e-05
3.74e-05
8.89274e-06
2.8204e-07
3.43293e-07
5.04703e-07
7.57332e-07
1.13303e-06
1.67455e-06
2.47338e-06
3.68768e-06
5.53719e-06
8.39399e-06
1.26939e-05
1.87682e-05
2.63168e-05
3.41718e-05
4.05334e-05
4.41245e-05
5.02868e-05
5.98614e-05
7.23999e-05
8.84649e-05
0.000107799
0.000129344
0.000152744
0.000177961
0.000203625
0.000226726
0.000244377
0.000253317
0.000252152
0.000240964
0.000217343
0.000181529
0.000145904
0.000119324
9.93961e-05
8.25326e-05
6.70414e-05
5.34735e-05
4.52573e-05
4.28763e-05
4.67195e-05
5.07601e-05
5.30831e-05
5.01015e-05
3.96935e-05
3.04249e-05
2.45743e-05
1.99899e-05
1.85702e-05
2.0841e-05
2.65053e-05
3.41018e-05
3.79217e-05
3.99194e-05
5.20688e-05
4.75321e-05
2.61062e-05
1.82867e-05
3.69652e-05
9.44175e-06
5.01189e-07
2.89331e-07
2.13492e-07
2.05287e-07
2.21243e-07
2.61973e-07
3.19063e-07
4.06894e-07
5.41377e-07
7.5907e-07
1.10811e-06
1.65381e-06
2.45319e-06
3.51959e-06
4.79585e-06
5.68802e-06
7.35808e-06
9.93441e-06
1.36026e-05
1.87324e-05
2.55256e-05
3.40025e-05
4.40787e-05
5.5547e-05
6.78003e-05
7.95394e-05
8.95436e-05
9.69108e-05
9.81181e-05
8.8247e-05
6.82286e-05
4.52793e-05
2.85419e-05
1.88225e-05
1.29575e-05
8.89864e-06
5.88747e-06
3.85256e-06
3.19285e-06
3.46802e-06
4.02723e-06
4.64028e-06
5.38215e-06
6.44621e-06
6.87333e-06
8.30008e-06
1.06608e-05
1.39329e-05
1.83852e-05
2.4332e-05
3.68533e-05
5.1919e-05
5.40718e-05
5.1769e-05
6.0105e-05
5.0156e-05
2.99505e-05
1.78989e-05
3.63874e-05
1.19756e-05
1.45902e-06
9.74587e-07
6.9255e-07
5.67086e-07
4.79333e-07
4.48721e-07
4.142e-07
3.95104e-07
3.69236e-07
3.465e-07
3.24748e-07
3.22977e-07
3.52206e-07
4.24214e-07
5.44214e-07
6.6142e-07
8.581e-07
1.16042e-06
1.61437e-06
2.29863e-06
3.29195e-06
4.66138e-06
6.44785e-06
8.66408e-06
1.12536e-05
1.40654e-05
1.68972e-05
1.9691e-05
1.99462e-05
1.6321e-05
1.05114e-05
5.5931e-06
2.91456e-06
1.72088e-06
1.19495e-06
9.80538e-07
9.58746e-07
1.07693e-06
1.31872e-06
1.70629e-06
2.2728e-06
3.09344e-06
4.27588e-06
5.9666e-06
8.32412e-06
1.15813e-05
1.59995e-05
2.18002e-05
2.86286e-05
3.7728e-05
5.54235e-05
6.91994e-05
6.63262e-05
6.04916e-05
6.69188e-05
4.94063e-05
3.26727e-05
1.82834e-05
3.5697e-05
1.57166e-05
3.91231e-06
3.24601e-06
2.57703e-06
2.25559e-06
2.01315e-06
1.91894e-06
1.81065e-06
1.74929e-06
1.65121e-06
1.54538e-06
1.40534e-06
1.27242e-06
1.16683e-06
1.12344e-06
1.13769e-06
1.17705e-06
1.21331e-06
1.21219e-06
1.17236e-06
1.10648e-06
1.04201e-06
1.0012e-06
1.00925e-06
1.08096e-06
1.23107e-06
1.46592e-06
1.79173e-06
2.19363e-06
2.17447e-06
1.65139e-06
9.94286e-07
5.95023e-07
4.91217e-07
5.40877e-07
6.4052e-07
7.70426e-07
9.504e-07
1.21041e-06
1.59104e-06
2.13483e-06
2.91813e-06
4.05327e-06
5.70107e-06
8.10142e-06
1.15656e-05
1.65277e-05
2.33371e-05
3.2303e-05
4.32228e-05
5.77333e-05
7.62949e-05
8.36104e-05
8.58665e-05
8.53949e-05
9.25187e-05
7.69552e-05
4.84735e-05
1.77438e-05
3.56723e-05
2.2177e-05
9.99982e-06
1.01151e-05
9.34797e-06
8.98783e-06
8.68086e-06
8.56492e-06
8.40596e-06
8.30401e-06
8.13594e-06
7.93926e-06
7.67763e-06
7.41236e-06
7.17426e-06
7.02413e-06
6.95047e-06
6.91026e-06
6.84051e-06
6.6688e-06
6.37056e-06
5.94663e-06
5.43037e-06
4.84166e-06
4.22238e-06
3.5927e-06
3.01743e-06
2.56488e-06
2.27191e-06
2.13996e-06
2.09581e-06
2.15615e-06
2.29971e-06
2.44019e-06
2.5477e-06
2.64636e-06
2.76698e-06
2.94098e-06
3.20278e-06
3.58788e-06
4.10622e-06
4.72373e-06
5.49771e-06
6.50316e-06
7.92686e-06
1.01926e-05
1.3778e-05
1.94224e-05
2.76789e-05
3.90512e-05
5.08508e-05
6.36069e-05
8.25556e-05
0.000106702
0.000134153
0.000156741
0.000167539
0.000128085
5.26797e-05
8.0678e-06
3.80328e-05
1.36339e-05
1.64399e-05
2.11873e-05
2.31615e-05
2.46972e-05
2.57836e-05
2.67261e-05
2.75545e-05
2.83069e-05
2.9001e-05
2.96122e-05
3.01391e-05
3.05648e-05
3.0903e-05
3.11763e-05
3.14213e-05
3.16786e-05
3.19215e-05
3.21244e-05
3.22486e-05
3.22549e-05
3.21182e-05
3.18249e-05
3.13695e-05
3.07569e-05
2.99906e-05
2.90796e-05
2.80515e-05
2.69336e-05
2.58776e-05
2.49316e-05
2.41029e-05
2.33651e-05
2.26876e-05
2.20612e-05
2.15172e-05
2.11065e-05
2.08823e-05
2.08581e-05
2.10239e-05
2.13874e-05
2.1905e-05
2.24932e-05
2.30663e-05
2.37078e-05
2.47054e-05
2.6596e-05
2.91899e-05
3.2255e-05
3.61277e-05
4.20322e-05
5.22295e-05
6.33135e-05
6.74941e-05
7.06401e-05
7.21294e-05
6.06075e-05
4.52432e-05
2.59269e-05
2.14079e-05
1.28342e-05
1.60177e-05
2.11201e-05
2.33211e-05
2.50338e-05
2.61436e-05
2.7156e-05
2.7941e-05
2.86526e-05
2.92651e-05
2.97899e-05
3.02537e-05
3.06238e-05
3.09549e-05
3.1219e-05
3.14758e-05
3.16935e-05
3.18858e-05
3.19973e-05
3.20134e-05
3.19031e-05
3.16639e-05
3.1294e-05
3.08038e-05
3.02053e-05
2.9517e-05
2.87538e-05
2.79362e-05
2.70776e-05
2.61929e-05
2.52869e-05
2.43715e-05
2.34523e-05
2.25428e-05
2.16498e-05
2.0812e-05
2.01431e-05
1.9727e-05
1.96032e-05
1.97983e-05
2.03005e-05
2.10486e-05
2.19383e-05
2.28631e-05
2.37951e-05
2.48294e-05
2.62559e-05
2.88494e-05
3.38238e-05
4.18409e-05
5.32792e-05
6.66464e-05
7.67574e-05
7.99955e-05
7.82143e-05
7.06819e-05
5.6515e-05
4.45634e-05
2.79986e-05
2.2918e-05
2.03238e-05
8.85434e-06
9.2113e-06
8.43938e-06
7.9136e-06
7.48114e-06
7.21265e-06
6.90172e-06
6.68109e-06
6.40852e-06
6.17811e-06
5.92129e-06
5.70359e-06
5.48416e-06
5.33207e-06
5.18587e-06
5.06249e-06
4.89695e-06
4.68863e-06
4.43532e-06
4.16436e-06
3.90592e-06
3.66975e-06
3.47217e-06
3.31297e-06
3.19263e-06
3.11523e-06
3.07995e-06
3.08093e-06
3.10343e-06
3.13144e-06
3.1523e-06
3.1625e-06
3.16638e-06
3.18617e-06
3.25894e-06
3.41455e-06
3.66643e-06
4.05389e-06
4.61094e-06
5.32785e-06
6.14913e-06
7.03479e-06
7.9853e-06
9.05005e-06
1.03367e-05
1.20411e-05
1.45262e-05
1.87185e-05
2.59955e-05
3.73813e-05
5.39019e-05
7.67774e-05
0.000106831
0.000129064
0.00011889
6.53587e-05
3.48941e-05
1.01132e-05
4.03734e-05
1.3803e-05
3.00204e-06
2.54243e-06
1.94374e-06
1.58291e-06
1.32847e-06
1.16962e-06
1.01739e-06
9.14169e-07
7.99371e-07
7.1644e-07
6.31289e-07
5.67817e-07
5.16777e-07
4.95023e-07
4.87525e-07
4.94133e-07
4.96553e-07
4.95164e-07
4.96959e-07
5.19723e-07
5.80547e-07
6.86069e-07
8.39781e-07
1.06806e-06
1.26454e-06
1.3926e-06
1.41504e-06
1.34371e-06
1.22132e-06
1.11282e-06
1.03964e-06
9.54349e-07
8.75975e-07
8.21891e-07
8.14562e-07
8.75301e-07
1.0208e-06
1.23871e-06
1.55988e-06
2.01531e-06
2.63727e-06
3.4574e-06
4.50975e-06
5.85779e-06
7.56763e-06
9.67305e-06
1.2109e-05
1.50202e-05
1.88893e-05
2.43286e-05
3.22305e-05
4.52754e-05
7.73688e-05
0.00010559
0.000112721
6.95542e-05
4.06118e-05
1.9647e-05
3.69149e-05
1.03321e-05
1.01316e-06
6.47562e-07
4.09301e-07
2.98112e-07
2.26698e-07
1.88803e-07
1.56044e-07
1.40113e-07
1.29171e-07
1.38056e-07
1.65772e-07
2.28119e-07
3.39722e-07
5.31985e-07
8.57977e-07
1.34942e-06
2.20922e-06
3.62215e-06
5.85319e-06
9.17377e-06
1.37232e-05
1.94869e-05
2.55384e-05
3.07233e-05
3.44359e-05
3.61335e-05
3.55056e-05
3.26813e-05
2.82808e-05
2.32396e-05
1.83112e-05
1.40686e-05
1.03078e-05
7.20096e-06
4.81009e-06
3.28444e-06
2.67259e-06
2.51191e-06
2.60901e-06
2.94542e-06
3.52572e-06
4.38265e-06
5.56586e-06
7.11727e-06
9.09971e-06
1.15399e-05
1.43782e-05
1.75402e-05
2.09464e-05
2.4517e-05
2.89328e-05
3.72993e-05
7.79348e-05
9.94628e-05
0.000116043
7.41397e-05
3.7106e-05
1.88765e-05
3.53979e-05
8.57717e-06
3.51634e-07
1.66726e-07
9.31158e-08
7.75152e-08
8.65787e-08
1.22168e-07
1.92731e-07
3.24922e-07
5.61757e-07
9.85393e-07
1.72142e-06
2.96204e-06
4.93883e-06
7.92388e-06
1.2238e-05
1.82028e-05
2.6489e-05
3.77144e-05
5.2343e-05
7.05837e-05
9.19623e-05
0.000115358
0.000138195
0.000158615
0.000175069
0.000185988
0.000190489
0.000187823
0.000178462
0.000163529
0.000144349
0.000122351
9.9513e-05
7.69901e-05
5.58479e-05
3.81295e-05
2.54739e-05
1.74155e-05
1.19941e-05
8.57266e-06
6.67696e-06
6.00242e-06
6.4364e-06
7.59277e-06
9.25857e-06
1.149e-05
1.43439e-05
1.78022e-05
2.18434e-05
2.64916e-05
3.25322e-05
4.15387e-05
6.09329e-05
8.21014e-05
9.14399e-05
7.73658e-05
3.79749e-05
1.71338e-05
3.58053e-05
7.47833e-06
1.11593e-07
8.92395e-08
1.29331e-07
2.16853e-07
3.77586e-07
6.74945e-07
1.2283e-06
2.23591e-06
3.98785e-06
6.88424e-06
1.13758e-05
1.79208e-05
2.67108e-05
3.75587e-05
4.97438e-05
6.31454e-05
7.86513e-05
9.71213e-05
0.000119371
0.00014572
0.000175902
0.000209241
0.000244256
0.000277288
0.000305707
0.000328043
0.000343708
0.000351835
0.000352699
0.000347145
0.000336172
0.000318729
0.000295738
0.000268381
0.000235726
0.000198786
0.00015897
0.000123387
9.31628e-05
6.9385e-05
5.10864e-05
3.65569e-05
2.62751e-05
2.0423e-05
1.65336e-05
1.31737e-05
1.26337e-05
1.48176e-05
1.80656e-05
2.2054e-05
2.66427e-05
3.24927e-05
4.26801e-05
6.02164e-05
6.82869e-05
6.11854e-05
3.34418e-05
1.73591e-05
3.66765e-05
8.02855e-06
2.67995e-07
5.10992e-07
9.83403e-07
1.80363e-06
3.26979e-06
5.82681e-06
1.01026e-05
1.67568e-05
2.63158e-05
3.90224e-05
5.46255e-05
7.26867e-05
9.18785e-05
0.000109717
0.000124437
0.00013644
0.000150158
0.000167107
0.000187922
0.000213633
0.000244406
0.000279978
0.00031902
0.000358282
0.000392059
0.000419821
0.000440505
0.000453297
0.000458869
0.000459011
0.000455318
0.000447189
0.000434021
0.000417141
0.000396201
0.000372591
0.000346688
0.00031929
0.000289978
0.000262001
0.000237367
0.00021194
0.000184817
0.000151927
0.000117619
7.90978e-05
4.29196e-05
2.53956e-05
2.12795e-05
2.17977e-05
2.38688e-05
2.71577e-05
3.27879e-05
4.53316e-05
5.38463e-05
5.25209e-05
2.9929e-05
1.72696e-05
3.68606e-05
1.37918e-05
1.83381e-06
3.90098e-06
7.61183e-06
1.31698e-05
2.15286e-05
3.34146e-05
5.00166e-05
7.14455e-05
9.78574e-05
0.000128076
0.000160004
0.000192144
0.000221323
0.000241123
0.00024617
0.000244624
0.000244134
0.000247661
0.000256834
0.000272332
0.000294794
0.000323917
0.000358871
0.000396944
0.000432534
0.000462822
0.000486143
0.000501497
0.000509308
0.000511643
0.000510583
0.000506711
0.000499289
0.00048877
0.000474787
0.000457919
0.000439671
0.000421165
0.000402748
0.000383511
0.000367802
0.00035675
0.000350487
0.000345735
0.000331563
0.000293289
0.000224047
0.000153055
0.000103035
7.43846e-05
5.60374e-05
4.6661e-05
4.39201e-05
4.5436e-05
4.81688e-05
4.62854e-05
2.88963e-05
1.81694e-05
3.68214e-05
2.62421e-05
7.71747e-06
1.53892e-05
2.71338e-05
4.19991e-05
6.11654e-05
8.31868e-05
0.000113246
0.000148135
0.000187308
0.000226515
0.000263132
0.000296581
0.000325192
0.000345185
0.000354426
0.000352026
0.000341875
0.000326908
0.00031669
0.000313522
0.000314916
0.000322289
0.000340429
0.000368826
0.000400072
0.000428286
0.000451375
0.000468282
0.000478229
0.000482177
0.00048251
0.000480992
0.000477878
0.0004733
0.000466331
0.000456049
0.00044347
0.000430325
0.000417657
0.000403984
0.000389618
0.000377303
0.000367695
0.000358808
0.000346236
0.000325972
0.000297067
0.000263058
0.000228603
0.000192953
0.00015384
0.000113643
8.21828e-05
6.13894e-05
5.08846e-05
4.15781e-05
2.77017e-05
1.89951e-05
3.62734e-05
3.64365e-05
2.02483e-05
4.18684e-05
6.55357e-05
8.97521e-05
0.000114337
0.00013377
0.00015334
0.000175415
0.000199879
0.000225117
0.000247909
0.000266008
0.000280187
0.000292346
0.000304405
0.000315321
0.000323575
0.000324723
0.000316274
0.000302497
0.000287695
0.00027652
0.000275934
0.000287481
0.00030631
0.000326161
0.000343851
0.000358178
0.000368107
0.000373299
0.000374425
0.000372931
0.000370031
0.000366553
0.000362587
0.000357477
0.000350764
0.000341918
0.00033178
0.000321065
0.000309382
0.000297234
0.000285866
0.000275567
0.000264138
0.00024841
0.000226366
0.000198663
0.000168485
0.000137973
0.000108603
8.29004e-05
6.32553e-05
4.98406e-05
4.00861e-05
2.98924e-05
2.10755e-05
1.93659e-05
3.39947e-05
2.83808e-05
6.67903e-06
4.40004e-05
6.14493e-05
7.33054e-05
8.63447e-05
9.89093e-05
0.000111944
0.000124585
0.000135916
0.000148173
0.000160572
0.000169136
0.000173129
0.000176931
0.000185261
0.00019827
0.000211486
0.000219023
0.000219776
0.000219957
0.000222218
0.000229802
0.00023825
0.000244844
0.000256328
0.000270108
0.000282172
0.000291665
0.000298349
0.000301746
0.000301899
0.000299264
0.000294461
0.000288163
0.000280861
0.00027276
0.000263401
0.000252388
0.000241244
0.000230641
0.000220631
0.0002119
0.000204859
0.000199464
0.000193983
0.000185462
0.000171134
0.000150694
0.000126656
0.000101494
7.79494e-05
5.80074e-05
4.35891e-05
3.3421e-05
2.65038e-05
2.18265e-05
1.79915e-05
2.02743e-05
3.28988e-05
2.29838e-05
2.99252e-06
2.25729e-05
3.34464e-05
3.91103e-05
4.35387e-05
4.61507e-05
4.81968e-05
5.08856e-05
5.46887e-05
5.84703e-05
5.99028e-05
5.87952e-05
5.72846e-05
5.83708e-05
6.20549e-05
6.88477e-05
7.8985e-05
8.8336e-05
9.61814e-05
0.000107275
0.000124131
0.000148143
0.000181458
0.000216129
0.00024375
0.000262129
0.000274951
0.000284327
0.00029133
0.000295198
0.000294713
0.000289933
0.000282216
0.000272656
0.000261326
0.000248529
0.000234935
0.000221101
0.000207344
0.000194186
0.000184169
0.000178224
0.000175518
0.000174256
0.000171409
0.000164448
0.000151343
0.000130999
0.000106003
8.06614e-05
5.7764e-05
3.96745e-05
2.81935e-05
2.11379e-05
1.85671e-05
1.86992e-05
1.82504e-05
2.12916e-05
3.31955e-05
2.20039e-05
6.34349e-06
2.76112e-05
4.5337e-05
4.67513e-05
5.05607e-05
5.42423e-05
5.81285e-05
6.21674e-05
6.57914e-05
6.9386e-05
7.45576e-05
8.09769e-05
8.76381e-05
9.39897e-05
9.66455e-05
9.39267e-05
8.7272e-05
8.19685e-05
8.38974e-05
9.43612e-05
0.000113386
0.000139879
0.00017162
0.000204646
0.000233653
0.000258107
0.000277729
0.000289852
0.000295142
0.000297295
0.000297951
0.000297675
0.000295884
0.000290864
0.000282154
0.000270156
0.000255545
0.000240093
0.000224774
0.000209363
0.000196705
0.000188698
0.000184438
0.000181921
0.000177976
0.000169614
0.000154417
0.000131884
0.000104598
7.74285e-05
5.44271e-05
3.77777e-05
2.6448e-05
1.90551e-05
1.72247e-05
1.83964e-05
1.87065e-05
2.16759e-05
3.34007e-05
2.29506e-05
6.91548e-06
1.67037e-05
2.7734e-05
3.51469e-05
4.37149e-05
5.12334e-05
5.91191e-05
6.81784e-05
7.79094e-05
8.79509e-05
9.99764e-05
0.000114062
0.000127531
0.000137113
0.000139171
0.000136482
0.000133405
0.000129594
0.000128194
0.000134892
0.000148296
0.000166819
0.000191675
0.000222899
0.000255055
0.000281017
0.000298922
0.000310289
0.000317638
0.000322719
0.000325563
0.000326621
0.000326699
0.000326277
0.000324281
0.000317044
0.000303363
0.000286893
0.000269605
0.000251363
0.000236132
0.000226334
0.000220047
0.000214632
0.00020749
0.0001949
0.000174979
0.000148611
0.000118565
8.90831e-05
6.38454e-05
4.46505e-05
3.16698e-05
2.48392e-05
2.37931e-05
2.36227e-05
2.13179e-05
2.23551e-05
3.43841e-05
2.79239e-05
9.8408e-06
1.9085e-05
2.60994e-05
3.28746e-05
4.18182e-05
5.12128e-05
6.28864e-05
7.754e-05
9.35156e-05
0.000109988
0.000127261
0.000145825
0.000162563
0.000172354
0.000174316
0.000173217
0.000173556
0.00017425
0.000175458
0.000181493
0.000195923
0.000219455
0.000252164
0.000292044
0.000332109
0.000361016
0.000376864
0.000385565
0.000391525
0.000395389
0.000396464
0.000395241
0.000393147
0.000391051
0.000387305
0.0003774
0.000361297
0.000342363
0.000320246
0.000296768
0.000279585
0.000268482
0.0002599
0.000249985
0.000235268
0.000213245
0.000184948
0.000152532
0.000118987
8.81194e-05
6.33159e-05
4.47822e-05
3.27434e-05
2.61441e-05
2.543e-05
2.76745e-05
2.47092e-05
2.28433e-05
3.70635e-05
3.32753e-05
9.85374e-06
1.35658e-05
1.923e-05
2.74076e-05
3.78106e-05
5.07783e-05
6.61672e-05
8.54117e-05
0.000107194
0.000132576
0.000159303
0.000182933
0.000197314
0.000201489
0.000200455
0.000199321
0.000203028
0.000211586
0.000223948
0.000240123
0.000262564
0.000292665
0.000331032
0.000375659
0.000413614
0.000432593
0.000441893
0.00044779
0.00045107
0.000451656
0.00044999
0.00044709
0.000443067
0.000437155
0.000425707
0.000407534
0.000386033
0.000361731
0.000332576
0.000304682
0.000286688
0.000274433
0.000261676
0.000241832
0.000213787
0.000181031
0.000146147
0.000111937
8.15692e-05
5.75823e-05
4.15255e-05
3.04068e-05
2.36143e-05
2.09311e-05
2.49811e-05
3.37382e-05
1.85638e-05
2.11224e-05
3.93981e-05
2.61575e-05
9.09187e-06
1.63346e-05
2.71885e-05
3.90446e-05
5.4135e-05
7.06032e-05
8.98067e-05
0.000110566
0.00013394
0.000163599
0.000192362
0.000215755
0.000229012
0.000234218
0.000234855
0.000238675
0.000249809
0.000266931
0.00028813
0.000312523
0.000342154
0.000375257
0.000412812
0.000451587
0.00047641
0.000484024
0.000486466
0.000486848
0.000485193
0.000482472
0.00047872
0.000473366
0.000466259
0.000457094
0.000443476
0.000425005
0.000402944
0.000377451
0.000350924
0.000327462
0.000308253
0.00029038
0.000271446
0.000247326
0.000215564
0.000179073
0.000141451
0.000106862
7.77918e-05
5.52648e-05