/*--------------------------------*- C++ -*----------------------------------*\
| =========                 |                                                 |
| \\      /  F ield         | OpenFOAM: The Open Source CFD Toolbox           |
|  \\    /   O peration     | Version:  2.1.1                                 |
|   \\  /    A nd           | Web:      www.OpenFOAM.org                      |
|    \\/     M anipulation  |                                                 |
\*---------------------------------------------------------------------------*/
FoamFile
{
    version     2.0;
    format      ascii;
    class       volScalarField;
    location    "0.0015";
    object      p;
}
// * * * * * * * * * * * * * * * * * * * * * * * * * * * * * * * * * * * * * //

dimensions      [1 -1 -2 0 0 0 0];

internalField   nonuniform List<scalar> 
36520
(
5.60507
1.40519
0.917421
-0.0140399
-0.791692
-1.43772
-2.12632
-2.812
-3.71152
-5.26374
-8.151
-12.5295
-17.7789
-22.5966
-25.3891
-25.0877
-21.9653
-17.7919
-15.31
-17.3443
-25.788
-40.5806
-60.5594
-84.4352
-108.873
-126.484
-127.361
-106.763
-65.7163
-12.098
39.5037
75.4346
94.0312
102.194
105.719
107.882
109.062
109.547
108.955
107.013
103.463
98.3081
91.7023
83.7265
74.2401
62.5814
47.5515
27.4361
-0.611877
-43.4344
-108.451
-170.318
-142.848
-22.8416
154.932
792.657
681.041
100.931
12048.2
125065
6.25061
1.79682
0.81574
-0.111054
-0.839633
-1.44887
-2.1083
-2.73554
-3.53425
-4.98437
-7.88242
-12.4557
-18.0351
-23.2058
-26.2058
-25.814
-22.263
-17.4234
-14.2637
-15.8563
-24.3792
-39.6196
-60.2236
-84.9735
-111.144
-130.858
-133.004
-112.275
-70.0094
-13.5392
41.0545
78.1498
96.2426
103.589
106.581
108.479
109.756
110.204
109.605
107.575
103.96
98.7117
92.0137
84.035
74.6577
63.2805
48.7381
29.3961
2.94279
-37.4207
-104.452
-205.026
-250.745
-173.408
-92.6827
-137.368
-277.632
-248.652
2106.28
107561
7.95989
2.92804
0.798858
-0.383116
-1.02255
-1.55499
-2.13614
-2.64193
-3.21726
-4.45633
-7.3918
-12.3849
-18.6432
-24.5088
-27.8445
-27.1745
-22.736
-16.6511
-12.2343
-12.9462
-21.5997
-37.6356
-59.2984
-85.6101
-115.164
-139.192
-143.177
-122.677
-78.0503
-15.9032
44.5027
83.6044
100.48
106.187
108.258
109.787
111.104
111.479
110.772
108.643
104.976
99.5827
92.8184
84.9491
75.8901
65.1009
51.584
33.5779
8.03231
-31.8354
-92.1214
-171.2
-194.793
-141.124
-122.528
-127.733
-215.249
-15.0873
633.632
69689.4
8.82594
3.29464
0.541928
-0.706039
-1.23398
-1.67254
-2.15225
-2.51533
-2.7463
-3.63441
-6.62343
-12.3094
-19.6271
-26.4533
-30.106
-28.8208
-22.9226
-15.2078
-9.24177
-8.88795
-17.9341
-35.1602
-58.2425
-86.544
-120.776
-150.975
-157.061
-136.848
-89.0079
-19.2127
49.3708
91.0958
106.053
109.493
110.445
111.539
112.883
113.353
112.577
110.495
106.556
100.838
93.8375
86.034
77.4197
67.6698
55.9285
40.3686
17.5934
-17.9452
-71.7869
-142.683
-197.684
-170.716
-135.573
-104.123
-190.718
11.4396
-590.134
27134.9
8.97698
3.18416
0.0147081
-1.12268
-1.48906
-1.82604
-2.22144
-2.38886
-2.14778
-2.52807
-5.60762
-12.357
-21.1851
-29.2114
-32.7229
-29.9142
-22.1123
-12.6653
-5.44478
-4.56333
-14.374
-32.987
-57.3641
-87.2761
-126.504
-164.029
-174.577
-152.311
-101.072
-23.1298
54.2707
98.7236
111.455
112.539
112.406
113.364
114.851
115.569
114.796
112.542
108.503
102.414
95.0789
87.1315
78.8137
69.9933
59.9474
46.7067
27.1468
-3.8594
-51.2393
-110.86
-168.87
-167.735
-141.677
-100.177
-183.996
-4.65134
-584.554
14962.3
7.49396
2.36102
-0.913243
-1.7008
-1.80386
-1.99444
-2.30056
-2.23962
-1.39707
-1.12984
-4.44191
-12.9127
-23.9106
-33.1732
-35.5312
-29.5879
-18.9528
-8.45903
-0.928994
-0.737511
-11.6542
-31.5617
-56.6236
-86.6101
-128.469
-171.749
-187.137
-162.372
-109.504
-27.9341
56.3778
103.174
114.507
114.214
113.694
114.862
116.56
117.863
117.405
114.97
110.576
103.796
95.9604
87.942
79.8733
72.191
64.5364
54.9376
40.1468
13.0338
-30.586
-88.7404
-150.247
-172.833
-159.225
-115.581
-178.147
-30.6481
-167.54
21338.1
6.83437
1.32896
-2.15248
-2.15376
-2.03924
-2.08038
-2.32344
-2.09492
-0.5608
0.432622
-3.25722
-14.2155
-28.3077
-38.2924
-37.5945
-26.4364
-12.0465
-1.8224
2.80469
-0.522573
-12.1287
-32.8059
-57.715
-86.5143
-128.427
-173.317
-189.201
-162.341
-102.454
-22.5853
54.6448
103.383
114.663
114.199
114.147
115.588
117.651
119.422
119.24
116.759
112.172
104.782
96.4501
88.1498
79.8306
72.4712
66.6286
59.7001
48.2944
25.7024
-14.2162
-70.9996
-129.883
-160.222
-159.151
-130.701
-185.501
-74.1567
59.0052
36521.2
-4.14498
-1.60694
-4.10221
-2.98065
-2.45821
-2.30061
-2.49798
-2.01362
0.63288
2.76017
-1.30039
-15.4618
-34.3788
-45.7578
-41.8014
-22.2013
-3.0896
8.21983
7.27521
0.116942
-16.1062
-38.9796
-62.0288
-86.37
-123.761
-165.857
-182.581
-155.422
-89.1322
-6.21729
57.7802
93.6467
108.758
111.26
111.734
115.526
118.662
121.468
122.373
120.182
114.853
106.31
96.825
88.2222
80.9685
75.6035
71.6652
66.6415
57.6631
38.9131
3.36844
-47.9324
-105.701
-143.842
-170.63
-152.68
-175.937
-23.5389
1264.36
60864.5
19.0077
2.87088
-4.91703
-3.46178
-2.5622
-2.37155
-2.4732
-2.09187
1.00581
2.75743
-3.46636
-22.7992
-46.3819
-52.6911
-35.8152
-7.6908
12.4698
16.2208
7.96683
-3.67604
-20.956
-43.3846
-64.2215
-87.9707
-126.338
-164.315
-179.797
-149.788
-86.3251
-4.3955
58.1348
94.2182
108.232
107.973
114.313
120.143
119.396
120.314
122.946
121.524
116.521
106.886
96.6091
87.5637
80.0481
74.3154
71.3536
69.7831
65.7009
52.3125
23.3825
-19.668
-75.0675
-126.173
-178.499
-175.138
-145.519
266.135
9093.02
82033.4
39.3639
0.819398
-6.5283
-5.15404
-3.76521
-2.28934
-1.51664
-1.32142
-0.671424
1.18632
-3.38878
-20.1543
-45.3108
-56.9466
-42.7195
-9.22033
18.6267
23.9627
13.454
0.0812818
-14.0724
-37.4202
-66.1346
-98.2565
-139.621
-165.822
-174.32
-149.666
-85.3215
-5.5303
60.4072
102.238
116.762
114.641
113.636
113.535
116.818
122.977
125.485
121.848
114.559
105.371
95.1342
85.5074
78.0278
74.49
74.883
77.6225
77.9782
70.9351
50.9612
16.9141
-31.012
-82.0135
-149.467
-178.002
-109.999
902.653
15215.3
98831.5
16.4618
-1.79361
-5.99827
-3.89734
-3.22381
-2.64442
-1.27779
1.54217
5.15991
6.35657
-0.586868
-21.6166
-48.5137
-55.6767
-43.1757
-12.4399
21.1036
22.3655
13.0587
-0.323029
-12.6812
-30.879
-51.4564
-67.278
-141.675
-184.29
-193.946
-154.845
-75.3429
-5.36057
64.1979
114.054
126.617
117.938
110.533
108.379
111.827
120.885
127.315
123.78
116.195
106.492
94.9589
85.6645
79.3782
76.2477
76.4771
79.5313
81.4718
76.632
61.0402
36.2331
-1.37484
-53.2731
-128.849
-182.561
-160.591
660.615
17097.1
119691
-9.55469
-0.81762
-4.01933
-3.11943
-2.46561
-1.64791
0.0154815
2.74341
5.62498
7.55557
1.01195
-18.2825
-43.5058
-52.0413
-41.5732
-16.9043
10.2975
10.5905
6.83773
-2.18976
-14.0933
-27.9768
-41.0071
-54.5231
-110.955
-228.257
-195.987
-177.397
-94.3187
-12.1032
78.2408
129
132.779
122.049
112.251
108.556
110.402
115.721
120.568
121.176
116.02
107.133
96.088
86.6905
81.3176
79.4795
79.9339
81.381
81.8413
76.5871
62.6594
41.9817
8.18133
-46.7231
-133.232
-200.572
-165.213
150.74
5473.55
136073
-9.19074
-0.355887
-3.5903
-2.68473
-1.70051
-0.475981
1.41062
3.76564
6.30837
6.74484
-1.63678
-21.3501
-43.8883
-50.9094
-42.4207
-21.9195
-2.4511
7.18329
7.7274
4.76145
-5.75818
-20.5078
-35.3713
-43.267
-59.1122
-107.083
-151.279
-182.899
-143.339
-89.2475
53.3452
141.481
145.481
127.127
113.732
107.728
108.179
111.799
120.214
123.447
116.51
107.183
95.603
85.7
80.8873
79.5255
80.2312
81.7863
84.0758
79.3939
63.3009
40.6936
3.74498
-51.7004
-140.811
-205.183
-162.284
149.281
5884.21
115605
16.814
1.64078
-4.94517
-2.62703
-1.13002
0.0252001
1.76526
3.90281
6.24782
6.0749
-2.66767
-22.1361
-45.8414
-55.1733
-46.8973
-24.8146
-10.2056
-3.13007
2.82903
12.6448
-3.11528
-19.9715
-38.3388
-55.2693
-71.4281
-106.717
-120.464
-114.498
16.1819
-75.165
10.3398
129.143
155.622
127.133
109.391
102.498
104.505
114.167
128.739
130.33
118.146
107.367
95.2201
84.108
78.7398
76.6269
76.9602
76.3478
73.0262
65.5655
49.1439
23.3059
-15.1399
-70.2152
-158.205
-210.534
-162.311
683.301
16014.7
118486
51.9814
11.0155
-1.81035
-3.00999
-1.74307
-0.291486
1.74687
4.20559
6.1618
5.03692
-3.70945
-21.1473
-39.6839
-52.9608
-60.5782
-60.7126
-17.3869
-3.46854
30.0717
45.5538
29.7953
-4.33515
-31.7341
-53.8251
-74.7604
-89.2128
-113.369
-224.449
-157.987
-76.9687
50.0817
64.5684
128.93
134.81
107.215
98.9911
107.72
124.354
132.397
127.548
116.85
106.762
95.1492
85.3884
79.9724
78.0035
76.3774
71.4936
63.0258
51.3412
29.8509
-5.1502
-51.0818
-109.608
-197.861
-233.77
-145.233
677.117
12904.6
99687.3
24.86
8.39828
-2.64807
-3.13899
-2.22496
-0.516927
2.20485
5.0126
7.16789
6.16945
-2.13848
-20.3303
-45.8202
-66.568
-60.4512
-22.6457
12.4529
17.3537
43.8056
76.1764
46.6585
3.84108
-26.7922
-54.0684
-93.7326
-132.658
-146.007
-154.598
-140.65
-116.443
-31.5449
33.8788
95.8937
115.64
98.8237
92.4195
99.0519
115.008
127.143
125.257
115.677
105.598
95.4453
87.7652
83.0291
78.884
72.9762
63.9835
52.742
37.0024
10.0719
-29.1416
-83.0895
-152.842
-227.536
-212.183
-121.634
236.69
8607.07
83964.4
-4.41678
-2.32589
-4.4562
-3.72596
-2.96441
-1.53388
0.308263
2.45026
4.56362
3.90342
-4.37662
-24.4413
-55.5686
-78.0997
-65.7809
-18.4573
37.4865
54.0073
41.4099
35.6778
20.6977
-4.90559
-30.5983
-57.1579
-91.3544
-127.931
-157.449
-175.912
-173.894
-129.686
-57.0143
33.5628
91.5502
101.886
93.6018
89.0784
93.2244
105.097
116.043
116.993
110.592
102.711
93.4369
85.3717
79.4995
75.2117
69.6228
61.0553
50.4053
32.6965
3.65278
-39.554
-98.7419
-159.293
-203.803
-164.017
-95.8111
-2.3278
1202.17
64120.8
7.66028
1.41954
-2.73014
-3.20538
-2.99535
-2.20115
-1.05579
0.361442
1.6029
0.29337
-7.21566
-23.0307
-43.9371
-57.3829
-50.2195
-25.1576
7.21372
27.2175
34.9814
30.5527
11.7885
-10.751
-31.6607
-54.7906
-85.4693
-116.46
-139.702
-152.002
-143.883
-114.974
-58.0558
14.6012
70.9323
88.3478
89.0154
88.6024
92.998
101.976
109.939
111.949
107.541
100.205
91.0193
82.3889
76.4771
72.1164
66.2903
57.1592
44.5839
22.5195
-12.1364
-59.3165
-119.1
-172.232
-196.863
-135.341
-89.286
-54.228
164.016
44040.3
6.51142
1.21666
-2.16381
-3.03533
-3.07494
-2.71999
-2.08471
-1.30347
-0.89927
-2.80318
-9.73903
-22.2168
-36.834
-44.7517
-37.8743
-16.6562
6.58737
19.4314
21.9644
16.5735
1.64515
-16.3862
-33.8984
-54.0545
-79.8514
-106.092
-126.035
-133.836
-122.957
-93.4965
-42.8669
15.506
60.89
79.1904
84.404
87.0624
92.2709
100.396
107.539
109.363
105.557
98.626
90.0715
81.8766
76.3829
71.2009
63.3014
50.9571
33.3533
6.43892
-33.8634
-87.3427
-144.212
-188.579
-196.474
-124.785
-86.058
-41.2428
-23.7824
29593.7
8.52581
1.92123
-1.52282
-2.65135
-2.97138
-2.93323
-2.68437
-2.41813
-2.66129
-4.93542
-11.088
-20.938
-31.4304
-36.417
-31.0471
-16.0146
1.74924
13.0857
14.2489
7.58929
-5.38035
-20.5219
-36.0343
-53.7601
-75.0832
-96.2458
-111.581
-115.022
-102.758
-74.6663
-31.2931
15.8177
52.3556
70.7374
79.0143
84.2421
90.145
97.3097
103.459
105.719
103.227
97.5237
89.957
82.2545
75.63
67.9912
56.712
40.822
18.1991
-14.3627
-60.6589
-117.974
-173.698
-200.393
-187.137
-121.549
-91.5447
-27.5633
-633.789
23704.9
7.49944
1.92415
-1.00482
-2.30953
-2.8547
-3.088
-3.15433
-3.27102
-3.9604
-6.41506
-11.7917
-19.6139
-27.2936
-30.3714
-25.6119
-14.265
-1.61721
6.75116
7.20642
0.941446
-10.2289
-23.5359
-37.7074
-53.4382
-70.896
-87.2096
-97.83
-98.1407
-85.3028
-59.6656
-23.4391
14.6857
45.0689
63.3741
73.9223
81.1241
87.7086
94.4315
99.8662
102.015
99.9708
95.1649
88.3707
80.9257
73.3711
64.0602
50.7899
31.7603
5.03012
-32.862
-86.3392
-146.977
-196.481
-199.623
-174.476
-120.77
-113.56
-56.783
-142.373
34703.6
6.93308
1.81539
-0.627824
-1.93979
-2.66837
-3.12265
-3.46145
-3.89181
-4.94191
-7.47283
-12.1971
-18.4962
-24.2469
-26.2289
-22.2361
-13.5786
-3.96477
2.17498
2.14627
-3.5634
-13.4757
-25.6131
-38.8329
-53.0049
-67.5621
-80.1339
-87.2302
-85.2059
-72.3139
-49.1782
-18.4751
13.3891
39.7173
57.8285
69.8046
78.401
85.6341
92.1679
97.1891
99.4691
98.2542
93.9239
87.32
79.4684
70.7349
59.6445
44.1716
22.1319
-8.70677
-51.0679
-107.782
-165.374
-196.401
-178.126
-147.931
-55.808
-8.31592
-24.9481
860.478
67986.2
5.1352
1.13292
-0.391439
-1.61425
-2.4939
-3.12431
-3.65369
-4.3146
-5.60231
-8.15983
-12.4231
-17.7033
-22.2014
-23.4838
-20.0426
-13.0664
-5.3973
-0.585349
-0.995414
-6.33058
-15.4313
-26.8028
-39.3486
-52.44
-65.1039
-75.3117
-80.3357
-77.005
-64.304
-42.9356
-15.7409
12.2762
36.265
54.1413
66.8865
76.3427
84.0117
90.4412
95.116
97.0472
95.9424
91.7978
85.2886
77.4528
68.1889
56.2998
40.2764
17.3351
-14.4791
-58.6976
-116.559
-176.1
-200.084
-200.131
-185.993
-106.387
-95.7533
-25.3552
1277.16
99796.4
4.16232
0.657012
-0.35449
-1.53168
-2.47495
-3.16591
-3.79068
-4.56724
-5.96669
-8.53407
-12.5758
-17.3761
-21.2884
-22.2783
-19.1291
-12.8886
-6.1518
-2.05581
-2.57297
-7.70557
-16.433
-27.4173
-39.5727
-52.0843
-63.8095
-72.8293
-76.9025
-73.0327
-60.3363
-39.9476
-14.4735
11.7438
34.6399
52.37
65.4259
75.2445
83.1096
89.5164
94.077
96.0283
94.9957
91.0629
84.8891
77.1191
67.98
56.0405
38.8267
15.2405
-16.8836
-60.373
-112.478
-152.147
-151.389
-156.754
-135.481
54.1367
314.801
1465.7
20779.9
128214
4.00226
0.0492254
-0.951522
-2.40452
-3.88071
-5.36988
-6.99969
-8.76981
-10.7191
-12.8185
-15.0532
-17.0704
-18.2241
-17.747
-15.5001
-12.263
-9.76887
-9.7958
-12.9597
-18.4624
-24.7996
-30.2795
-33.6185
-34.328
-32.6328
-28.9441
-23.4899
-16.491
-8.25397
0.832088
10.3326
19.7809
29.1408
38.4552
47.9878
57.7788
67.4259
76.0341
82.6186
86.4412
87.2431
85.0153
79.9752
72.7696
64.0756
53.9306
40.957
22.1563
-6.23594
-51.1951
-118.185
-216.833
-252.495
-204.34
-72.3125
173.504
637.097
702.581
17346.2
128695
4.88582
0.547346
-1.00883
-2.47356
-3.90071
-5.36729
-7.00742
-8.80767
-10.789
-12.9259
-15.2187
-17.3498
-18.6173
-18.1565
-15.7332
-12.104
-9.20635
-9.12235
-12.5183
-18.441
-25.2168
-30.9699
-34.3133
-34.7976
-32.8585
-29.022
-23.5169
-16.473
-8.1769
0.979813
10.6403
19.9779
29.2156
38.4429
47.9452
57.8496
67.7245
76.5989
83.3147
87.2233
88.0643
85.7525
80.5616
73.1242
64.2813
54.2313
41.9216
24.466
-2.55033
-46.3086
-116.054
-228.076
-304.506
-253.392
-186.669
-87.6667
-140.697
-191.013
1405.99
103612
6.70218
1.35529
-1.14089
-2.71058
-4.02707
-5.42804
-7.06957
-8.93427
-10.9793
-13.1788
-15.5676
-17.9166
-19.4119
-18.9772
-16.213
-11.8117
-8.09784
-7.79046
-11.7198
-18.5325
-26.2011
-32.4821
-35.7868
-35.7444
-33.2717
-29.1509
-23.5236
-16.3904
-7.98072
1.28863
10.9578
20.3259
29.3881
38.3953
47.8164
57.9181
68.2855
77.7911
84.9247
89.1458
90.1821
87.9877
82.8496
75.2991
66.5017
56.9204
45.3956
28.5186
1.98621
-39.0582
-100.579
-185.583
-260.263
-248.21
-186.082
-80.4812
-102.181
-155.317
507.911
70198.4
6.99935
1.30962
-1.50099
-2.95249
-4.0978
-5.43121
-7.09295
-9.07793
-11.2392
-13.5584
-16.0833
-18.7473
-20.608
-20.3041
-17.0296
-11.4476
-6.39095
-5.68975
-10.4989
-18.726
-27.7521
-34.8439
-38.0312
-36.9947
-33.58
-29.0251
-23.2951
-16.1172
-7.61475
1.77097
11.4892
20.757
29.5407
38.204
47.4398
57.8039
68.8251
78.8983
86.6197
91.1033
92.4568
90.7391
85.7999
78.4463
70.2175
62.0011
52.9289
38.8663
15.0716
-22.4505
-76.8372
-149.327
-231.521
-253.138
-211.766
-133.517
-166.997
-166.458
-454.195
42898.7
6.99206
0.665133
-2.14251
-3.22787
-4.13821
-5.36406
-7.02803
-9.14286
-11.5185
-14.0185
-16.7233
-19.7209
-22.0398
-21.9252
-17.9937
-10.9334
-3.80828
-2.79686
-8.99726
-19.2341
-30.2161
-38.5233
-41.4268
-38.8308
-33.7365
-28.4195
-22.6094
-15.5021
-6.97434
2.49693
12.2087
21.4614
29.8823
38.0048
46.9394
57.4752
69.2402
79.8142
87.9708
92.5559
93.9923
92.2307
87.1567
79.6796
71.9422
66.3816
61.1641
51.8272
32.5015
0.272506
-47.0184
-109.335
-184.135
-235.533
-229.482
-159.181
-128.223
-153.124
-322.814
36791
5.85518
-0.041026
-2.75741
-3.44117
-4.13091
-5.17385
-6.75279
-8.98752
-11.7401
-14.6345
-17.6033
-20.8755
-23.6014
-23.7721
-19.6372
-10.9473
-1.3005
0.683035
-7.39343
-20.3306
-33.8348
-43.7028
-46.2427
-40.7642
-32.8374
-26.4455
-20.7582
-14.1021
-5.95221
3.24793
12.7123
21.6243
29.6931
37.486
46.0288
56.7641
69.4118
81.1071
89.8898
94.4827
95.736
93.4979
87.8155
79.2962
71.4049
67.424
66.6603
63.3742
50.8587
24.731
-14.8012
-70.9223
-139.336
-207.314
-235.09
-179.766
-141.693
-152.922
24.9138
40274.6
1.7614
-1.25187
-3.29571
-3.66983
-4.02701
-4.67141
-5.87188
-8.21139
-11.7216
-15.6094
-19.0877
-22.4836
-25.4003
-25.8648
-21.5748
-11.3424
1.33858
4.48122
-4.98539
-21.3395
-38.397
-50.1881
-51.5266
-42.9507
-31.0859
-23.4165
-18.072
-11.9978
-4.30383
4.46901
13.5048
21.9482
29.5239
36.9367
45.2544
55.7563
68.4506
80.6972
90.0823
95.1987
96.7831
94.0657
87.9766
78.6718
70.5003
67.7996
69.9101
71.3526
61.5907
37.7345
5.28037
-42.3717
-106.656
-178.103
-226.364
-193.014
-146.516
-130.114
307.227
55569.8
-1.9978
-1.80489
-3.94731
-3.68341
-3.71835
-3.67097
-4.14217
-6.50219
-11.2971
-17.1351
-21.4849
-24.7152
-27.5439
-28.2935
-24.223
-12.9883
3.26139
11.3723
0.0315521
-21.2788
-43.7991
-58.8243
-62.0514
-46.4636
-28.9007
-19.6808
-14.9962
-9.60682
-2.39853
5.82797
14.3174
22.3339
29.6113
36.6257
44.84
55.0107
67.823
80.4106
89.9185
94.9578
95.6641
92.6923
85.8607
75.9058
67.0545
64.4799
70.0334
76.8947
72.2854
55.384
26.4971
-15.5805
-75.7428
-149.606
-214.017
-201.702
-151.871
-114.159
290.265
72222.8
-15.2713
-2.79873
-4.39519
-3.32717
-3.05494
-1.99876
-1.23891
-3.33956
-9.46448
-17.9431
-23.018
-25.3007
-27.4714
-28.6091
-25.4574
-15.0693
3.5277
10.4534
-1.76923
-26.8757
-51.9754
-67.4943
-67.028
-47.9515
-24.6572
-14.6235
-11.3316
-6.84079
-0.264768
7.12218
14.7159
22.3636
29.6779
36.7647
45.2968
55.4999
66.647
77.7411
87.4177
93.1597
94.4849
91.6848
84.2599
74.706
65.9604
62.8033
65.5075
68.3508
66.1201
52.3363
29.3126
-3.29248
-51.737
-122.001
-197.697
-208.095
-143.37
72.7898
3646.92
87327.1
5.73678
0.896423
-5.63722
-4.98931
-4.35947
-1.45112
1.3869
-0.0315501
-8.74984
-22.177
-29.3399
-29.063
-27.3612
-26.6707
-22.4483
-11.9865
4.8939
14.85
4.3734
-23.0945
-53.8273
-85.9636
-95.0097
-57.5454
-21.0163
-7.87775
-6.1065
-2.05421
3.63646
9.9448
17.2316
24.7978
31.9057
38.5001
46.448
56.6164
68.3183
81.0483
91.6828
95.5032
95.9385
91.8373
83.6156
74.0623
66.544
64.3107
68.9912
75.8895
75.0568
60.7691
36.7774
-0.867814
-51.8127
-118.353
-187.661
-206.24
-121.873
378.657
14464.8
97311.6
57.1493
2.71243
-2.91587
-2.12391
-1.28812
1.37404
3.34082
1.19658
-8.36486
-24.4353
-33.8759
-33.1572
-29.6869
-30.6383
-25.7815
-2.92664
18.9745
8.87869
-27.1062
-64.9425
-80.4378
-95.125
-67.0819
-32.5991
7.11204
16.6412
7.54183
8.39001
11.798
16.2943
22.3753
30.2275
38.1452
44.8114
52.4667
62.3661
73.7984
85.3792
94.2807
95.1896
94.8358
89.2844
81.1217
71.8475
64.4454
63.9438
69.3891
76.6541
76.6064
65.5061
43.6614
8.64153
-38.9978
-94.13
-160.121
-179.705
-61.096
869.429
18654
95625.7
75.3645
10.16
-2.0103
-1.00347
0.629835
3.00105
4.05535
0.277262
-9.9365
-21.6319
-30.5284
-39.9726
-41.3484
-29.8911
-10.4292
5.34834
11.3355
-20.714
-44.6603
-70.6547
-66.7797
-23.3688
4.51859
-47.3317
37.2193
36.9674
11.9852
12.1122
17.2813
21.4709
28.6143
37.8317
43.2288
47.7152
54.8234
64.7019
75.6813
84.8434
90.6951
92.6586
92.9429
87.8148
79.8973
71.1879
65.0943
65.0081
69.3338
74.1276
73.7609
63.7645
39.8646
6.00919
-37.2461
-88.3008
-147.741
-164.395
-58.8748
701.069
17692.5
96281.1
69.6814
8.27779
-0.251167
0.251797
1.08474
2.47345
3.12025
-0.425935
-10.0705
-23.2421
-35.3067
-44.7727
-45.6885
-32.4789
-2.87269
36.1679
34.1253
-6.19697
-56.2486
-78.6129
-105.245
-97.7511
-80.6612
40.8139
47.1347
22.4416
11.1457
20.8842
27.7397
25.3119
25.1846
29.8646
37.2248
46.0407
55.7005
65.5499
77.428
87.7137
92.7325
93.8509
95.9147
90.8152
81.8463
71.7511
65.1121
65.1206
70.2517
74.996
74.8929
64.5151
40.2707
4.13638
-41.185
-87.887
-143.005
-166.596
-86.3407
746.922
17197.5
91547.7
37.6086
9.9886
-2.00474
-2.27477
-1.12921
1.13433
2.28763
-0.705635
-8.84915
-21.4282
-35.0509
-43.8494
-39.7822
-20.936
20.4611
51.2947
41.8094
-6.32663
-57.1793
-87.1909
-114.416
-101.551
-92.6106
-26.0878
30.0832
20.9065
16.26
17.964
17.9236
20.2189
26.0295
33.0739
39.7614
47.2443
56.0452
67.8538
83.2072
93.4166
95.6233
95.8441
97.0993
90.026
80.4656
70.4459
64.2204
64.567
69.2781
71.6095
67.9926
55.6858
30.6299
-7.54384
-51.786
-100.385
-159.711
-175.071
-101.857
802.025
14899.7
81032.4
-4.82846
-2.6643
-6.25315
-2.94592
-0.33669
2.44213
2.60813
-0.970251
-6.0389
-13.6013
-27.2173
-44.6795
-49.0175
-31.0506
5.40165
44.5962
35.9588
-4.60862
-48.7045
-82.1611
-111.426
-129.291
-112.089
-61.0763
-14.1974
18.1145
28.4622
24.2668
18.8655
20.1609
26.3289
33.9866
40.8856
48.1407
56.8763
69.2642
84.2905
93.8518
96.6315
98.6307
99.6071
92.4737
82.9591
71.1636
62.8416
61.5586
62.9081
61.6829
55.9412
43.2003
17.8484
-20.6827
-64.4866
-114.356
-166.214
-172.853
-153.458
281.399
9620
71458.7
-14.6059
-7.65737
-7.91457
-5.13204
-2.53448
0.610949
0.21439
-2.61468
-6.02703
-11.0363
-21.1036
-32.4179
-37.1811
-27.1162
-2.36115
22.2012
21.7272
-4.54743
-41.9084
-76.8261
-107.851
-125.055
-109.794
-69.546
-20.4797
20.7219
29.9181
21.1252
16.7423
20.4628
26.7472
34.7697
42.2057
49.5203
57.5409
67.6498
80.0567
89.7786
95.6697
99.2875
100.529
93.7358
83.9049
74.3693
69.2792
66.4679
65.2187
62.7768
53.5065
35.4853
4.8874
-37.6225
-82.0852
-129.711
-171.844
-166.548
-162.81
-85.5498
732.2
52830.3
-20.2374
-8.65675
-7.67809
-4.74297
-2.51697
-0.0718786
-0.516124
-2.72205
-5.1312
-8.42596
-16.2039
-26.2626
-31.4626
-23.8646
-5.75477
13.4992
15.4357
-1.91452
-32.8674
-69.071
-105.397
-121.451
-110.322
-80.2597
-36.7993
5.63366
18.4064
15.0301
13.9658
18.5137
25.8481
35.5829
45.1858
53.4468
60.9401
68.8931
79.4918
88.0304
94.8385
98.6404
99.1548
91.8815
81.9045
72.1322
65.0155
59.1593
53.7895
47.2487
35.6941
15.9596
-17.5976
-62.9159
-109.617
-150.517
-179.879
-142.727
-121.61
-63.8406
232.883
45089.6
0.383134
-1.74511
-3.80062
-3.78119
-3.4594
-2.8085
-3.14693
-4.44581
-6.27043
-9.19698
-15.1186
-23.1341
-28.1831
-23.7794
-9.45045
5.33226
7.78459
-3.98645
-28.7411
-58.9534
-87.4027
-100.351
-96.6881
-76.8034
-47.9736
-15.0637
1.05868
4.54114
7.00959
13.7368
23.9577
35.7337
46.9853
56.6097
65.0967
74.0332
82.8961
90.1045
95.1362
97.9419
97.131
90.2076
80.8986
72.4343
67.0722
62.8954
56.5553
46.565
30.4338
5.13281
-34.8341
-83.5215
-130.226
-159.934
-167.375
-117.913
-107.589
-46.1372
11.6829
36016.9
3.34841
-2.04658
-3.6212
-3.44014
-3.35384
-3.14927
-3.62304
-4.72066
-6.37054
-8.97919
-13.638
-19.6877
-23.6226
-20.6013
-11.4379
-2.2691
-0.263865
-8.77912
-27.8824
-52.7951
-76.8065
-90.2209
-86.2321
-71.3308
-48.8824
-25.5714
-10.9252
-3.27299
3.59505
12.7949
24.1366
36.5377
48.3038
58.3567
66.993
75.4043
83.4208
90.0244
95.0439
98.0723
96.7848
90.5717
82.1755
74.1221
67.1097
59.7405
49.4475
34.5222
12.3412
-20.2383
-62.9976
-107.159
-148.507
-166.442
-158.962
-97.0319
-68.9738
-1.17771
-91.4294
25076.3
5.98226
0.659767
-2.13508
-2.9796
-3.35939
-3.60826
-4.16286
-5.17985
-6.72353
-9.08531
-12.942
-17.7722
-21.1328
-19.6438
-13.781
-7.69577
-6.22723
-12.4327
-26.6777
-45.7303
-64.2749
-75.5038
-74.9993
-64.934
-48.8426
-31.9967
-19.2273
-9.85229
-0.290949
11.2783
24.2764
37.5969
49.9042
60.3849
68.9596
76.7054
83.6556
89.5314
93.7469
95.9405
94.757
89.6796
82.465
74.7852
66.7557
56.7484
41.7536
19.5866
-12.7406
-51.8989
-102.243
-147.985
-178.044
-173.149
-147.087
-81.5594
-53.1101
40.6507
-477.364
21044.6
6.61869
1.37254
-1.158
-2.35497
-3.06359
-3.65071
-4.39793
-5.48546
-7.00773
-9.22238
-12.5602
-16.5484
-19.3901
-18.968
-15.318
-11.2091
-10.3658
-15.2379
-26.2239
-40.9773
-55.4217
-64.786
-65.9752
-60.0882
-49.273
-36.8328
-25.3772
-14.9853
-3.4512
9.82975
24.079
38.0282
50.5151
61.1264
69.9153
77.4263
83.8659
89.1809
92.9217
94.6276
93.3593
88.8664
82.1895
74.1927
64.288
50.1279
29.6737
0.863737
-35.8855
-76.0597
-120.218
-158.584
-190.34
-177.776
-132.805
-66.6727
-46.0776
32.67
-217.822
35583.7
6.64544
1.82222
-0.584295
-1.90044
-2.80854
-3.62682
-4.54537
-5.71218
-7.25234
-9.37221
-12.357
-15.7783
-18.3109
-18.4196
-16.1679
-13.4392
-13.0941
-17.1353
-26.0073
-37.9659
-49.8488
-58.1315
-60.6695
-57.3679
-49.957
-40.2952
-29.7228
-18.7627
-5.82044
8.74452
23.9273
38.3953
51.1146
61.736
70.4474
77.752
83.9095
88.8585
92.2596
93.5647
92.2891
88.0942
81.4574
72.691
60.6558
43.17
18.6795
-12.7907
-48.6867
-85.5657
-127.008
-167.996
-196.078
-174.476
-109.232
-20.67
56.3909
61.8609
518.939
70975.8
4.96627
1.24184
-0.234975
-1.50077
-2.55836
-3.51929
-4.57544
-5.80028
-7.3661
-9.42796
-12.2001
-15.2657
-17.603
-18.0169
-16.5766
-14.7359
-14.7537
-18.3241
-25.9036
-36.1528
-46.533
-54.2377
-57.4532
-55.8735
-50.423
-42.2919
-32.2694
-20.6868
-7.18808
8.07756
23.8162
38.6048
51.4563
62.0965
70.787
77.9825
83.9455
88.6327
91.7631
92.7414
91.2463
86.9882
80.0689
70.5777
57.1809
38.3503
13.2929
-15.2425
-46.4934
-78.6843
-119.496
-175.094
-244.622
-208.582
-114.433
-22.9409
-2.66056
110.876
1804.24
101459
4.11813
0.73104
-0.145571
-1.37569
-2.49872
-3.50903
-4.60963
-5.86516
-7.43848
-9.4791
-12.1506
-15.0515
-17.2891
-17.8434
-16.7752
-15.3458
-15.5319
-18.9035
-25.8971
-35.3543
-45.0389
-52.4848
-55.9956
-55.1754
-50.6215
-43.2165
-33.5693
-21.8293
-7.91013
7.69101
23.6784
38.6103
51.5179
62.163
70.8359
77.9767
83.8471
88.3987
91.348
92.2291
90.7425
86.5678
79.6201
69.8514
56.3555
36.9077
11.9706
-14.7828
-42.6667
-74.0589
-113.759
-161.882
-220.367
-177.508
-61.0265
110.382
302.474
855.757
16478.5
124608
2.92315
0.0663817
-0.796015
-1.7762
-2.69747
-3.3638
-3.94261
-4.59646
-5.86794
-8.42323
-12.7304
-18.0092
-22.3776
-23.4413
-19.686
-12.4889
-4.86676
-0.300008
-0.999124
-6.73749
-16.1468
-27.6154
-39.9692
-52.3981
-63.8425
-72.4895
-76.3233
-72.5384
-60.1417
-40.2343
-15.3083
10.5221
33.3447
51.1921
64.4314
74.4696
82.6671
89.5368
94.548
96.744
95.6122
91.2685
84.3853
75.3284
64.9593
51.7039
33.4659
8.25686
-23.7018
-61.8297
-99.7452
-112.312
-79.565
-79.8449
-72.739
103.735
362.789
1818.15
24987.2
144071
2.6668
-0.0921065
-1.03142
-2.0638
-2.98882
-3.62895
-4.16218
-4.68909
-5.79751
-8.27828
-12.7854
-18.496
-23.3129
-24.4008
-20.0754
-12.0178
-3.65949
1.27978
0.301582
-6.08991
-16.2024
-28.1599
-40.6463
-52.8387
-63.7076
-71.5837
-74.7011
-70.8562
-58.6904
-39.4421
-15.4461
9.53951
31.9115
49.7483
63.1288
73.3926
81.9928
89.4074
94.8196
97.1838
95.6734
90.5073
82.6865
73.0768
62.2369
49.1952
31.5667
7.77827
-20.8414
-49.6677
-70.7069
-59.6691
-5.51652
-0.404954
6.8173
165.472
503.703
2956.19
33706
155607
0.929723
-0.711869
-1.51433
-2.42833
-3.31932
-3.94519
-4.44131
-4.84504
-5.76112
-8.11728
-12.7669
-18.8509
-24.0515
-25.1081
-20.2354
-11.4069
-2.39553
2.63327
1.23201
-5.85782
-16.7066
-29.2031
-41.7629
-53.566
-63.5685
-70.3425
-72.288
-68.051
-56.0526
-37.6251
-14.8997
8.85736
30.3778
47.7999
61.0564
71.439
80.3207
87.9717
93.6752
96.1538
94.4968
88.8925
80.6963
71.308
61.1826
49.8739
35.5173
16.6691
-4.62898
-22.5586
-26.8074
0.601646
67.5802
67.7488
60.3728
177.881
446.059
3325.17
45251.7
169685
-0.0703473
-1.27714
-2.01204
-2.87323
-3.70402
-4.34974
-4.84212
-5.16648
-5.88942
-8.05864
-12.763
-19.1603
-24.6699
-25.5874
-20.2179
-10.832
-1.47066
3.58291
1.65508
-6.1627
-17.671
-30.628
-43.2667
-54.5986
-63.645
-68.8995
-69.2391
-63.8795
-52.0704
-34.6764
-13.5258
8.69456
29.2082
46.1936
59.4899
70.1633
79.4208
87.6695
94.3154
97.5691
96.781
92.3214
85.4393
77.403
69.2793
60.1548
49.247
36.4437
23.8702
14.3135
21.1588
52.9459
110.278
107.072
101.472
165.27
316.224
3537.67
54976.3
185086
-2.00767
-1.85282
-2.5383
-3.27181
-4.08058
-4.77349
-5.29713
-5.56789
-6.10042
-8.05183
-12.6569
-19.1139
-24.8123
-25.4036
-19.6871
-10.0642
-0.842114
4.02087
1.53772
-6.86479
-18.8576
-32.0759
-44.6549
-55.3411
-62.8075
-66.0138
-64.4995
-57.9592
-46.6937
-30.7686
-11.5644
8.82881
28.0998
44.5049
57.649
68.4478
78.2087
87.0795
94.4897
98.5156
98.1981
94.2132
87.8605
80.1285
71.9173
62.7806
52.3089
40.2987
29.5406
26.3342
37.8652
65.1516
102.524
129.333
143.122
227.067
362.563
5026.7
64808
200163
-0.841743
-2.04731
-2.9097
-3.7115
-4.48965
-5.23062
-5.81188
-6.16636
-6.76557
-8.56892
-12.9012
-18.9922
-24.253
-24.5611
-18.4557
-9.29706
-0.597151
3.72805
0.927501
-7.72202
-19.9333
-33.2701
-45.6051
-55.5032
-61.5151
-62.9997
-60.1555
-52.7547
-41.3553
-26.495
-9.05602
9.46586
27.2733
42.9069
55.8625
66.7853
76.8149
86.0014
93.5449
97.8203
97.6695
93.7244
87.2961
79.29
70.418
61.1142
51.4093
40.9914
32.5312
31.2844
40.2932
66.4833
109.832
149.512
172.698
286.794
468.812
6894.92
72909.9
210214
-2.65376
-2.73219
-3.14265
-3.82833
-4.61494
-5.35484
-5.97334
-6.4953
-7.26754
-9.14103
-13.2412
-18.8453
-23.6134
-23.6191
-17.8903
-9.06222
-0.753797
2.94016
0.0283122
-8.67106
-20.8761
-34.0184
-45.8463
-54.7379
-59.4665
-59.6837
-55.7368
-47.6094
-36.4415
-22.4689
-6.47524
10.3628
26.6616
41.3391
53.9972
65.1276
75.3903
84.8502
92.6584
97.0844
97.2553
93.6093
87.2517
79.0939
69.7926
60.0883
50.2965
40.4811
33.5148
32.8641
44.4531
72.9428
121.739
150.878
182.657
321.051
614.393
9592.15
79296.4
218005
-1.91265
-2.50936
-3.05135
-3.82822
-4.73773
-5.66289
-6.53142
-7.2824
-8.24736
-10.1784
-14.0131
-19.0722
-23.1715
-22.8485
-17.1723
-8.58058
-0.690594
2.38799
-0.850569
-9.53783
-21.5699
-34.3427
-45.5664
-53.5033
-57.189
-56.5518
-51.8608
-43.3812
-32.2231
-18.8614
-3.98273
11.4221
26.331
40.0461
52.3541
63.5927
74.1541
83.9471
91.9558
96.6391
97.2131
93.7727
87.2067
78.3504
68.5195
58.4719
48.0927
37.1282
28.957
29.7248
41.8748
67.9849
115.148
146.386
186.547
353.372
798.65
12087.2
83639.4
225976
-2.05264
-2.52091
-2.97029
-3.74033
-4.67022
-5.64012
-6.63266
-7.60135
-8.82067
-10.8644
-14.4968
-19.0769
-22.6237
-22.2162
-16.7938
-8.6729
-1.35065
1.40608
-1.92202
-10.4513
-22.0935
-34.2869
-44.7317
-51.7545
-54.5991
-53.3526
-48.2216
-39.794
-28.6576
-15.8334
-1.87355
12.3822
26.1753
39.1055
51.132
62.4931
73.3039
83.2822
91.2252
95.7515
96.2684
92.8453
86.1463
77.1944
67.0415
56.5385
45.3061
32.9637
21.0429
16.8374
27.467
58.2306
98.8478
131.907
185.285
410.466
1018.42
14992.3
80892.5
223777
-0.660676
-2.14851
-2.75074
-3.59199
-4.66337
-5.74841
-6.9176
-8.07998
-9.49989
-11.5884
-14.9672
-19.0352
-22.0981
-21.5657
-16.4788
-8.9627
-2.25438
0.170842
-3.1693
-11.3748
-22.4522
-33.8914
-43.4583
-49.5478
-51.641
-49.8697
-44.4898
-36.0673