/*--------------------------------*- C++ -*----------------------------------*\
| =========                 |                                                 |
| \\      /  F ield         | OpenFOAM: The Open Source CFD Toolbox           |
|  \\    /   O peration     | Version:  2.1.1                                 |
|   \\  /    A nd           | Web:      www.OpenFOAM.org                      |
|    \\/     M anipulation  |                                                 |
\*---------------------------------------------------------------------------*/
FoamFile
{
    version     2.0;
    format      ascii;
    class       volScalarField;
    location    "0.0015";
    object      p_rgh;
}
// * * * * * * * * * * * * * * * * * * * * * * * * * * * * * * * * * * * * * //

dimensions      [1 -1 -2 0 0 0 0];

internalField   nonuniform List<scalar> 
36520
(
5.64183
1.44195
0.954181
0.0227202
-0.754932
-1.40096
-2.08956
-2.77523
-3.67476
-5.22698
-8.11424
-12.4927
-17.7421
-22.5598
-25.3524
-25.0509
-21.9285
-17.7551
-15.2732
-17.3076
-25.7512
-40.5439
-60.5226
-84.3985
-108.836
-126.448
-127.324
-106.727
-65.6795
-12.0613
39.5405
75.4713
94.068
102.23
105.755
107.919
109.098
109.584
108.992
107.05
103.5
98.3448
91.739
83.7632
74.2769
62.6182
47.5882
27.4728
-0.575117
-43.3976
-108.414
-170.281
-142.811
-22.7127
157.052
802.397
695.572
117.369
12070.8
125091
6.28739
1.8336
0.852516
-0.0742783
-0.802857
-1.41209
-2.07152
-2.69876
-3.49747
-4.94759
-7.84564
-12.4189
-17.9983
-23.169
-26.1691
-25.7772
-22.2263
-17.3866
-14.2269
-15.8196
-24.3424
-39.5829
-60.1868
-84.9367
-111.107
-130.821
-132.967
-112.238
-69.9726
-13.5025
41.0913
78.1865
96.2793
103.626
106.617
108.515
109.793
110.241
109.642
107.612
103.997
98.7485
92.0505
84.0717
74.6945
63.3173
48.7748
29.4329
2.97957
-37.3839
-104.416
-204.989
-250.707
-173.37
-92.6458
-137.331
-277.581
-248.5
2110.18
107588
7.99674
2.96489
0.835705
-0.346268
-0.985704
-1.51814
-2.09929
-2.60508
-3.18041
-4.41948
-7.35495
-12.348
-18.6063
-24.4719
-27.8076
-27.1376
-22.6992
-16.6143
-12.1974
-12.9093
-21.5629
-37.5987
-59.2616
-85.5732
-115.127
-139.156
-143.14
-122.64
-78.0134
-15.8663
44.5396
83.6413
100.517
106.224
108.294
109.824
111.141
111.516
110.809
108.68
105.013
99.6196
92.8552
84.986
75.9269
65.1377
51.6209
33.6147
8.06916
-31.7985
-92.0844
-171.162
-194.742
-141.084
-122.492
-127.696
-215.208
-14.995
635.339
69716.4
8.86292
3.33162
0.578903
-0.669063
-1.19701
-1.63557
-2.11527
-2.47835
-2.70932
-3.59744
-6.58646
-12.2724
-19.5901
-26.4163
-30.0691
-28.7838
-22.8857
-15.1709
-9.2048
-8.85098
-17.8971
-35.1233
-58.2055
-86.507
-120.739
-150.938
-157.024
-136.811
-88.9709
-19.1757
49.4078
91.1328
106.09
109.53
110.482
111.576
112.92
113.39
112.614
110.532
106.593
100.875
93.8744
86.0709
77.4567
67.7068
55.9655
40.4055
17.6304
-17.9082
-71.7495
-142.641
-197.629
-170.672
-135.536
-104.086
-190.676
11.6229
-589.136
27160.2
9.01413
3.22131
0.0518584
-1.08553
-1.45191
-1.78889
-2.18429
-2.35171
-2.11063
-2.49091
-5.57047
-12.3199
-21.1479
-29.1742
-32.6857
-29.8771
-22.0751
-12.6282
-5.40763
-4.52618
-14.3368
-32.9499
-57.327
-87.239
-126.466
-163.992
-174.54
-152.274
-101.035
-23.0926
54.3079
98.7608
111.492
112.576
112.443
113.401
114.889
115.606
114.834
112.58
108.54
102.451
95.1161
87.1687
78.8509
70.0305
59.9846
46.7439
27.1839
-3.82223
-51.202
-110.821
-168.829
-167.692
-141.637
-100.14
-183.959
-4.58333
-583.102
14988.3
7.53133
2.39839
-0.875872
-1.66343
-1.76649
-1.95707
-2.26319
-2.20225
-1.3597
-1.09247
-4.40454
-12.8753
-23.8732
-33.1358
-35.4939
-29.5506
-18.9154
-8.42165
-0.891616
-0.700129
-11.6168
-31.5243
-56.5861
-86.5726
-128.431
-171.711
-187.099
-162.334
-109.466
-27.8965
56.4153
103.211
114.545
114.251
113.732
114.9
116.597
117.9
117.443
115.007
110.614
103.834
95.9978
87.9794
79.9108
72.2284
64.5738
54.975
40.1842
13.0712
-30.5485
-88.7026
-150.207
-172.778
-159.176
-115.543
-178.109
-30.5333
-158.209
21366.6
6.87203
1.36662
-2.11482
-2.1161
-2.00158
-2.04272
-2.28578
-2.05726
-0.523138
0.470284
-3.21956
-14.1779
-28.27
-38.2547
-37.5568
-26.3987
-12.0088
-1.7847
2.8424
-0.484835
-12.0909
-32.768
-57.6769
-86.4761
-128.388
-173.277
-189.16
-162.3
-102.413
-22.546
54.6828
103.421
114.7
114.237
114.185
115.626
117.689
119.46
119.279
116.798
112.211
104.821
96.4887
88.1886
79.8696
72.5101
66.6674
59.7388
48.333
25.7409
-14.1778
-70.9612
-129.839
-160.16
-159.098
-130.662
-185.463
-74.0254
77.6214
36550.6
-4.10689
-1.56884
-4.06412
-2.94255
-2.42011
-2.26252
-2.45988
-1.97552
0.670981
2.79827
-1.26229
-15.4237
-34.3407
-45.7197
-41.7633
-22.1632
-3.05116
8.25865
7.31413
0.155956
-16.0667
-38.939
-61.9869
-86.3269
-123.718
-165.813
-182.537
-155.377
-89.0859
-6.17378
57.8199
93.6855
108.797
111.299
111.773
115.566
118.701
121.507
122.413
120.228
114.899
106.355
96.8674
88.2639
81.0116
75.6481
71.7102
66.6867
57.7088
38.9588
3.41423
-47.8872
-105.659
-143.801
-170.59
-152.64
-175.896
-23.4276
1279.65
60894.1
19.0456
2.90881
-4.87911
-3.42385
-2.52427
-2.33361
-2.43526
-2.05393
1.04378
2.79543
-3.42819
-22.7605
-46.3416
-52.6501
-35.7764
-7.65285
12.5077
16.2594
8.00686
-3.63165
-20.8956
-43.2756
-64.0141
-87.6943
-126.072
-164.107
-179.653
-149.675
-86.2302
-4.31719
58.2006
94.2752
108.281
108.016
114.354
120.185
119.438
120.357
122.989
121.567
116.563
106.93
96.6531
87.6091
80.0956
74.3658
71.4073
69.8403
65.7618
52.3745
23.4432
-19.6125
-75.0245
-126.131
-178.451
-175.062
-145.417
266.61
9108.36
82062.9
39.4011
0.856614
-6.49108
-5.11682
-3.72799
-2.25211
-1.47941
-1.28357
-0.63236
1.22672
-3.34687
-20.1099
-45.2605
-56.8874
-42.6625
-9.17874
18.6639
24.0001
13.4926
0.122465
-14.0207
-37.3168
-65.862
-97.6881
-138.975
-165.307
-174.046
-149.506
-85.1877
-5.41028
60.5154
102.338
116.854
114.719
113.695
113.578
116.859
123.019
125.527
121.892
114.604
105.419
95.1854
85.5621
78.0856
74.55
74.9439
77.6836
78.0394
70.9956
51.0199
16.9682
-30.9684
-81.9703
-149.416
-177.912
-109.869
903.352
15233.9
98860.8
16.4986
-1.75677
-5.96143
-3.8605
-3.18696
-2.60758
-1.24095
1.57902
5.19676
6.39342
-0.549902
-21.5788
-48.4719
-55.6242
-43.1238
-12.3994
21.1404
22.4024
13.0957
-0.285863
-12.6407
-30.7831
-51.0472
-66.2116
-140.336
-183.149
-193.302
-154.565
-75.1806
-5.24806
64.2773
114.119
126.678
117.995
110.583
108.423
111.869
120.927
127.358
123.822
116.238
106.534
95.0019
85.708
79.4224
76.2928
76.5231
79.5784
81.5201
76.6821
61.0916
36.2842
-1.32691
-53.2275
-128.805
-182.51
-160.51
661.355
17117.3
119720
-9.51829
-0.781215
-3.98292
-3.083
-2.42917
-1.6115
0.0518884
2.77981
5.66139
7.59199
1.04841
-18.2459
-43.4688
-52.0036
-41.5355
-16.8676
10.3341
10.6272
6.87472
-2.15244
-14.056
-27.9394
-40.9694
-54.4716
-110.697
-225.539
-191.379
-173.65
-92.7783
-11.8836
78.2799
129.038
132.818
122.089
112.291
108.595
110.443
115.767
120.613
121.216
116.059
107.172
96.1271
86.7347
81.3766
79.5387
79.9932
81.4293
81.8828
76.6302
62.7023
42.0219
8.22154
-46.68
-133.188
-200.533
-165.174
150.922
5493.81
136101
-9.15434
-0.319481
-3.55387
-2.64827
-1.66402
-0.439463
1.44719
3.8023
6.34517
6.78188
-1.59952
-21.3128
-43.8513
-50.8727
-42.3839
-21.8822
-2.41025
7.23322
7.78895
4.82448
-5.70651
-20.4691
-35.334
-43.2283
-59.0424
-106.497
-145.8
-173.201
-136.72
-87.4359
53.5035
141.519
145.52
127.166
113.771
107.767
108.219
111.844
120.26
123.492
116.55
107.224
95.6447
85.7417
80.9306
79.5828
80.2857
81.8305
84.1176
79.4381
63.3446
40.7339
3.78466
-51.6526
-140.762
-205.141
-162.245
149.51
5906.61
115631
16.8508
1.67762
-4.90833
-2.59005
-1.09306
0.0621859
1.80238
3.94021
6.28561
6.11327
-2.62839
-22.0951
-45.7971
-55.1189
-46.8085
-24.635
-9.82537
-2.51604
3.45078
13.0661
-2.97597
-19.9271
-38.3011
-55.2314
-71.3879
-106.647
-119.643
-104.91
30.8074
-66.6694
12.0075
129.268
155.68
127.19
109.445
102.549
104.55
114.209
128.781
130.372
118.188
107.41
95.2645
84.1523
78.7843
76.6724
77.0071
76.3952
73.0737
65.6144
49.1952
23.3565
-15.0923
-70.1642
-158.138
-210.467
-162.218
684.288
16037.6
118510
52.0186
11.0527
-1.77315
-2.97244
-1.70522
-0.253369
1.78526
4.24444
6.20191
5.07964
-3.66472
-21.0996
-39.6294
-52.8816
-60.3606
-59.7525
-14.4857
-0.133093
32.6956
46.7055
30.0291
-4.28563
-31.6932
-53.7835
-74.7172
-89.1558
-113.236
-223.866
-154.278
-69.192
55.7574
66.1073
129.066
134.855
107.259
99.0352
107.766
124.4
132.441
127.588
116.889
106.801
95.1891
85.4299
80.0171
78.0526
76.4279
71.5433
63.0732
51.3872
29.8965
-5.10498
-51.0363
-109.558
-197.793
-233.693
-145.15
677.748
12926.6
99709.7
24.8979
8.43615
-2.6102
-3.10094
-2.18613
-0.477275
2.24531
5.05383
7.2099
6.21246
-2.09315
-20.2756
-45.7201
-66.2988
-59.8416
-22.0172
12.8368
17.4596
43.845
76.2143
46.6964
3.8791
-26.753
-54.0271
-93.6872
-132.598
-145.892
-154.302
-139.96
-115.424
-30.6283
34.3178
95.989
115.694
98.8798
92.4752
99.1027
115.051
127.184
125.304
115.747
105.669
95.5085
87.8079
83.0689
78.9328
73.0286
64.036
52.7937
37.0458
10.1124
-29.1016
-83.0477
-152.787
-227.453
-212.095
-121.551
237.198
8626.69
83983.2
-4.37878
-2.28789
-4.4182
-3.68796
-2.92641
-1.49588
0.346261
2.48826
4.60161
3.94142
-4.33863
-24.4033
-55.5306
-78.0617
-65.7429
-18.4193
37.5245
54.0453
41.4479
35.7158
20.7357
-4.86759
-30.5603
-57.1199
-91.3164
-127.893
-157.409
-175.866
-173.832
-129.611
-56.9402
33.6218
91.5945
101.927
93.6424
89.1177
93.2633
105.136
116.096
117.058
110.658
102.766
93.4816
85.4114
79.5394
75.2538
69.6682
61.1012
50.4488
32.7367
3.69149
-39.5153
-98.7027
-159.247
-203.752
-163.972
-95.7663
-2.18036
1218.59
64147.8
7.69773
1.457
-2.69269
-3.16793
-2.9579
-2.1637
-1.01834
0.398892
1.64035
0.330819
-7.17821
-22.9932
-43.8997
-57.3454
-50.182
-25.1201
7.25117
27.2549
35.0188
30.5901
11.8259
-10.7136
-31.6233
-54.7532
-85.4318
-116.422
-139.664
-151.965
-143.845
-114.937
-58.0182
14.6391
70.9703
88.3857
89.0532
88.6402
93.0363
102.017
109.982
111.992
107.581
100.244
91.0573
82.4269
76.5151
72.1544
66.3287
57.1976
44.6221
22.5574
-12.0985
-59.2779
-119.061
-172.194
-196.824
-135.303
-89.2483
-54.1489
181.938
44069.8
6.54841
1.25365
-2.12682
-2.99833
-3.03795
-2.683
-2.04772
-1.26648
-0.86228
-2.76619
-9.70204
-22.1798
-36.797
-44.7147
-37.8374
-16.6193
6.62436
19.4684
22.0014
16.6105
1.68214
-16.3492
-33.8614
-54.0175
-79.8144
-106.055
-125.998
-133.799
-122.92
-93.4595
-42.8298
15.5431
60.9271
79.2274
84.441
87.0996
92.3081
100.433
107.577
109.4
105.594
98.663
90.1085
81.9136
76.4199
71.2379
63.3384
50.9941
33.3904
6.47648
-33.8236
-87.2971
-144.167
-188.537
-196.436
-124.748
-86.021
-41.1892
-12.9399
29622.5
8.56241
1.95783
-1.48622
-2.61475
-2.93479
-2.89663
-2.64778
-2.38154
-2.62469
-4.89883
-11.0514
-20.9014
-31.3938
-36.3804
-31.0105
-15.978
1.78583
13.1223
14.2855
7.62588
-5.34376
-20.4853
-35.9977
-53.7235
-75.0466
-96.2092
-111.545
-114.985
-102.721
-74.6297
-31.2565
15.8543
52.3922
70.774
79.0509
84.2786
90.1816
97.3463
103.496
105.755
103.263
97.5603
89.9936
82.2911
75.6666
68.0278
56.7487
40.8587
18.2359
-14.3256
-60.6208
-117.928
-173.632
-200.333
-187.096
-121.513
-91.5081
-27.524
-631.092
23733.1
7.53587
1.96058
-0.968392
-2.2731
-2.81827
-3.05157
-3.1179
-3.23459
-3.92397
-6.37863
-11.7553
-19.5774
-27.2572
-30.3349
-25.5754
-14.2285
-1.58078
6.78759
7.24285
0.977874
-10.1925
-23.4995
-37.671
-53.4018
-70.8596
-87.1731
-97.7936
-98.1042
-85.2663
-59.6292
-23.4027
14.7222
45.1053
63.4105
73.9587
81.1605
87.745
94.4679
99.9027
102.052
100.007
95.2014
88.4071
80.9621
73.4075
64.0966
50.8264
31.7968
5.06677
-32.8252
-86.302
-146.939
-196.425
-199.561
-174.435
-120.733
-113.523
-56.7455
-141.148
34731.5
6.96959
1.8519
-0.591312
-1.90328
-2.63186
-3.08614
-3.42493
-3.8553
-4.90539
-7.43632
-12.1605
-18.4597
-24.2104
-26.1923
-22.1996
-13.5421
-3.92826
2.21149
2.18278
-3.52689
-13.4391
-25.5766
-38.7964
-52.9684
-67.5256
-80.0974
-87.1937
-85.1694
-72.2774
-49.1416
-18.4386
13.4256
39.7538
57.8651
69.8411
78.4375
85.6706
92.2044
97.2256
99.5056
98.2907
93.9604
87.3565
79.5049
70.7714
59.681
44.2082
22.1684
-8.67019
-51.0312
-107.746
-165.336
-196.362
-178.079
-147.888
-55.7688
-8.27686
-24.8904
862.453
68014.2
5.17183
1.16955
-0.354809
-1.57762
-2.45727
-3.08768
-3.61706
-4.27797
-5.56568
-8.1232
-12.3865
-17.6667
-22.1648
-23.4472
-20.006
-13.0297
-5.36067
-0.548719
-0.958784
-6.29395
-15.3947
-26.7662
-39.3119
-52.4034
-65.0673
-75.2751
-80.2991
-76.9684
-64.2673
-42.8989
-15.7042
12.3128
36.3016
54.178
66.9231
76.3793
84.0483
90.4778
95.1526
97.0839
95.9791
91.8344
85.3252
77.4895
68.2255
56.3364
40.313
17.3717
-14.4425
-58.661
-116.522
-176.063
-200.046
-200.087
-185.923
-106.309
-95.6919
-25.1847
1282.21
99824.9
4.19907
0.693753
-0.317749
-1.49494
-2.43821
-3.12917
-3.75394
-4.5305
-5.92995
-8.49733
-12.5391
-17.3393
-21.2516
-22.2415
-19.0923
-12.8519
-6.11506
-2.01907
-2.53623
-7.66883
-16.3963
-27.3805
-39.536
-52.0475
-63.7727
-72.7926
-76.8657
-72.9959
-60.2996
-39.9109
-14.4368
11.7806
34.6766
52.4067
65.4627
75.2813
83.1464
89.5532
94.1137
96.065
95.0324
91.0997
84.9259
77.1559
68.0168
56.0773
38.8635
15.2773
-16.8469
-60.3363
-112.441
-152.11
-151.352
-156.715
-135.442
54.2207
315.924
1476.06
20805.8
128242
4.0832
0.130162
-0.870585
-2.32358
-3.79977
-5.28895
-6.91875
-8.68887
-10.6381
-12.7376
-14.9723
-16.9895
-18.1432
-17.6661
-15.4192
-12.182
-9.68793
-9.71486
-12.8787
-18.3815
-24.7187
-30.1985
-33.5376
-34.2471
-32.5519
-28.8631
-23.409
-16.41
-8.17304
0.913024
10.4136
19.8618
29.2217
38.5362
48.0687
57.8597
67.5068
76.115
82.6995
86.5221
87.324
85.0962
80.0562
72.8506
64.1565
54.0116
41.038
22.2372
-6.15501
-51.1142
-118.104
-216.752
-252.414
-204.259
-72.2105
174.615
650.944
745.187
17400
128759
4.96677
0.628295
-0.927877
-2.39261
-3.81976
-5.28634
-6.92647
-8.72672
-10.708
-12.8449
-15.1378
-17.2689
-18.5363
-18.0756
-15.6523
-12.023
-9.1254
-9.0414
-12.4373
-18.36
-25.1359
-30.8889
-34.2323
-34.7166
-32.7775
-28.941
-23.436
-16.392
-8.09595
1.06076
10.7213
20.0589
29.2966
38.5238
48.0262
57.9305
67.8055
76.6798
83.3956
87.3042
88.1453
85.8335
80.6425
73.2052
64.3622
54.3123
42.0025
24.5469
-2.46938
-46.2277
-115.973
-227.995
-304.425
-253.31
-186.584
-87.5703
-140.609
-190.759
1415.65
103675
6.78316
1.43627
-1.05991
-2.6296
-3.94609
-5.34706
-6.98859
-8.85329
-10.8983
-13.0978
-15.4867
-17.8357
-19.3309
-18.8962
-16.132
-11.7308
-8.01686
-7.70948
-11.6388
-18.4515
-26.1201
-32.4011
-35.7059
-35.6634
-33.1907
-29.0699
-23.4426
-16.3094
-7.89973
1.36962
11.0388
20.4068
29.4691
38.4763
47.8974
57.999
68.3665
77.8721
85.0057
89.2268
90.2631
88.0687
82.9306
75.3801
66.5826
57.0014
45.4765
28.5996
2.06719
-38.9773
-100.498
-185.502
-260.182
-248.129
-185.993
-80.3914
-102.097
-155.216
513.1
70261.3
7.08039
1.39067
-1.41995
-2.87144
-4.01675
-5.35016
-7.0119
-8.99689
-11.1581
-13.4774
-16.0023
-18.6663
-20.527
-20.223
-16.9486
-11.3665
-6.3099
-5.60871
-10.4179
-18.645
-27.671
-34.7629
-37.9501
-36.9137
-33.499
-28.944
-23.2141
-16.0362
-7.53371
1.85202
11.5702
20.8381
29.6218
38.2851
47.5209
57.885
68.9062
78.9794
86.7007
91.1844
92.5379
90.8201
85.8809
78.5274
70.2986
62.0822
53.01
38.9474
15.1527
-22.3695
-76.7561
-149.245
-231.438
-253.042
-211.669
-133.434
-166.915
-166.367
-447.895
42961.5
7.07321
0.746279
-2.06136
-3.14672
-4.05706
-5.28292
-6.94688
-9.06171
-11.4373
-13.9373
-16.6422
-19.6397
-21.9587
-21.8441
-17.9125
-10.8523
-3.72713
-2.71571
-8.91611
-19.1529
-30.1349
-38.4422
-41.3457
-38.7497
-33.6553
-28.3383
-22.5283
-15.4209
-6.89319
2.57808
12.2898
21.5426
29.9635
38.086
47.0206
57.5563
69.3213
79.8954
88.052
92.637
94.0735
92.3119
87.2379
79.7608
72.0235
66.4632
61.246
51.9113
32.5975
0.38168
-46.9084
-109.225
-184.009
-235.407
-229.374
-159.096
-128.141
-153.042
-308.255
36854.4
5.93639
0.0401889
-2.67619
-3.35995
-4.04969
-5.09263
-6.67158
-8.9063
-11.6588
-14.5533
-17.5221
-20.7943
-23.5202
-23.6909
-19.556
-10.8661
-1.21928
0.764251
-7.31222
-20.2494
-33.7536
-43.6216
-46.1614
-40.6829
-32.7562
-26.3643
-20.677
-14.0209
-5.87099
3.32915
12.7936
21.7056
29.7743
37.5673
46.11
56.8453
69.493
81.1883
89.971
94.5639
95.8173
93.5791
87.8968
79.3777
71.4882
67.5153
66.7572
63.4711
50.9504
24.8253
-14.7046
-70.8217
-139.23
-207.204
-234.994
-179.683
-141.611
-152.826
61.3149
40338.9
1.84242
-1.17085
-3.21469
-3.58881
-3.94599
-4.59039
-5.79085
-8.13037
-11.6406
-15.5284
-19.0067
-22.4026
-25.3192
-25.7838
-21.4938
-11.2614
1.41962
4.56227
-4.90434
-21.2585
-38.3159
-50.1071
-51.4456
-42.8696
-31.0049
-23.3354
-17.9909
-11.9167
-4.22274
4.5501
13.5859
22.0294
29.605
37.0178
45.3355
55.8374
68.5317
80.7783
90.1634
95.2798
96.8642
94.1467
88.0577
78.753
70.5821
67.882
69.9928
71.4355
61.6732
37.8174
5.36402
-42.2867
-106.569
-178.016
-226.279
-192.932
-146.435
-129.971
357.41
55634.3
-1.91723
-1.72433
-3.86674
-3.60284
-3.63778
-3.5904
-4.0616
-6.42162
-11.2165
-17.0546
-21.4043
-24.6346
-27.4633
-28.2129
-24.1423
-12.9076
3.34214
11.453
0.112348
-21.198
-43.7182
-58.7433
-61.9705
-46.3827
-28.8198
-19.5998
-14.9153
-9.52586
-2.31759
5.90892
14.3984
22.415
29.6926
36.7071
44.9215
55.0923
67.9045
80.4919
89.9997
95.039
95.7453
92.7735
85.9419
75.987
67.1356
64.561
70.1146
76.9769
72.3692
55.4678
26.5814
-15.4949
-75.6539
-149.511
-213.929
-201.62
-151.79
-113.955
332.362
72285.5
-15.1914
-2.71879
-4.31525
-3.24723
-2.975
-1.9188
-1.15895
-3.25959
-9.3845
-17.8631
-22.938
-25.2206
-27.3914
-28.5291
-25.3774
-14.9893
3.60773
10.5336
-1.68869
-26.7947
-51.8942
-67.4129
-66.9462
-47.8693
-24.5748
-14.5411
-11.2492
-6.75862
-0.182766
7.20406
14.7978
22.4456
29.7604
36.8478
45.3805
55.5844
66.7327
77.8283
87.5049
93.2462
94.5705
91.7701
84.345
74.7908
66.0453
62.8884
65.5937
68.4384
66.2094
52.4279
29.4073
-3.19584
-51.6389
-121.898
-197.595
-208.003
-143.277
73.2071
3675.3
87384.3
5.81676
0.976407
-5.55724
-4.90932
-4.27949
-1.37114
1.46688
0.0484325
-8.66986
-22.0971
-29.2599
-28.983
-27.2813
-26.5879
-22.3622
-11.9016
4.97424
14.9301
4.45351
-23.0144
-53.7467
-85.878
-94.9158
-57.4429
-20.9117
-7.7705
-5.99175
-1.93079
3.76348
10.0697
17.3535
24.9195
32.0272
38.6192
46.5605
56.7183
68.4126
81.1418
91.7771
95.5985
96.0352
91.9372
83.7235
74.1852
66.6904
64.49
69.2065
76.1308
75.3114
61.0272
37.0302
-0.635389
-51.6318
-118.203
-187.496
-205.998
-121.527
381.072
14507
97364.2
57.2299
2.79302
-2.83528
-2.04332
-1.20715
1.45621
3.42523
1.28524
-8.26608
-24.3083
-33.6817
-32.881
-29.3643
-30.2451
-25.283
-2.4378
19.3383
9.06515
-26.9899
-64.8236
-80.3022
-94.9205
-66.775
-32.332
7.25317
16.7429
7.64293
8.49135
11.8976
16.3908
22.4701
30.3224
38.2407
44.9079
52.5628
62.4606
73.8923
85.4736
94.3771
95.291
94.9438
89.3974
81.2387
71.9685
64.5719
64.0794
69.5388
76.824
76.7977
65.7039
43.8559
8.8248
-38.8429
-93.9927
-159.975
-179.505
-60.784
871.62
18699.5
95689
75.4453
10.2408
-1.92905
-0.920389
0.715032
3.08838
4.14547
0.372555
-9.82941
-21.4958
-30.3259
-39.5964
-40.3053
-26.616
-5.03306
10.5478
15.2811
-17.5565
-40.9885
-62.0901
-45.3149
-1.63769
15.4276
-45.8371
37.3352
37.0611
12.0822
12.208
17.3755
21.5635
28.7034
37.9162
43.3121
47.8066
54.9269
64.8054
75.7848
84.934
90.7853
92.7634
93.0588
87.9246
80.0055
71.297
65.2064
65.1259
69.4628
74.2681
73.902
63.9019
39.9931
6.12083
-37.1495
-88.2013
-147.617
-164.251
-58.7023
702.723
17741
96341.6
69.7622
8.35862
-0.170335
0.332717
1.16581
2.55472
3.20166
-0.344243
-9.9878
-23.1552
-35.2073
-44.6425
-45.4762
-32.169
-2.57265
36.4004
34.3151
-5.96073
-55.7109
-76.6609
-99.2906
-89.9384
-74.9674
42.6381
47.5838
22.6596
11.2755
20.9788
27.8297
25.4017
25.2737
29.9513
37.3094
46.1259
55.7923
65.6529
77.524
87.8002
92.8189
93.9383
96.01
90.9174
81.9478
71.8511
65.2105
65.2182
70.3497
75.0977
75.0042
64.6312
40.3848
4.24006
-41.0869
-87.7695
-142.808
-166.417
-86.1703
748.604
17246.8
91596
37.6894
10.0694
-1.92398
-2.19401
-1.04844
1.21509
2.3684
-0.624868
-8.76838
-21.3475
-34.9689
-43.7605
-39.6914
-20.8517
20.5419
51.3755
41.8936
-6.23603
-57.0705
-87.0241
-114.076
-100.653
-90.5093
-23.4796
32.2373
21.9231
16.5076
18.0601
18.0117
20.3063
26.1167
33.1611
39.8485
47.3309
56.1307
67.939
83.2937
93.5071
95.7165
95.9371
97.1921
90.1194
80.5604
70.541
64.3153
64.6611
69.3714
71.7028
68.0873
55.7839
30.7304
-7.44479
-51.6867
-100.269
-159.563
-174.92
-101.681
803.43
14946.1
81069.8
-4.74774
-2.58357
-6.17238
-2.86518
-0.255926
2.52291
2.68893
-0.88943
-5.95806
-13.5204
-27.1365
-44.5988
-48.9368
-30.9699
5.48238
44.677
36.0401
-4.52662
-48.6199
-82.0679
-111.296
-128.988
-111.294
-59.9973
-13.2991
18.526
28.583
24.3489
18.9466
20.2418
26.4098
34.0675
40.9665
48.2217
56.9585
69.3503
84.3839
93.9505
96.7271
98.7166
99.6893
92.5579
83.0482
71.2528
62.9304
61.647
62.9959
61.7696
56.0257
43.2836
17.9323
-20.5962
-64.397
-114.262
-166.116
-172.754
-153.339
282.234
9660.1
71499.6
-14.5249
-7.57618
-7.83338
-5.05083
-2.45327
0.692175
0.295579
-2.5335
-5.94589
-10.9552
-21.0225
-32.3368
-37.1
-27.0351
-2.28007
22.2823
21.8083
-4.46611
-41.8253
-76.7363
-107.75
-124.924
-109.623
-69.3748
-20.3425
20.8215
30.0097
21.2162
16.8315
20.551
26.8397
34.8785
42.3069
49.6058
57.624
67.7498
80.1753
89.8971
95.7704
99.3733
100.614
93.8238
84.0112
74.5025
69.4062
66.5717
65.3063
62.8592
53.5889
35.5678
4.97312
-37.5318
-81.9668
-129.551
-171.713
-166.455
-162.729
-85.2861
762.159
52888.7
-20.157
-8.57638
-7.59771
-4.66259
-2.43659
0.00849811
-0.435745
-2.64167
-5.05082
-8.34554
-16.1234
-26.1821
-31.3821
-23.7842
-5.67434
13.5797
15.5162
-1.83403
-32.7869
-68.9898
-105.313
-121.362
-110.236
-80.1784
-36.7184
5.71483
18.4885
15.1122
14.0482
18.5991
25.9388
35.6733
45.2725
53.5299
61.0248
68.9847
79.5855
88.1215
94.9255
98.7257
99.2409
91.9727
82.0019
72.2313
65.1156
59.2591
53.8889
47.3466
35.7897
16.0531
-17.5039
-62.8124
-109.478
-150.373
-179.761
-142.636
-121.529
-63.7055
257.435
45151.8
0.463098
-1.66513
-3.72066
-3.70123
-3.37939
-2.72843
-3.06688
-4.36581
-6.19042
-9.11678
-15.0382
-23.0537
-28.1029
-23.6994
-9.37046
5.41229
7.86472
-3.90626
-28.6608
-58.8731
-87.3223
-100.271
-96.6077
-76.7231
-47.8931
-14.9826
1.14013
4.62259
7.09098
13.8181
24.039
35.815
47.0667
56.6916
65.1787
74.115
82.9776
90.1859
95.2178
98.0238
97.2132
90.29
80.981
72.5166
67.1548
62.979
56.6404
46.6501
30.5181
5.21707
-34.7495
-83.4306
-130.127
-159.837
-167.286
-117.832
-107.509
-46.028
36.3221
36078.5
3.42886
-1.96611
-3.54075
-3.35971
-3.27337
-3.06866
-3.5424
-4.64002
-6.29004
-8.89863
-13.5573
-19.6071
-23.5421
-20.5209
-11.3575
-2.1885
-0.183017
-8.69827
-27.8017
-52.7145
-76.7259
-90.1402
-86.1514
-71.25
-48.8016
-25.4904
-10.8443
-3.19211
3.67589
12.8757
24.2175
36.6185
48.3846
58.4374
67.0737
75.4849
83.5014
90.105
95.1245
98.1528
96.8653
90.6522
82.2561
74.2027
67.1904
59.8214
49.5285
34.6031
12.4224
-20.1523
-62.899
-107.052
-148.414
-166.358
-158.881
-96.9515
-68.8934
-1.09174
-77.1292
25136.7
6.06303
0.740536
-2.05431
-2.89883
-3.27862
-3.5275
-4.08209
-5.09908
-6.64277
-9.00454
-12.8613
-17.6914
-21.052
-19.563
-13.7002
-7.61498
-6.14643
-12.3519
-26.5969
-45.6495
-64.1941
-75.423
-74.9184
-64.8532
-48.7617
-31.916
-19.1465
-9.77151
-0.210165
11.3591
24.3572
37.6777
49.985
60.4657
69.0404
76.7862
83.7363
89.6121
93.8277
96.0212
94.8378
89.7604
82.5458
74.866
66.8365
56.8292
41.8345
19.6679
-12.6576
-51.8116
-102.129
-147.859
-177.919
-173.051
-147.005
-81.4786
-53.0293
40.7319
-472.976
21103.9
6.69964
1.45349
-1.07705
-2.27402
-2.98263
-3.56975
-4.31698
-5.4045
-6.92678
-9.14143
-12.4792
-16.4675
-19.3092
-18.887
-15.237
-11.1281
-10.2848
-15.157
-26.1429
-40.8963
-55.3408
-64.705
-65.8943
-60.0072
-49.192
-36.7519
-25.2963
-14.9043
-3.37025
9.9107
24.16
38.1091
50.5961
61.2074
69.9963
77.5072
83.9468
89.2619
93.0026
94.7086
93.4403
88.9473
82.2705
74.2737
64.369
50.2089
29.7547
0.945032
-35.8031
-75.9743
-120.128
-158.478
-190.237
-177.684
-132.723
-66.5917
-45.9967
32.7578
-213.928
35643.4
6.72645
1.90323
-0.503288
-1.81943
-2.72754
-3.54582
-4.46437
-5.63118
-7.17133
-9.29121
-12.276
-15.6973
-18.2298
-18.3386
-16.0869
-13.3582
-13.0131
-17.0543
-25.9263
-37.8849
-49.7678
-58.0505
-60.5885
-57.2869
-49.876
-40.2142
-29.6418
-18.6817
-5.73943
8.82553
24.0083
38.4763
51.1956
61.817
70.5284
77.833
83.9905
88.9395
92.3406
93.6457
92.3701
88.1752
81.5384
72.772
60.7369
43.251
18.7607
-12.7091
-48.604
-85.4816
-126.917
-167.892
-195.977
-174.389
-109.144
-20.5858
56.4761
61.9898
523.937
71036.5
5.04726
1.32283
-0.153981
-1.41977
-2.47737
-3.4383
-4.49445
-5.71928
-7.28511
-9.34696
-12.1191
-15.1847
-17.522
-17.9359
-16.4956
-14.6549
-14.6727
-18.2431
-25.8226
-36.0718
-46.452
-54.1567
-57.3722
-55.7925
-50.342
-42.2109
-32.1884
-20.6058
-7.10709
8.15856
23.8972
38.6857
51.5373
62.1775
70.868
78.0635
84.0265
88.7137
91.8441
92.8224
91.3273
87.0692
80.1499
70.6587
57.2619
38.4314
13.3746
-15.1595
-46.409
-78.5979
-119.398
-174.98
-244.504
-208.468
-114.311
-22.759
-2.48335
111.203
1813.8
101521
4.19909
0.811999
-0.0646126
-1.29473
-2.41776
-3.42808
-4.52867
-5.7842
-7.35752
-9.39814
-12.0697
-14.9706
-17.2081
-17.7625
-16.6943
-15.2648
-15.451
-18.8225
-25.8161
-35.2733
-44.958
-52.4039
-55.9146
-55.0944
-50.5406
-43.1355
-33.4883
-21.7484
-7.82917
7.77197
23.7593
38.6913
51.5989
62.244
70.9168
78.0577
83.9281
88.4797
91.4289
92.3101
90.8235
86.6488
79.701
69.9324
56.4365
36.9889
12.0535
-14.6965
-42.5792
-73.9746
-113.677
-161.797
-220.267
-177.405
-60.9313
110.527
303.525
868.704
16532
124671
2.96275
0.105974
-0.756423
-1.73661
-2.65788
-3.32421
-3.90301
-4.55687
-5.82835
-8.38364
-12.6908
-17.9696
-22.338
-23.4017
-19.6464
-12.4493
-4.82717
-0.260416
-0.959533
-6.6979
-16.1072
-27.5758
-39.9296
-52.3585
-63.8029
-72.4499
-76.2837
-72.4988
-60.1021
-40.1947
-15.2687
10.5617
33.3842
51.2317
64.471
74.5092
82.7067
89.5764
94.5876
96.7836
95.6518
91.3081
84.4249
75.368
64.9989
51.7435
33.5055
8.29654
-23.6622
-61.7901
-99.7056
-112.272
-79.5245
-79.8043
-72.698
103.842
364.367
1830.78
25015.6
144102
2.70926
-0.0496439
-0.988961
-2.02134
-2.94635
-3.58649
-4.11972
-4.64663
-5.75505
-8.23582
-12.7429
-18.4535
-23.2704
-24.3583
-20.0329
-11.9753
-3.61703
1.32224
0.344044
-6.04745
-16.1599
-28.1174
-40.6038
-52.7963
-63.6651
-71.5412
-74.6587
-70.8138
-58.6479
-39.3996
-15.4036
9.58197
31.954
49.7908
63.1713
73.4351
82.0352
89.4499
94.8621
97.2263
95.7158
90.5498
82.7291
73.1194
62.2797
49.238
31.6103
7.82294
-20.7972
-49.6245
-70.6641
-59.6258
-5.47027
-0.361383
6.8625
165.725
508.062
2977.84
33736.8
155640
0.975094
-0.666498
-1.46896
-2.38296
-3.27395
-3.89982
-4.39594
-4.79967
-5.71575
-8.07191
-12.7215
-18.8056
-24.0061
-25.0627
-20.19
-11.3615
-2.35016
2.67864
1.27738
-5.81245
-16.6612
-29.1578
-41.7175
-53.5206
-63.5232
-70.2971
-72.2426
-68.0057
-56.0072
-37.5797
-14.8544
8.90274
30.4232
47.8453
61.1018
71.4844
80.3661
88.0171
93.7208
96.1996
94.5429
88.939
80.7429
71.3546
61.23
49.9231
35.5702
16.7251
-4.57452
-22.5081
-26.7589
0.651802
67.6429
67.7963
60.4233
178.197
451.376
3349.21
45284.3
169720
-0.0220087
-1.22881
-1.9637
-2.82489
-3.65568
-4.30141
-4.79378
-5.11814
-5.84108
-8.0103
-12.7147
-19.1119
-24.6216
-25.5391
-20.1696
-10.7836
-1.42232
3.63125
1.70341
-6.11436
-17.6227
-30.5796
-43.2183
-54.5503
-63.5966
-68.8512
-69.1908
-63.8311
-52.0221
-34.628
-13.4775
8.7429
29.2566
46.242
59.5383
70.2117
79.4692
87.7179
94.3641
97.6187
96.832
92.3738
85.4916
77.4542
69.332
60.2143
49.3115
36.5083
23.9348
14.3781
21.2214
53.0129
110.362
107.132
101.527
165.504
320.03
3559.11
55011.2
185124
-1.95631
-1.80145
-2.48694
-3.22045
-4.02922
-4.72212
-5.24577
-5.51652
-6.04906
-8.00047
-12.6055
-19.0625
-24.7609
-25.3522
-19.6357
-10.0128
-0.790749
4.07224
1.58909
-6.81342
-18.8063
-32.0245
-44.6035
-55.2896
-62.756
-65.9623
-64.4481
-57.9076
-46.642
-30.717
-11.5128
8.88032
28.1513
44.5564
57.7005
68.4992
78.2602
87.131
94.5413
98.5676
98.2526
94.2689
87.9145
80.1805
71.9698
62.8371
52.3703
40.359
29.6027
26.4056
37.947
65.2412
102.614
129.412
143.181
227.263
365.765
5047.36
64845
200204
-0.787329
-1.99289
-2.85529
-3.65708
-4.43524
-5.17621
-5.75747
-6.11194
-6.71116
-8.5145
-12.8468
-18.9378
-24.1986
-24.5067
-18.4013
-9.24264
-0.542734
3.78247
0.981921
-7.6676
-19.8789
-33.2157
-45.5507
-55.4487
-61.4607
-62.9453
-60.101
-52.7002
-41.3007
-26.4405
-9.00145
9.52042
27.3279
42.9616
55.9172
66.8401
76.8698
86.0563
93.5998
97.8752
97.7247
93.7801
87.3512
79.3447
70.4729
61.1702
51.466
41.048
32.5887
31.3455
40.3608
66.5644
109.922
149.583
172.761
287.028
472.912
6919.15
72949.4
210257
-2.59632
-2.67474
-3.0852
-3.77089
-4.55749
-5.29739
-5.91589
-6.43785
-7.21009
-9.08358
-13.1838
-18.7878
-23.556
-23.5616
-17.8329
-9.00477
-0.696346
2.99761
0.085766
-8.6136
-20.8186
-33.961
-45.7888
-54.6805
-59.409
-59.6262
-55.6793
-47.5519
-36.384
-22.4114
-6.41771
10.4204
26.7192
41.3967
54.0549
65.1853
75.4481
84.908
92.7163
97.1423
97.3131
93.6674
87.3102
79.1526
69.8516
60.1466
50.355
40.5412
33.576
32.9247
44.5153
73.0132
121.823
150.941
182.723
321.403
620.232
9621.45
79339.2
218051
-1.85222
-2.44893
-2.99091
-3.76779
-4.6773
-5.60246
-6.47099
-7.22197
-8.18692
-10.118
-13.9527
-19.0117
-23.1111
-22.7881
-17.1118
-8.52015
-0.630152
2.44844
-0.79011
-9.47736
-21.5094
-34.2821
-45.5058
-53.4426
-57.1283
-56.4911
-51.7999
-43.3204
-32.1621
-18.8003
-3.92158
11.4834
26.3924
40.1074
52.4154
63.6544
74.2166
84.0113
92.0204
96.7025
97.2755
93.8358
87.2728
78.4192
68.5874
58.5377
48.159
37.1996
29.0389
29.8063
41.9466
68.0536
115.223
146.453
186.617
353.842
806.012
12119.9
83684.1
226024
-1.98928
-2.45755
-2.90693
-3.67697
-4.60686
-5.57676
-6.5693
-7.53799
-8.75731
-10.8011
-14.4335
-19.0135
-22.5603
-22.1528
-16.7304
-8.60954
-1.28729
1.46944
-1.85865
-10.3879
-22.0301
-34.2235
-44.6682
-51.6911
-54.5356
-53.289
-48.158
-39.7302
-28.5937
-15.7694
-1.80916
12.447
26.2404
39.1711
51.1978
62.5596
73.3715
83.3498
91.2927
95.8195
96.3383
92.9194
86.2289
77.288
67.1349
56.6259
45.3908
33.053
21.1367
16.9312
27.5591
58.3165
98.9385
131.995
185.366
411.02
1026.84
15026.9
80938.9
223827
-0.594413
-2.08225
-2.68448
-3.52573
-4.59711
-5.68215
-6.85134
-8.01372
-9.43362
-11.5222
-14.9009
-18.9689
-22.0318
-21.4995
-16.4126
-8.89644
-2.18811
0.237105
-3.10304
-11.3086
-22.386
-33.8252
-43.392
-49.4815
-51.5748
-49.8034
-44.4234