/*--------------------------------*- C++ -*----------------------------------*\
| =========                 |                                                 |
| \\      /  F ield         | OpenFOAM: The Open Source CFD Toolbox           |
|  \\    /   O peration     | Version:  2.1.1                                 |
|   \\  /    A nd           | Web:      www.OpenFOAM.org                      |
|    \\/     M anipulation  |                                                 |
\*---------------------------------------------------------------------------*/
FoamFile
{
    version     2.0;
    format      ascii;
    class       surfaceScalarField;
    location    "0.0015";
    object      phi;
}
// * * * * * * * * * * * * * * * * * * * * * * * * * * * * * * * * * * * * * //

dimensions      [0 3 -1 0 0 0 0];

internalField   nonuniform List<scalar> 
105695
(
-1.98793e-08
-1.16199e-07
-1.70817e-08
1.5316e-07
-5.10111e-08
-6.60023e-09
-6.72422e-10
3.84045e-08
-9.60544e-08
3.14657e-08
1.34813e-08
9.63373e-11
-1.21641e-07
2.56406e-08
3.58355e-08
-3.58892e-08
-1.42764e-07
2.34177e-08
4.9868e-08
-5.21632e-08
-1.5658e-07
2.09859e-08
6.07052e-08
-6.78753e-08
-1.70423e-07
2.16133e-08
7.17545e-08
-7.95242e-08
-1.82473e-07
2.16982e-08
8.02614e-08
-8.99094e-08
-1.95715e-07
2.43568e-08
8.97237e-08
-1.00839e-07
-2.1047e-07
2.74571e-08
1.00435e-07
-1.13138e-07
-2.28717e-07
3.18032e-08
1.10496e-07
-1.24052e-07
-2.49586e-07
3.52438e-08
1.2052e-07
-1.34895e-07
-2.71907e-07
3.70576e-08
1.25563e-07
-1.40299e-07
-2.92734e-07
3.55819e-08
1.26414e-07
-1.41169e-07
-3.09509e-07
3.1447e-08
1.20997e-07
-1.35669e-07
-3.21159e-07
2.57699e-08
1.14625e-07
-1.28745e-07
-3.29852e-07
2.21802e-08
1.1102e-07
-1.24508e-07
-3.39551e-07
2.25511e-08
1.13694e-07
-1.26546e-07
-3.54351e-07
2.85132e-08
1.2169e-07
-1.35403e-07
-3.77621e-07
3.879e-08
1.33861e-07
-1.4938e-07
-4.10214e-07
5.02709e-08
1.45724e-07
-1.63403e-07
-4.50821e-07
6.00517e-08
1.5244e-07
-1.71885e-07
-4.96524e-07
6.55194e-08
1.49513e-07
-1.6933e-07
-5.44656e-07
6.56131e-08
1.34335e-07
-1.51817e-07
-5.89764e-07
5.64702e-08
1.01625e-07
-1.12988e-07
-6.18526e-07
3.24511e-08
4.58644e-08
-4.95533e-08
-6.19183e-07
-3.3305e-09
-2.53383e-08
2.9326e-08
-5.90489e-07
-4.15369e-08
-9.80546e-08
1.10897e-07
-5.35539e-07
-7.44277e-08
-1.56088e-07
1.75565e-07
-4.67879e-07
-9.1083e-08
-1.81149e-07
2.04573e-07
-4.1012e-07
-8.45957e-08
-1.63909e-07
1.90746e-07
-3.76473e-07
-6.32501e-08
-1.16378e-07
1.45981e-07
-3.6272e-07
-4.27688e-08
-6.65674e-08
9.55831e-08
-3.58776e-07
-2.88482e-08
-2.85476e-08
5.34522e-08
-3.57365e-07
-2.0385e-08
-2.58826e-09
2.15617e-08
-3.56203e-07
-1.52414e-08
1.74244e-08
-3.34457e-09
-3.55107e-07
-1.00686e-08
3.43857e-08
-2.54128e-08
-3.5451e-07
-4.90844e-09
5.29031e-08
-4.85924e-08
-3.55138e-07
1.49471e-10
7.43319e-08
-7.38532e-08
-3.57735e-07
5.8771e-09
9.92347e-08
-1.02514e-07
-3.62921e-07
1.2931e-08
1.26013e-07
-1.33759e-07
-3.71051e-07
2.13699e-08
1.51976e-07
-1.65216e-07
-3.81987e-07
3.0802e-08
1.74389e-07
-1.94255e-07
-3.95672e-07
4.08871e-08
1.90641e-07
-2.17843e-07
-4.12372e-07
5.20838e-08
1.99684e-07
-2.35068e-07
-4.33428e-07
6.6646e-08
2.02869e-07
-2.48459e-07
-4.57993e-07
8.73157e-08
1.92012e-07
-2.54762e-07
-4.8224e-07
1.19917e-07
1.49748e-07
-2.45419e-07
-4.97453e-07
1.69895e-07
4.68917e-08
-2.01573e-07
-5.04853e-07
2.34212e-07
-1.96696e-07
-3.01161e-08
-6.02722e-07
2.8517e-07
-7.89646e-07
6.02344e-07
-1.08235e-06
2.06667e-07
-1.69906e-06
1.97201e-06
-1.57907e-06
3.01469e-08
-1.82619e-06
2.29277e-06
-1.63371e-06
-4.36835e-07
-1.28037e-06
1.77184e-06
-1.64699e-06
-5.2454e-07
-1.222e-06
1.75982e-06
-1.51204e-06
-6.05881e-07
-1.31773e-06
1.78866e-06
-1.2467e-06
-6.68446e-07
-1.38089e-06
1.78399e-06
-8.52896e-07
-7.65241e-07
-1.46289e-06
1.83433e-06
-4.69656e-07
-6.27018e-07
-1.54354e-06
1.78732e-06
-6.74239e-07
-1.76773e-06
1.97231e-06
-1.4516e-07
-9.96881e-08
2.3167e-09
1.26332e-07
-1.9521e-07
2.34775e-08
4.02638e-08
-2.02914e-08
-2.27417e-07
5.81173e-08
3.9721e-08
-3.41659e-08
-2.5162e-07
5.29503e-08
6.4727e-08
-6.78339e-08
-2.71428e-07
4.94003e-08
6.54608e-08
-7.16344e-08
-2.84706e-07
4.4812e-08
7.93658e-08
-8.99145e-08
-2.99707e-07
4.63892e-08
8.46106e-08
-9.4385e-08
-3.12519e-07
4.63633e-08
9.26692e-08
-1.04523e-07
-3.26726e-07
5.1634e-08
9.9763e-08
-1.12833e-07
-3.42482e-07
5.73512e-08
1.09226e-07
-1.23364e-07
-3.62218e-07
6.60992e-08
1.18736e-07
-1.33296e-07
-3.84565e-07
7.2399e-08
1.28622e-07
-1.43429e-07
-4.08401e-07
7.48886e-08
1.32701e-07
-1.46696e-07
-4.30209e-07
7.08233e-08
1.32965e-07
-1.46399e-07
-4.4772e-07
6.12687e-08
1.24859e-07
-1.3717e-07
-4.59202e-07
4.97379e-08
1.1492e-07
-1.27405e-07
-4.67317e-07
4.3281e-08
1.05695e-07
-1.18681e-07
-4.75922e-07
4.47378e-08
1.03791e-07
-1.17372e-07
-4.89388e-07
5.65547e-08
1.08776e-07
-1.23351e-07
-5.11699e-07
7.72404e-08
1.20298e-07
-1.36438e-07
-5.43495e-07
1.00448e-07
1.31788e-07
-1.50169e-07
-5.83146e-07
1.20069e-07
1.38315e-07
-1.58682e-07
-6.27329e-07
1.30794e-07
1.35579e-07
-1.56671e-07
-6.74273e-07
1.31442e-07
1.2073e-07
-1.39614e-07
-7.18383e-07
1.13375e-07
8.80327e-08
-1.00828e-07
-7.45923e-07
6.50904e-08
2.90181e-08
-3.41172e-08
-7.44528e-07
-6.20861e-09
-4.70902e-08
4.85735e-08
-7.13892e-07
-8.20288e-08
-1.24874e-07
1.34729e-07
-6.56868e-07
-1.47987e-07
-1.86861e-07
2.03396e-07
-5.86947e-07
-1.82259e-07
-2.12424e-07
2.3368e-07
-5.28213e-07
-1.69741e-07
-1.90052e-07
2.16464e-07
-4.95819e-07
-1.27684e-07
-1.34212e-07
1.66251e-07
-4.83949e-07
-8.7789e-08
-7.88147e-08
1.11965e-07
-4.81088e-07
-6.14608e-08
-3.83639e-08
6.81153e-08
-4.80086e-07
-4.57426e-08
-1.11994e-08
3.55545e-08
-4.78878e-07
-3.49199e-08
8.95635e-09
9.51452e-09
-4.77899e-07
-2.50401e-08
2.72762e-08
-1.32834e-08
-4.77651e-07
-1.45266e-08
4.62495e-08
-3.68795e-08
-4.78603e-07
-3.90762e-09
6.75599e-08
-6.2551e-08
-4.81165e-07
8.2266e-09
9.01486e-08
-8.99364e-08
-4.84917e-07
2.16081e-08
1.11756e-07
-1.16681e-07
-4.88865e-07
3.63536e-08
1.29764e-07
-1.40799e-07
-4.92412e-07
5.09773e-08
1.44343e-07
-1.60971e-07
-4.95793e-07
6.53991e-08
1.56274e-07
-1.77405e-07
-4.99784e-07
7.93385e-08
1.64985e-07
-1.88249e-07
-5.05441e-07
9.7936e-08
1.68572e-07
-1.94205e-07
-5.10885e-07
1.27849e-07
1.6027e-07
-1.95359e-07
-5.1084e-07
1.8106e-07
1.242e-07
-1.85388e-07
-4.91046e-07
2.65136e-07
3.60171e-08
-1.51052e-07
-4.22527e-07
3.58143e-07
-1.48427e-07
-4.40231e-08
-2.46859e-07
3.62866e-07
-5.65127e-07
3.11763e-07
-1.28178e-07
8.96083e-08
-1.37326e-06
1.37164e-06
-8.28176e-08
-2.70458e-07
-2.127e-06
2.38224e-06
-3.09499e-07
-4.93017e-07
-2.20263e-06
2.4855e-06
-7.71512e-07
-4.91642e-07
-2.03968e-06
2.4688e-06
-8.2638e-07
-8.43583e-07
-1.63557e-06
1.92814e-06
-4.56639e-07
-1.06404e-06
-1.29205e-06
1.31791e-06
-3.79229e-07
-9.17536e-07
-9.94195e-07
1.06908e-06
-2.41264e-07
-1.17953e-06
-1.15354e-06
1.56809e-06
-1.26209e-06
-1.40424e-06
1.75083e-06
-2.02535e-07
-4.14003e-08
2.04213e-08
1.23826e-07
-2.6865e-07
6.8852e-08
4.99927e-08
-2.92524e-08
-3.0436e-07
9.00335e-08
5.36793e-08
-4.98847e-08
-3.25311e-07
7.95006e-08
7.0265e-08
-7.5865e-08
-3.41956e-07
7.49632e-08
7.12773e-08
-8.01946e-08
-3.54827e-07
6.78885e-08
8.6508e-08
-9.67132e-08
-3.68357e-07
7.01658e-08
8.97566e-08
-1.00004e-07
-3.80318e-07
7.01112e-08
9.95877e-08
-1.11374e-07
-3.93416e-07
7.84311e-08
1.0586e-07
-1.19559e-07
-4.08317e-07
8.79236e-08
1.16009e-07
-1.3168e-07
-4.28186e-07
1.02924e-07
1.26394e-07
-1.43349e-07
-4.51496e-07
1.13084e-07
1.36882e-07
-1.54257e-07
-4.76982e-07
1.15959e-07
1.41965e-07
-1.5755e-07
-5.00353e-07
1.07033e-07
1.42429e-07
-1.55267e-07
-5.18469e-07
8.96834e-08
1.32207e-07
-1.42507e-07
-5.29038e-07
7.18527e-08
1.17215e-07
-1.28761e-07
-5.34431e-07
6.27027e-08
1.02852e-07
-1.1688e-07
-5.39395e-07
6.68914e-08
9.79173e-08
-1.15107e-07
-5.49191e-07
8.57102e-08
1.03299e-07
-1.22658e-07
-5.68071e-07
1.17852e-07
1.17882e-07
-1.39613e-07
-5.97125e-07
1.53965e-07
1.33886e-07
-1.58349e-07
-6.33954e-07
1.8445e-07
1.45011e-07
-1.72564e-07
-6.75696e-07
2.01373e-07
1.46256e-07
-1.75093e-07
-7.22366e-07
2.04592e-07
1.34769e-07
-1.61249e-07
-7.70781e-07
1.80835e-07
1.03401e-07
-1.22446e-07
-8.02751e-07
1.07077e-07
3.76745e-08
-4.76913e-08
-8.02895e-07
-6.36158e-09
-4.84002e-08
4.86977e-08
-7.72631e-07
-1.19821e-07
-1.40155e-07
1.47682e-07
-7.11843e-07
-2.2093e-07
-2.17505e-07
2.2966e-07
-6.33276e-07
-2.75828e-07
-2.53445e-07
2.68446e-07
-5.68209e-07
-2.57834e-07
-2.25352e-07
2.48379e-07
-5.35922e-07
-1.94305e-07
-1.5476e-07
1.89094e-07
-5.2723e-07
-1.36127e-07
-8.76899e-08
1.27335e-07
-5.27083e-07
-9.987e-08
-4.18217e-08
8.00842e-08
-5.27261e-07
-7.89285e-08
-1.30168e-08
4.63806e-08
-5.26462e-07
-6.35764e-08
7.95227e-09
1.99046e-08
-5.25731e-07
-4.86449e-08
2.74218e-08
-4.54724e-09
-5.26329e-07
-3.29887e-08
4.79293e-08
-2.88694e-08
-5.28567e-07
-1.67073e-08
7.13315e-08
-5.62937e-08
-5.32602e-07
3.06471e-10
9.70723e-08
-8.51174e-08
-5.38246e-07
1.81945e-08
1.22787e-07
-1.13729e-07
-5.43861e-07
3.70731e-08
1.45578e-07
-1.40683e-07
-5.47753e-07
5.52379e-08
1.65241e-07
-1.65609e-07
-5.51022e-07
7.18101e-08
1.85487e-07
-1.88629e-07
-5.53113e-07
8.45275e-08
2.03388e-07
-2.06485e-07
-5.53324e-07
1.01836e-07
2.17899e-07
-2.21589e-07
-5.49697e-07
1.32784e-07
2.24687e-07
-2.33249e-07
-5.34708e-07
1.94282e-07
2.14271e-07
-2.42483e-07
-4.81896e-07
2.92743e-07
1.57629e-07
-2.38048e-07
-3.37518e-07
3.97402e-07
1.603e-08
-1.99666e-07
-7.84376e-08
3.93914e-07
-2.81242e-07
-8.88617e-09
1.89647e-07
1.37188e-07
-7.28176e-07
4.12512e-07
3.83271e-07
-2.81422e-07
-1.18307e-06
1.00041e-06
4.2707e-07
-5.39078e-07
-1.48048e-06
1.48274e-06
4.41245e-07
-6.35947e-07
-1.87833e-06
2.00846e-06
5.41094e-07
-7.93558e-07
-2.10529e-06
1.95541e-06
6.18326e-07
-9.63991e-07
-1.3038e-06
1.12652e-06
1.47253e-07
-6.77242e-07
-6.63112e-07
8.9389e-07
-1.70178e-07
-1.30065e-06
-1.04834e-06
1.4869e-06
-1.87965e-06
-1.18753e-06
1.6349e-06
-2.39943e-07
5.0364e-08
2.63604e-08
1.21819e-07
-3.18214e-07
1.23359e-07
6.38204e-08
-4.00566e-08
-3.59487e-07
1.26892e-07
6.65559e-08
-6.21409e-08
-3.78194e-07
1.07219e-07
7.58895e-08
-8.49014e-08
-3.92151e-07
1.03427e-07
7.99781e-08
-9.44843e-08
-4.0401e-07
9.47221e-08
9.11919e-08
-1.06167e-07
-4.16378e-07
9.80043e-08
9.53307e-08
-1.10801e-07
-4.2904e-07
9.83732e-08
1.0483e-07
-1.2043e-07
-4.42463e-07
1.0793e-07
1.12244e-07
-1.2832e-07
-4.59331e-07
1.21788e-07
1.2464e-07
-1.41636e-07
-4.81522e-07
1.43229e-07
1.37777e-07
-1.55891e-07
-5.07375e-07
1.55977e-07
1.52437e-07
-1.69478e-07
-5.34367e-07
1.56533e-07
1.61582e-07
-1.75163e-07
-5.58233e-07
1.39188e-07
1.62405e-07
-1.70695e-07
-5.74619e-07
1.10689e-07
1.48955e-07
-1.53575e-07
-5.80841e-07
8.66415e-08
1.2532e-07
-1.33887e-07
-5.80378e-07
7.91044e-08
1.0186e-07
-1.18725e-07
-5.7757e-07
8.93857e-08
9.01598e-08
-1.15462e-07
-5.78093e-07
1.18214e-07
9.42524e-08
-1.26233e-07
-5.87313e-07
1.62367e-07
1.14218e-07
-1.49514e-07
-6.0627e-07
2.0852e-07
1.40921e-07
-1.76519e-07
-6.30573e-07
2.43771e-07
1.63176e-07
-1.98194e-07
-6.56017e-07
2.62047e-07
1.71904e-07
-2.07134e-07
-6.85942e-07
2.67035e-07
1.65667e-07
-1.98184e-07
-7.26995e-07
2.44728e-07
1.37054e-07
-1.59894e-07
-7.65314e-07
1.5663e-07
6.18893e-08
-7.31231e-08
-7.79599e-07
3.40682e-09
-4.43886e-08
4.89047e-08
-7.67736e-07
-1.40832e-07
-1.60506e-07
1.69656e-07
-7.18272e-07
-2.7092e-07
-2.67186e-07
2.67712e-07
-6.36679e-07
-3.47685e-07
-3.20999e-07
3.11262e-07
-5.6747e-07
-3.28625e-07
-2.78383e-07
2.79965e-07
-5.40061e-07
-2.49854e-07
-1.7512e-07
2.0326e-07
-5.4091e-07
-1.80305e-07
-8.48915e-08
1.2992e-07
-5.49508e-07
-1.39567e-07
-2.88708e-08
7.71653e-08
-5.55909e-07
-1.1751e-07
4.11548e-09
4.08672e-08
-5.59467e-07
-9.97852e-08
2.78793e-08
1.18878e-08
-5.61943e-07
-8.18873e-08
4.9155e-08
-1.34366e-08
-5.64601e-07
-6.19224e-08
7.13402e-08
-3.97488e-08
-5.68083e-07
-4.06525e-08
9.61695e-08
-6.87419e-08
-5.72151e-07
-2.04751e-08
1.23556e-07
-9.87064e-08
-5.77014e-07
3.69358e-10
1.50697e-07
-1.28009e-07
-5.80169e-07
2.08424e-08
1.74491e-07
-1.55106e-07
-5.7751e-07
3.85867e-08
1.95105e-07
-1.81113e-07
-5.69923e-07
5.44013e-08
2.17502e-07
-2.0768e-07
-5.55964e-07
5.71056e-08
2.41109e-07
-2.27646e-07
-5.32894e-07
6.35852e-08
2.57782e-07
-2.426e-07
-4.95293e-07
9.11126e-08
2.61513e-07
-2.57442e-07
-4.42936e-07
1.60652e-07
2.54844e-07
-2.73571e-07
-3.52371e-07
2.72895e-07
2.19378e-07
-2.90094e-07
-1.74483e-07
3.89782e-07
1.46572e-07
-3.16841e-07
1.2611e-07
4.04619e-07
-8.70657e-09
-3.02591e-07
4.11301e-07
2.07896e-07
-2.30268e-07
-1.25632e-07
5.5367e-07
-2.26387e-07
-4.63623e-07
2.66219e-07
5.7152e-07
-5.14474e-07
-8.2609e-07
7.83637e-07
5.29745e-07
-6.79354e-07
-1.34296e-06
1.42814e-06
6.03237e-07
-8.1214e-07
-1.7762e-06
1.72129e-06
6.88268e-07
-9.06487e-07
-1.27573e-06
1.13319e-06
3.47234e-07
-5.40303e-07
-7.02062e-07
9.06157e-07
-4.72426e-08
-1.36272e-06
-6.90655e-07
1.1472e-06
-2.48193e-06
-1.01766e-06
1.5727e-06
-2.73114e-07
1.69109e-07
6.67939e-08
8.75744e-08
-3.64405e-07
1.85754e-07
8.02182e-08
-5.13218e-08
-4.08968e-07
1.70752e-07
7.18986e-08
-7.11963e-08
-4.30103e-07
1.37292e-07
8.41403e-08
-9.30783e-08
-4.46142e-07
1.35343e-07
8.90449e-08
-1.04922e-07
-4.60527e-07
1.23186e-07
1.00395e-07
-1.14474e-07
-4.73071e-07
1.25693e-07
1.07154e-07
-1.22297e-07
-4.85669e-07
1.27147e-07
1.16701e-07
-1.32878e-07
-4.96607e-07
1.37029e-07
1.25139e-07
-1.433e-07
-5.103e-07
1.5484e-07
1.41567e-07
-1.60926e-07
-5.30368e-07
1.81762e-07
1.60713e-07
-1.79178e-07
-5.55953e-07
1.96221e-07
1.80688e-07
-1.95346e-07
-5.81876e-07
1.87061e-07
1.95695e-07
-2.003e-07
-6.00669e-07
1.49954e-07
1.98906e-07
-1.90879e-07
-6.05517e-07
1.02429e-07
1.8071e-07
-1.67602e-07
-5.94293e-07
7.24561e-08
1.43227e-07
-1.40265e-07
-5.72656e-07
7.59095e-08
1.03129e-07
-1.21571e-07
-5.46773e-07
1.02621e-07
8.05411e-08
-1.1966e-07
-5.2094e-07
1.44662e-07
8.43175e-08
-1.36598e-07
-4.99036e-07
1.96559e-07
1.13373e-07
-1.69469e-07
-4.787e-07
2.38359e-07
1.5651e-07
-2.06685e-07
-4.53256e-07
2.60475e-07
1.94783e-07
-2.36931e-07
-4.1802e-07
2.63997e-07
2.15445e-07
-2.52631e-07
-3.79893e-07
2.5971e-07
2.20664e-07
-2.51466e-07
-3.60693e-07
2.41088e-07
2.02497e-07
-2.18057e-07
-3.74813e-07
1.63358e-07
1.27309e-07
-1.19917e-07
-4.15903e-07
1.51377e-08
-6.08507e-09
3.54449e-08
-4.68171e-07
-1.3786e-07
-1.48653e-07
1.97949e-07
-4.9228e-07
-2.512e-07
-3.1513e-07
3.1952e-07
-4.52354e-07
-3.313e-07
-4.2877e-07
3.72459e-07
-3.95647e-07
-3.32361e-07
-3.76898e-07
3.23928e-07
-3.816e-07
-2.68477e-07
-2.17832e-07
2.22408e-07
-4.01126e-07
-2.09344e-07
-8.85929e-08
1.37158e-07
-4.29443e-07
-1.7658e-07
-1.81529e-08
8.3483e-08
-4.55362e-07
-1.60577e-07
2.10965e-08
4.78896e-08
-4.77964e-07
-1.44368e-07
5.02822e-08
1.69024e-08
-4.98477e-07
-1.28306e-07
7.90485e-08
-1.21163e-08
-5.18627e-07
-1.09924e-07
1.10018e-07
-4.18671e-08
-5.39849e-07
-8.63587e-08
1.4409e-07
-7.71625e-08
-5.62008e-07
-6.6454e-08
1.85024e-07
-1.16885e-07
-5.86963e-07
-4.98549e-08
2.30823e-07
-1.55644e-07
-6.11045e-07
-3.47672e-08
2.7532e-07
-1.95629e-07
-6.2563e-07
-2.5018e-08
3.16443e-07
-2.38254e-07
-6.29779e-07
-1.62345e-08
3.59645e-07
-2.8486e-07
-6.22271e-07
-2.56279e-08
3.97662e-07
-3.22436e-07
-5.98944e-07
-4.18607e-08
4.28748e-07
-3.46629e-07
-5.54357e-07
-4.55218e-08
4.56618e-07
-3.64571e-07
-4.84353e-07
-4.62923e-09
4.83819e-07
-3.88542e-07
-3.64122e-07
6.80673e-08
5.12083e-07
-4.27486e-07
-1.79611e-07
1.68336e-07
5.22514e-07
-4.8558e-07
6.89598e-08
2.06651e-07
4.84218e-07
-5.34821e-07
2.73895e-07
9.72517e-08
4.16147e-07
-5.10438e-07
4.10998e-07
-3.6844e-07
3.30116e-07
-3.25165e-07
4.62006e-07
-6.35592e-07
-9.94009e-08
1.6951e-07
3.73199e-07
-7.08972e-07
-7.4726e-07
8.65686e-07
1.89676e-07
-6.83394e-07
-1.44092e-06
1.49569e-06
3.01381e-07
-1.05861e-06
-1.43941e-06
1.47983e-06
3.54443e-07
-6.84729e-07
-9.25897e-07
1.01726e-06
1.00975e-07
-1.46053e-06
-5.74109e-07
9.2538e-07
-2.91577e-06
-1.09682e-06
1.63164e-06
-3.38131e-07
3.42295e-07
1.16246e-07
4.8699e-08
-4.30335e-07
2.40051e-07
1.07785e-07
-6.98785e-08
-4.77696e-07
2.15192e-07
9.45476e-08
-9.16265e-08
-4.94177e-07
1.62807e-07
9.9563e-08
-1.08597e-07
-5.0736e-07
1.61635e-07
1.11772e-07
-1.24881e-07
-5.19222e-07
1.44715e-07
1.21502e-07
-1.31169e-07
-5.28599e-07
1.45689e-07
1.3081e-07
-1.41428e-07
-5.35145e-07
1.44916e-07
1.39671e-07
-1.50895e-07
-5.35874e-07
1.5381e-07
1.46563e-07
-1.62616e-07
-5.36323e-07
1.73844e-07
1.65815e-07
-1.84369e-07
-5.41557e-07
2.06616e-07
1.87677e-07
-2.07297e-07
-5.50658e-07
2.1974e-07
2.13206e-07
-2.27624e-07
-5.5377e-07
1.88741e-07
2.31539e-07
-2.30107e-07
-5.4161e-07
1.13346e-07
2.36737e-07
-2.12288e-07
-5.102e-07
3.70846e-08
2.1088e-07
-1.76945e-07
-4.63208e-07
8.5006e-09
1.54941e-07
-1.37978e-07
-4.07074e-07
3.95011e-08
9.39055e-08
-1.13631e-07
-3.46512e-07
1.06724e-07
4.89834e-08
-1.13648e-07
-2.82583e-07
1.72129e-07
4.59257e-08
-1.37321e-07
-2.16814e-07
2.24078e-07
8.93341e-08
-1.82622e-07
-1.47931e-07
2.41031e-07
1.60914e-07
-2.3247e-07
-6.6333e-08
2.24965e-07
2.26061e-07
-2.72149e-07
3.9405e-08
1.86979e-07
2.68621e-07
-2.97342e-07
1.62794e-07
1.51265e-07
2.92962e-07
-3.07905e-07
2.78563e-07
1.23992e-07
2.89981e-07
-2.88655e-07
3.50982e-07
7.38427e-08
2.11152e-07
-1.94056e-07
3.52355e-07
-2.34854e-08
5.79769e-08
-2.07261e-08
2.71841e-07
-1.43828e-07
-8.15472e-08
1.68029e-07
1.4969e-07
-2.29997e-07
-2.35114e-07
3.36062e-07
7.90452e-08
-2.19693e-07
-4.66491e-07
4.25529e-07
8.51342e-08
-1.96521e-07
-5.21394e-07
3.79465e-07
8.45326e-08
-2.00458e-07
-3.20803e-07
2.53385e-07
5.5159e-08
-1.98e-07
-1.34881e-07
1.5291e-07
1.87411e-08
-1.95512e-07
-4.40258e-08
9.93749e-08
-1.72798e-08
-1.88612e-07
-7.99893e-09
7.20547e-08
-5.08644e-08
-1.71421e-07
1.30354e-08
4.76027e-08
-8.42485e-08
-1.50971e-07
3.72939e-08
1.87553e-08
-1.21323e-07
-1.28769e-07
6.86717e-08
-1.27515e-08
-1.64486e-07
-9.95057e-08
1.05036e-07
-4.87263e-08
-2.15518e-07
-7.49922e-08
1.49475e-07
-8.99047e-08
-2.75772e-07
-6.02409e-08
2.00256e-07
-1.29616e-07
-3.41885e-07
-5.5355e-08
2.50714e-07
-1.64013e-07
-3.98675e-07
-6.34293e-08
2.95388e-07
-2.00187e-07
-4.34184e-07
-8.9257e-08
3.61532e-07
-2.53e-07
-4.5372e-07
-1.37155e-07
4.34246e-07
-3.03184e-07
-4.62839e-07
-1.93227e-07
5.07524e-07
-3.47038e-07
-4.62616e-07
-2.50131e-07
5.97521e-07
-3.93135e-07
-4.33855e-07
-2.70017e-07
6.83096e-07
-4.46469e-07
-3.59479e-07
-2.55704e-07
7.67123e-07
-5.17729e-07
-2.21455e-07
-1.99965e-07
8.53561e-07
-6.23284e-07
-1.0279e-08
-1.96087e-07
8.93329e-07
-7.01767e-07
2.16626e-07
-2.78179e-07
8.79824e-07
-7.31298e-07
4.20443e-07
-6.98343e-07
7.33643e-07
-6.07557e-07
4.65222e-07
-8.52616e-07
2.8773e-07
-1.15484e-07
3.44174e-07
-8.15917e-07
-2.4213e-07
4.70123e-07
2.7835e-08
-3.73496e-07
-1.17074e-06
1.17718e-06
-2.376e-07
-8.47577e-07
-1.49533e-06
1.54973e-06
1.39563e-07
-1.13783e-06
-1.00941e-06
1.08535e-06
3.11077e-07
-1.86781e-06
-7.25023e-07
9.60788e-07
-3.04189e-06
-1.3684e-06
1.80559e-06
-4.18477e-07
5.40989e-07
3.13322e-07
-9.35385e-08
-5.09212e-07
2.73024e-07
1.47337e-07
-8.95757e-08
-5.55885e-07
2.60481e-07
1.10763e-07
-1.09379e-07
-5.58455e-07
1.78237e-07
1.03017e-07
-1.15877e-07
-5.60075e-07
1.84506e-07
1.16368e-07
-1.3762e-07
-5.55026e-07
1.54827e-07
1.29643e-07
-1.44804e-07
-5.42327e-07
1.50638e-07
1.39797e-07
-1.57447e-07
-5.20976e-07
1.41989e-07
1.46611e-07
-1.65035e-07
-4.85576e-07
1.47417e-07
1.47972e-07
-1.76978e-07
-4.41651e-07
1.66917e-07
1.63441e-07
-2.0044e-07
-3.95986e-07
2.01598e-07
1.8677e-07
-2.27417e-07
-3.49004e-07
2.10384e-07
2.12276e-07
-2.49902e-07
-2.91656e-07
1.45406e-07
2.32804e-07
-2.46816e-07
-2.18629e-07
1.13199e-08
2.41507e-07
-2.12509e-07
-1.32753e-07
-1.01893e-07
2.15911e-07
-1.62809e-07
-4.11303e-08
-1.19306e-07
1.49482e-07
-1.13298e-07
4.27617e-08
-2.82098e-08
6.24971e-08
-7.86782e-08
1.17095e-07
1.01333e-07
-1.2249e-09
-6.77172e-08
2.00151e-07
2.12974e-07
-3.01813e-08
-9.37207e-08
3.0623e-07
2.60477e-07
1.03156e-08
-1.52794e-07
4.36782e-07
2.3989e-07
8.6139e-08
-2.1555e-07
5.80035e-07
1.47472e-07
1.92867e-07
-2.58627e-07
7.38347e-07
3.71957e-08
2.78921e-07
-2.8745e-07
9.08143e-07
-5.14965e-08
3.44736e-07
-3.11771e-07
1.07981e-06
-1.08038e-07
3.78549e-07
-3.18183e-07
1.23954e-06
-1.30281e-07
2.94924e-07
-2.50534e-07
1.31396e-06
-1.23683e-07
1.20884e-07
-9.51012e-08
1.22537e-06
-1.21576e-07
-2.33566e-08
8.96879e-08
1.00427e-06
-1.24831e-07
-1.48034e-07
2.63968e-07
8.06809e-07
-7.55106e-08
-3.18091e-07
3.71374e-07
7.42156e-07
8.53696e-11
-4.87945e-07
3.55991e-07
7.08894e-07
-2.17233e-08
-3.90158e-07
2.44686e-07
6.44276e-07
-9.56256e-08
-1.73867e-07
1.3611e-07
5.80989e-07
-1.61327e-07
-4.99565e-08
7.90592e-08
5.37316e-07
-1.99094e-07
-5.31059e-10
5.46862e-08
5.10937e-07
-2.02454e-07
2.1206e-08
3.62063e-08
4.95076e-07
-1.84392e-07
3.56743e-08
1.36082e-08
4.82414e-07
-1.57069e-07
5.2218e-08
-1.12559e-08
4.686e-07
-1.15346e-07
6.69799e-08
-3.73259e-08
4.51297e-07
-7.32732e-08
8.43646e-08
-6.87802e-08
4.19804e-07
-4.05782e-08
1.13477e-07
-1.01647e-07
3.70608e-07
-2.29358e-08
1.52653e-07
-1.35877e-07
3.06518e-07
-2.39696e-08
1.88806e-07
-1.64175e-07
2.48238e-07
-6.6509e-08
2.37608e-07
-2.02077e-07
2.15416e-07
-1.54531e-07
2.98256e-07
-2.48057e-07
2.14567e-07
-2.64209e-07
3.67014e-07
-2.95184e-07
2.20705e-07
-3.82e-07
4.6902e-07
-3.43289e-07
2.41703e-07
-4.74399e-07
5.73941e-07
-3.90557e-07
2.99481e-07
-5.29244e-07
6.73747e-07
-4.57985e-07
4.09452e-07
-5.54897e-07
8.10539e-07
-5.65577e-07
5.74831e-07
-6.49045e-07
9.76289e-07
-6.8871e-07
7.97341e-07
-8.07729e-07
1.09356e-06
-7.8652e-07
8.76866e-07
-1.08861e-06
9.81363e-07
-6.70624e-07
7.92128e-07
-1.09738e-06
7.06183e-07
-3.76685e-07
6.30337e-07
-9.31288e-07
2.16121e-07
6.10416e-08
3.00921e-07
-1.20508e-07
-6.93685e-07
7.70113e-07
-7.30149e-08
-4.89545e-07
-1.23633e-06
1.25223e-06
3.77248e-07
-1.71276e-06
-9.89095e-07
1.11376e-06
5.06446e-07
-2.20769e-06
-9.92157e-07
1.20285e-06
-2.98488e-06
-1.49572e-06
1.94516e-06
-5.96774e-07
8.3898e-07
4.11851e-07
-1.13068e-07
-5.89273e-07
2.33516e-07
1.39413e-07
-1.07406e-07
-5.78442e-07
2.58989e-07
1.25371e-07
-1.3471e-07
-5.12837e-07
1.20641e-07
1.29348e-07
-1.37356e-07
-4.45399e-07
1.44576e-07
1.26878e-07
-1.54386e-07
-3.72195e-07
1.06298e-07
1.33827e-07
-1.58502e-07
-2.86681e-07
1.01591e-07
1.24996e-07
-1.61464e-07
-1.86626e-07
9.75894e-08
1.03877e-07
-1.59533e-07
-6.16206e-08
1.03891e-07
8.22637e-08
-1.63743e-07
8.39987e-08
1.231e-07
8.15041e-08
-1.83307e-07
2.42514e-07
1.56927e-07
9.68995e-08
-2.10744e-07
4.03501e-07
1.65641e-07
1.15978e-07
-2.32222e-07
5.62853e-07
7.49547e-08
1.3616e-07
-2.25061e-07
7.15545e-07
-9.88263e-08
1.42339e-07
-1.84886e-07
8.6276e-07
-2.50711e-07
1.2693e-07
-1.25326e-07
1.01864e-06
-2.89037e-07
9.88128e-08
-8.49632e-08
1.15587e-06
-1.45883e-07
4.84386e-08
-6.79941e-08
1.24878e-06
7.54052e-08
-6.40832e-09
-6.057e-08
1.33424e-06
2.4252e-07
-4.08123e-08
-7.41978e-08
1.50651e-06
2.48626e-07
-5.30669e-08
-1.07355e-07
1.76493e-06
1.47717e-07
-2.62111e-08
-1.40035e-07
2.02711e-06
8.6539e-09
3.29408e-08
-1.56304e-07
2.22262e-06
-1.0646e-07
1.10349e-07
-1.62199e-07
2.33874e-06
-1.72618e-07
1.83975e-07
-1.78973e-07
2.39087e-06
-2.19702e-07
2.6363e-07
-2.04097e-07
2.43343e-06
-2.51722e-07
2.67969e-07
-1.89094e-07
2.45625e-06
-2.09783e-07
1.67662e-07
-1.04378e-07
2.36608e-06
-1.00963e-07
3.82421e-08
3.13168e-08
2.13159e-06
2.52534e-08
-8.41718e-08
1.68578e-07
1.89226e-06
1.12354e-07
-1.99386e-07
2.5085e-07
1.7997e-06
1.22177e-07
-2.67558e-07
2.38022e-07
1.78143e-06
7.67326e-08
-2.57858e-07
1.77679e-07
1.71142e-06
2.00171e-08
-1.55266e-07
1.09629e-07
1.58701e-06
-3.04696e-08
-7.67189e-08
7.02756e-08
1.46637e-06
-1.00701e-07
-2.93275e-08
5.15697e-08
1.38365e-06
-1.54736e-07
-4.80609e-09
3.98103e-08
1.33288e-06
-1.65628e-07
1.2966e-08
1.90323e-08
1.30104e-06
-1.61174e-07
4.6375e-08
-1.04295e-08
1.2781e-06
-1.18936e-07
6.93887e-08
-4.28522e-08
1.2709e-06
-6.52928e-08
7.68919e-08
-7.76755e-08
1.2711e-06
-1.795e-08
8.78847e-08
-1.10716e-07
1.27423e-06
1.05362e-08
1.04103e-07
-1.40705e-07
1.2851e-06
1.96939e-08
1.13026e-07
-1.67554e-07
1.28546e-06
5.98969e-09
1.24894e-07
-1.97752e-07
1.25359e-06
-3.51986e-08
1.46299e-07
-2.33767e-07
1.18579e-06
-1.07281e-07
1.85592e-07
-2.74715e-07
1.09272e-06
-2.07577e-07
2.49835e-07
-3.31194e-07
1.01659e-06
-3.274e-07
3.36858e-07
-4.07725e-07
1.00518e-06
-4.61759e-07
4.41046e-07
-4.97118e-07
1.0946e-06
-6.05793e-07
5.7201e-07
-6.10539e-07
1.26341e-06
-7.95836e-07
7.02951e-07
-7.24969e-07
1.46488e-06
-1.05502e-06
8.55981e-07
-8.1016e-07
1.60646e-06
-1.34836e-06
9.35476e-07
-8.17307e-07
1.78945e-06
-1.46421e-06
8.63344e-07
-6.79501e-07
1.86964e-06
-1.29287e-06
6.43733e-07
-3.62335e-07
1.92465e-06
-3.76668e-07
1.66801e-09
1.99478e-07
1.55179e-06
-4.77866e-07
-2.797e-07
6.40879e-07
1.14758e-06
-1.93248e-06
-9.76308e-07
1.60024e-06
8.53364e-07
-2.16526e-06
-1.23098e-06
1.48277e-06
-2.57455e-06
-1.60374e-06
2.04678e-06
-4.6283e-07
5.11572e-07
1.80033e-06
-1.01009e-06
-4.46952e-07
1.94003e-07
2.40478e-07
-2.16843e-07
-3.09424e-07
1.61182e-07
7.29075e-08
-1.12629e-07
-1.44659e-07
2.64038e-08
5.0049e-08
-1.20577e-07
4.64076e-08
2.96901e-08
2.98541e-08
-1.06034e-07
2.42345e-07
-9.34155e-09
2.10932e-08
-1.0139e-07
4.44386e-07
-2.14251e-08
1.53526e-08
-9.43775e-08
6.39525e-07
-1.56595e-08
6.22276e-09
-8.81128e-08
8.27088e-07
8.71559e-10
-1.07294e-09
-8.34701e-08
1.02517e-06
2.0164e-08
-2.21518e-09
-9.29321e-08
1.25374e-06
3.70443e-08
-5.75285e-10
-1.08107e-07
1.49431e-06
4.72988e-08
-1.03342e-09
-1.21195e-07
1.66241e-06
3.20327e-08
-1.12386e-08
-1.13947e-07
1.68103e-06
-4.36207e-09
-2.31655e-08
-8.992e-08
1.53594e-06
-3.31773e-08
-1.34341e-08
-5.90089e-08
1.36875e-06
-8.20384e-08
1.77675e-08
-5.75674e-08
1.36014e-06
-1.16981e-07
4.88557e-08
-6.91557e-08
1.52883e-06
-8.88267e-08
8.85278e-08
-9.29779e-08
1.8259e-06
-6.01112e-08
1.37859e-07
-1.32303e-07
2.16396e-06
-8.29877e-08
1.41369e-07
-1.47814e-07
2.44841e-06
-1.01961e-07
1.02818e-07
-1.37594e-07
2.60969e-06
-8.42131e-08
3.92527e-08
-1.07663e-07
2.6711e-06
-8.26354e-08
6.09531e-10
-8.58415e-08
2.6793e-06
-8.88012e-08
-1.31294e-08
-7.88889e-08
2.64472e-06
-9.3217e-08
-1.60125e-08
-7.58926e-08
2.57153e-06
-9.99459e-08
-2.07661e-08
-5.78143e-08
2.50428e-06
-9.63582e-08
-4.48249e-08
-1.35383e-09
2.46259e-06
-5.58919e-08
-7.13638e-08
6.79865e-08
2.45024e-06
-7.12143e-09
-7.59386e-08
1.20661e-07
2.47199e-06
2.53178e-08
-6.98204e-08
1.35106e-07
2.52171e-06
1.45213e-08
-5.72277e-08
1.15162e-07
2.57193e-06
-8.67902e-09
-4.65166e-08
8.17083e-08
2.57332e-06
-9.11454e-10
-3.3048e-08
5.25898e-08
2.50905e-06
1.5857e-08
-1.77672e-08
3.57073e-08
2.34427e-06
3.60734e-08
-1.05537e-09
2.90598e-08
2.14447e-06
2.00064e-08
1.27912e-08
1.22672e-08
2.01178e-06
-3.93127e-08
1.41722e-08
-7.79531e-09
1.95903e-06
-1.0003e-07
7.2912e-09
-1.56849e-08
1.94065e-06
-7.71279e-08
-1.07431e-09
-2.23589e-08
1.94138e-06
-2.89884e-08
5.31887e-09
-4.2349e-08
1.96736e-06
3.78279e-09
2.73097e-08
-7.50211e-08
2.01816e-06
2.71964e-08
3.50295e-08
-1.02494e-07
2.09382e-06
3.29519e-08
2.66027e-08
-1.15522e-07
2.17935e-06
2.74808e-08
1.88537e-08
-1.25871e-07
2.26394e-06
1.10002e-08
1.34755e-08
-1.44265e-07
2.32849e-06
-1.31466e-08
1.05362e-08
-1.69222e-07
2.3561e-06
-4.30628e-08
1.02971e-08
-2.02415e-07
2.34447e-06
-7.77797e-08
1.33887e-08
-2.51383e-07
2.31918e-06
-1.38266e-07
1.60185e-08
-3.14221e-07
2.31276e-06
-2.19024e-07
2.33484e-08
-4.03696e-07
2.32997e-06
-3.16964e-07
3.04371e-08
-5.26515e-07
2.33209e-06
-4.4042e-07
2.9131e-08
-6.45849e-07
2.37633e-06
-6.7137e-07
4.9801e-08
-7.71028e-07
2.50545e-06
-8.83184e-07
2.78867e-08
-7.3804e-07
2.62152e-06
-8.34652e-07
-2.98053e-08
-5.44483e-07
2.83526e-06
-3.59221e-07
-1.81849e-07
-4.93331e-08
2.67815e-06
-2.55322e-07
-5.10891e-07
4.45464e-07
1.68349e-06
-6.58573e-07
-1.96307e-06
1.68383e-06
9.93119e-07
-6.5944e-07
-2.46877e-06
1.65332e-06
-8.51698e-07
-2.73448e-06
2.00474e-06
-2.16056e-07
2.01295e-07
1.71335e-06
-1.18702e-06
-1.85478e-07
1.74632e-07
2.68236e-07
-2.79442e-07
-1.96987e-08
6.73541e-08
8.25698e-08
-1.54521e-07
1.22569e-07
-2.21019e-08
6.07557e-08
-1.54518e-07
2.85933e-07
-3.34052e-08
3.40883e-08
-1.34357e-07
4.31743e-07
-5.51741e-08
2.03877e-08
-1.20366e-07
5.86813e-07
-7.74688e-08
1.25e-08
-1.11526e-07
7.58994e-07
-8.95318e-08
2.56113e-09
-1.00871e-07
9.31061e-07
-7.6283e-08
-9.6599e-09
-8.52519e-08
1.09232e-06
-4.82516e-08
-1.52797e-08
-7.75595e-08
1.24226e-06
-1.21305e-08
-1.7032e-08
-8.37416e-08
1.38061e-06
1.94932e-08
-1.52987e-08
-9.5237e-08
1.4857e-06
3.3094e-08
-1.51638e-08
-9.0989e-08
1.52734e-06
3.22708e-08
-2.39269e-08
-5.43473e-08
1.49366e-06
3.88506e-08
-2.68865e-08
-1.14597e-08
1.39302e-06
3.21734e-08
-6.24788e-09
-7.32343e-09
1.30306e-06
-2.04425e-08
3.33617e-08
-3.99419e-08
1.33042e-06
-1.00226e-07
7.34846e-08
-8.94445e-08
1.47571e-06
-1.75057e-07
9.09541e-08
-1.21305e-07
1.66279e-06
-2.20014e-07
8.1549e-08
-1.31602e-07
1.79903e-06
-1.95143e-07
8.30337e-08
-1.26086e-07
1.87125e-06
-1.1625e-07
6.60288e-08
-1.0621e-07
1.90432e-06
-6.13031e-08
1.56188e-08
-7.00283e-08
1.91303e-06
-3.56708e-08
-1.92255e-08
-4.26148e-08
1.90323e-06
-2.26979e-08
-3.87274e-08
-2.19924e-08
1.86979e-06
-2.2066e-08
-5.02496e-08
5.8152e-09
1.81694e-06
-2.59267e-08
-5.72218e-08
3.96406e-08
1.78026e-06
-3.98316e-08
-5.68287e-08
7.74484e-08
1.77611e-06
-5.90738e-08
-5.21374e-08
1.08235e-07
1.79562e-06
-6.52415e-08
-4.1279e-08
1.1233e-07
1.83646e-06
-9.38095e-08
-3.07342e-08
9.82316e-08
1.87086e-06
-9.36443e-08
-2.44694e-08
7.50352e-08
1.88364e-06
-4.7866e-08
-1.94839e-08
5.36543e-08
1.88185e-06
-7.45684e-09
-1.47177e-08
3.98206e-08
1.8714e-06
2.17925e-08
-8.82909e-09
3.35609e-08
1.83733e-06
2.83586e-08
-2.07866e-09
2.77986e-08
1.75712e-06
1.18786e-08
5.82962e-09
2.31917e-08
1.65838e-06
-2.02264e-08
1.05456e-08
8.38167e-09
1.60825e-06
-3.25907e-08
8.93119e-09
-3.33605e-09
1.60822e-06
-2.6113e-08
7.72081e-09
-1.05601e-08
1.63984e-06
-1.69057e-08
1.50118e-08
-2.59515e-08
1.69282e-06
-3.13136e-09
1.92317e-08
-4.18749e-08
1.74997e-06
1.03122e-08
1.15107e-08
-4.60247e-08
1.80787e-06
8.6048e-09
3.26211e-09
-4.22886e-08
1.85591e-06
2.29134e-09
2.21421e-10
-3.95506e-08
1.88424e-06
-1.32506e-09
4.06436e-10
-4.05612e-08
1.88977e-06
-3.6233e-09
1.70689e-09
-4.66778e-08
1.88034e-06
-3.80848e-09
3.17219e-09
-6.77079e-08
1.85849e-06
-1.33135e-08
4.9069e-09
-1.08014e-07
1.83658e-06