/*--------------------------------*- C++ -*----------------------------------*\
| =========                 |                                                 |
| \\      /  F ield         | OpenFOAM: The Open Source CFD Toolbox           |
|  \\    /   O peration     | Version:  2.1.1                                 |
|   \\  /    A nd           | Web:      www.OpenFOAM.org                      |
|    \\/     M anipulation  |                                                 |
\*---------------------------------------------------------------------------*/
FoamFile
{
    version     2.0;
    format      ascii;
    class       volSymmTensorField;
    location    "0.0015";
    object      R;
}
// * * * * * * * * * * * * * * * * * * * * * * * * * * * * * * * * * * * * * //

dimensions      [0 2 -2 0 0 0 0];

internalField   nonuniform List<symmTensor> 
36520
(
(0.183637 0.00498925 0.0618592 0.0654252 0.0155012 0.109355)
(0.293579 -0.0364467 0.0669326 0.128512 -0.00689682 0.121052)
(0.562191 -0.0586392 0.150943 0.254417 -0.0206453 0.231431)
(0.688745 -0.0731945 0.206186 0.327578 -0.035984 0.300402)
(0.806948 -0.079265 0.248617 0.383356 -0.0434452 0.3562)
(0.892896 -0.0859769 0.279827 0.427767 -0.0513586 0.399378)
(0.975496 -0.0906737 0.307607 0.466324 -0.0565357 0.436882)
(1.0506 -0.0941987 0.332705 0.501329 -0.0610859 0.470981)
(1.12454 -0.0969661 0.356979 0.533746 -0.0646353 0.502213)
(1.19546 -0.0982297 0.380944 0.563849 -0.0672984 0.532046)
(1.26315 -0.098246 0.404225 0.591067 -0.0686472 0.559735)
(1.32709 -0.0974929 0.426676 0.616205 -0.069394 0.585996)
(1.38595 -0.095035 0.447302 0.638262 -0.0686312 0.60954)
(1.44048 -0.0919237 0.466296 0.658024 -0.0674082 0.630943)
(1.48885 -0.0875898 0.482242 0.674402 -0.0651233 0.648566)
(1.53521 -0.082672 0.496537 0.688393 -0.0628316 0.663793)
(1.57978 -0.0756536 0.509552 0.699851 -0.0598047 0.675966)
(1.62401 -0.0659515 0.522931 0.709573 -0.0557766 0.686431)
(1.66388 -0.0530248 0.536457 0.716865 -0.0497937 0.694443)
(1.69556 -0.0372675 0.549812 0.720294 -0.0414731 0.699929)
(1.71301 -0.0193201 0.561308 0.718185 -0.0304716 0.701802)
(1.71082 -0.000657107 0.568805 0.709173 -0.0171734 0.698623)
(1.68438 0.0170298 0.570237 0.691928 -0.0023875 0.689162)
(1.63075 0.0318051 0.56365 0.665941 0.0127692 0.672124)
(1.54838 0.041548 0.5472 0.631052 0.0269024 0.646752)
(1.43994 0.0438879 0.519376 0.587809 0.0378828 0.611784)
(1.31284 0.0376503 0.480233 0.537417 0.0433551 0.566758)
(1.18526 0.0243038 0.435738 0.485282 0.042234 0.516145)
(1.07697 0.00705456 0.393877 0.438381 0.0352485 0.466991)
(0.99458 -0.0108527 0.357461 0.399426 0.0240209 0.422988)
(0.933276 -0.0252102 0.327398 0.36829 0.0117093 0.385816)
(0.882238 -0.0335063 0.303368 0.342878 0.00171535 0.355267)
(0.833265 -0.0374081 0.283371 0.320778 -0.00488912 0.329337)
(0.784528 -0.0398592 0.265428 0.300603 -0.00921116 0.306024)
(0.736742 -0.0423077 0.248465 0.281872 -0.0124253 0.284414)
(0.691779 -0.045143 0.23249 0.264804 -0.0152501 0.264604)
(0.65179 -0.0483332 0.218148 0.249947 -0.0180817 0.247221)
(0.620563 -0.0518496 0.206735 0.238833 -0.0210622 0.233779)
(0.602547 -0.0558685 0.199584 0.233353 -0.0243667 0.225709)
(0.601741 -0.0602945 0.197814 0.235175 -0.0280994 0.224127)
(0.620971 -0.0645413 0.202048 0.245584 -0.0321746 0.229621)
(0.663319 -0.0677401 0.212675 0.266222 -0.036436 0.242844)
(0.732096 -0.0683096 0.230112 0.299012 -0.0404932 0.26455)
(0.829631 -0.0638932 0.254532 0.345685 -0.0434891 0.295154)
(0.958443 -0.0517631 0.28563 0.408606 -0.043888 0.334824)
(1.12127 -0.027665 0.323004 0.49225 -0.0396247 0.383536)
(1.32094 0.0159771 0.366081 0.607987 -0.0272878 0.442047)
(1.56552 0.0929026 0.41276 0.784212 0.00219711 0.514738)
(1.87343 0.228908 0.459648 1.0857 0.0757318 0.622297)
(2.24598 0.4327 0.490877 1.60883 0.26716 0.827308)
(2.74949 0.581099 0.47137 2.29024 0.642369 1.24691)
(3.8633 0.540942 0.488868 3.17168 1.18786 2.01382)
(5.11354 0.432103 0.594576 3.8583 1.52367 2.88378)
(5.86478 0.36223 0.242619 3.83415 1.41282 3.56908)
(5.74642 0.315688 0.0534317 3.44763 1.29715 3.59961)
(4.80987 0.34801 0.0826594 2.82685 1.00835 3.24079)
(3.65319 0.385758 0.0332359 2.14627 0.721692 2.74629)
(2.67265 0.294664 -0.137431 1.45886 0.415401 2.0003)
(0.596819 0.060254 0.0443557 0.419817 0.151683 0.570377)
(0.427402 -0.0868291 -0.119925 0.241867 0.0602583 0.324494)
(0.157399 -0.0138286 0.0314767 0.0535202 -0.00247414 0.053793)
(0.219892 -0.0301514 0.0500301 0.092674 -0.00818444 0.0807106)
(0.262251 -0.0270146 0.0702212 0.117182 -0.0109149 0.10657)
(0.261139 -0.0243173 0.0754775 0.120968 -0.0111643 0.111961)
(0.266522 -0.0219763 0.0780115 0.124355 -0.0108576 0.116032)
(0.269832 -0.0208786 0.0798003 0.126975 -0.0110553 0.119232)
(0.27963 -0.0199762 0.0827251 0.131322 -0.0110051 0.123665)
(0.287737 -0.0193898 0.0853013 0.135038 -0.0112447 0.127595)
(0.297342 -0.0187331 0.0882465 0.139053 -0.0112997 0.131523)
(0.304393 -0.0177374 0.0905883 0.141683 -0.0111865 0.134535)
(0.309777 -0.0165907 0.0924664 0.143454 -0.010818 0.136713)
(0.311986 -0.0150335 0.0934031 0.143886 -0.0101216 0.137761)
(0.312815 -0.0133785 0.0938095 0.143703 -0.00918414 0.138146)
(0.311419 -0.0116674 0.0933916 0.14269 -0.00808309 0.137547)
(0.310682 -0.0101237 0.0928653 0.141822 -0.00691169 0.136841)
(0.310829 -0.00880157 0.0922808 0.141099 -0.00589301 0.136006)
(0.313335 -0.00752818 0.0921892 0.141094 -0.00505786 0.135665)
(0.315885 -0.00615225 0.0920775 0.140946 -0.00434364 0.135306)
(0.316049 -0.00456777 0.0913178 0.139869 -0.00352804 0.134231)
(0.309917 -0.00289698 0.0886411 0.13636 -0.0024222 0.131178)
(0.29471 -0.00150903 0.0828825 0.129489 -0.00096474 0.125294)
(0.271042 -0.00103604 0.0736566 0.119633 0.000598188 0.116844)
(0.240794 -0.00187462 0.0608886 0.107666 0.00207879 0.106517)
(0.208898 -0.00425824 0.045478 0.0956245 0.00322645 0.0960584)
(0.180102 -0.00826701 0.0283205 0.0853307 0.00395193 0.0870825)
(0.163419 -0.0136124 0.0122924 0.0800812 0.00439021 0.082737)
(0.168774 -0.0197744 0.00102752 0.0831793 0.00488632 0.0864702)
(0.161683 -0.0215557 -0.000973668 0.0784415 0.00473213 0.0814778)
(0.120658 -0.0156793 0.00614935 0.0572483 0.003016 0.0593137)
(0.0823299 -0.00859487 0.0142767 0.03722 0.000884604 0.0385839)
(0.0651103 -0.00529078 0.0173555 0.0277046 -0.000264556 0.0286172)
(0.0580466 -0.00417976 0.0172715 0.0237645 -0.000675814 0.0243697)
(0.0534052 -0.00364617 0.0163586 0.0214639 -0.000822842 0.0218523)
(0.0499714 -0.00339869 0.0154272 0.0199476 -0.000905814 0.0201109)
(0.0478368 -0.00337303 0.0147379 0.0190881 -0.00100011 0.018988)
(0.0472196 -0.00352489 0.0144076 0.018912 -0.00112799 0.018497)
(0.0479232 -0.00377514 0.0143863 0.0193115 -0.001283 0.0185292)
(0.0504852 -0.00412153 0.0148107 0.0205237 -0.00147506 0.0192618)
(0.0559637 -0.00459707 0.0159399 0.02304 -0.00172831 0.0210562)
(0.0655342 -0.00520887 0.018021 0.0274523 -0.00205946 0.0242987)
(0.0804572 -0.00588951 0.0212577 0.0344703 -0.00246025 0.0293994)
(0.102777 -0.00654036 0.0259677 0.045205 -0.00293041 0.0370609)
(0.134631 -0.00686835 0.0322836 0.0608604 -0.00342397 0.04803)
(0.17859 -0.0063607 0.0400538 0.0830252 -0.00381345 0.0632285)
(0.239642 -0.00449732 0.0488899 0.114935 -0.00385257 0.0845297)
(0.326317 -0.000911767 0.0577461 0.162951 -0.0033363 0.115228)
(0.45173 0.00499716 0.0637072 0.239199 -0.00177084 0.160993)
(0.640267 0.0145396 0.0613618 0.36938 0.00283424 0.233821)
(0.929018 0.0327342 0.0393768 0.602912 0.0174155 0.358421)
(1.35748 0.0643379 -0.0343018 1.00723 0.0513911 0.577933)
(1.90314 0.140507 -0.213412 1.53746 0.0814486 0.907418)
(2.9654 0.366478 -0.727228 2.12685 -0.0914878 1.48514)
(6.18269 0.84937 -2.22331 3.26652 -0.588434 3.11052)
(10.8698 0.605529 -3.68342 4.48321 -0.467241 4.62695)
(12.2123 -0.15735 -3.34042 4.63325 -0.0366458 4.27612)
(8.84108 -0.00573687 -2.41506 3.63799 -0.027534 3.03512)
(5.97665 0.516702 -1.81156 2.69217 -0.263545 2.29827)
(5.84132 0.682006 -1.41501 2.3555 -0.407166 2.1195)
(0.811186 0.103884 -0.107262 0.352229 -0.0894774 0.428586)
(0.424837 -0.0692113 -0.0975614 0.202675 0.0135607 0.258282)
(0.0862399 -0.00660935 0.0113662 0.0265111 -0.00128428 0.0260164)
(0.0759102 -0.00994589 0.0153758 0.0321622 -0.00292153 0.0281403)
(0.0805295 -0.00762671 0.0203509 0.0362785 -0.00346014 0.0333312)
(0.0709996 -0.00587915 0.0192444 0.0331227 -0.00298296 0.0308872)
(0.0665425 -0.0049092 0.018126 0.0313008 -0.0027569 0.0294243)
(0.0632427 -0.0042956 0.0172514 0.0299189 -0.00250657 0.0283141)
(0.0634477 -0.00396285 0.0172063 0.0300504 -0.00240406 0.0284697)
(0.0632975 -0.00368787 0.0170927 0.0300351 -0.00232326 0.0285396)
(0.0643987 -0.00346664 0.0172735 0.0305739 -0.00226206 0.0290697)
(0.0646039 -0.00318575 0.0171473 0.030703 -0.00215867 0.0293042)
(0.0647939 -0.00296738 0.0168211 0.030881 -0.00202664 0.0295755)
(0.0643815 -0.00279753 0.0160024 0.0309302 -0.0018331 0.0297746)
(0.0646433 -0.00286529 0.0148255 0.0314617 -0.00162651 0.0304329)
(0.0661844 -0.00329448 0.0131707 0.0328756 -0.00141497 0.0318716)
(0.0709701 -0.00435809 0.0111415 0.0360916 -0.00124444 0.0349644)
(0.080526 -0.00627435 0.00862736 0.0418477 -0.0011715 0.040399)
(0.0971435 -0.00929702 0.00549154 0.0511441 -0.00125325 0.0492477)
(0.122543 -0.013789 0.00097295 0.0647903 -0.00153822 0.0623619)
(0.159941 -0.0203231 -0.00587774 0.0842719 -0.00209371 0.0812867)
(0.212984 -0.0296313 -0.0163434 0.111309 -0.00289795 0.107686)
(0.28595 -0.0424992 -0.0318667 0.147842 -0.00376836 0.143543)
(0.382289 -0.0594285 -0.0532137 0.195174 -0.00434254 0.190145)
(0.502723 -0.0803944 -0.0804472 0.253175 -0.00411751 0.247539)
(0.643514 -0.104987 -0.1126 0.320073 -0.00218589 0.314058)
(0.795791 -0.132992 -0.148396 0.392304 0.00268513 0.386161)
(0.945129 -0.16458 -0.186053 0.462751 0.0109523 0.45676)
(1.08631 -0.200815 -0.225065 0.523887 0.0201994 0.517993)
(1.00189 -0.19857 -0.217937 0.479599 0.0248861 0.471389)
(0.638342 -0.136379 -0.148232 0.310437 0.0202052 0.302037)
(0.277451 -0.062824 -0.0698273 0.13859 0.00922455 0.135675)
(0.0995195 -0.0218888 -0.0258875 0.0498034 0.00233594 0.0511194)
(0.0428981 -0.00847517 -0.0103992 0.0210067 0.000452341 0.0226625)
(0.0246484 -0.00437471 -0.00520599 0.011901 1.93046e-05 0.013071)
(0.0169898 -0.00275094 -0.00294385 0.00815337 -0.000131119 0.00893004)
(0.0128564 -0.00188864 -0.00158957 0.00614702 -0.000225317 0.00663926)
(0.0104987 -0.00135116 -0.000616401 0.00499837 -0.000313709 0.00527529)
(0.00974559 -0.00107956 2.07551e-05 0.00462555 -0.000399659 0.00472978)
(0.0105057 -0.00103301 0.000412412 0.00499016 -0.000495963 0.00491714)
(0.0128226 -0.00117143 0.000687561 0.0061243 -0.000622524 0.00581207)
(0.0170252 -0.00147669 0.000969275 0.00820664 -0.000802895 0.00751906)
(0.0235831 -0.00194249 0.00126955 0.0115281 -0.00105931 0.0102292)
(0.0335447 -0.00260234 0.00156697 0.016682 -0.00142742 0.0143911)
(0.0485382 -0.00351671 0.00164155 0.024561 -0.00196985 0.0207527)
(0.0711749 -0.00478753 0.000973834 0.0365715 -0.00277834 0.0305624)
(0.106162 -0.0067847 -0.0014848 0.0554592 -0.00396028 0.046106)
(0.161963 -0.0103854 -0.00753242 0.0865693 -0.00586144 0.0713332)
(0.252836 -0.0172256 -0.020478 0.139997 -0.00923614 0.113135)
(0.400042 -0.0298947 -0.0456092 0.234187 -0.0150043 0.182651)
(0.628699 -0.0511679 -0.0908084 0.400239 -0.023424 0.296205)
(0.961737 -0.0825922 -0.170117 0.679702 -0.0367378 0.476417)
(1.48605 -0.13082 -0.329548 1.14148 -0.0824282 0.782565)
(2.23859 -0.0218494 -0.61789 1.76121 -0.317839 1.24996)
(3.08628 0.270877 -0.950776 2.43631 -0.830336 1.99955)
(3.76927 0.45764 -1.20553 2.60093 -0.981222 2.47515)
(4.48519 0.467478 -1.50978 2.45554 -0.829455 2.75709)
(4.94145 0.170604 -1.50566 2.55322 -0.456031 2.52866)
(2.87592 0.10031 -0.905296 1.7843 -0.322144 1.64927)
(4.0601 0.194911 -0.79104 1.69911 -0.28668 1.64713)
(1.119 0.127942 -0.0725424 0.449555 -0.0854494 0.46919)
(0.401548 -0.0650538 -0.0682581 0.189388 0.0191794 0.218631)
(0.0472219 -0.00290009 0.0028265 0.0128088 -0.000993329 0.013)
(0.0264349 -0.00352387 0.00491266 0.0111705 -0.00111673 0.00989853)
(0.0232298 -0.00210966 0.00537874 0.0106165 -0.00102941 0.00982143)
(0.0184548 -0.00149424 0.00442586 0.00890578 -0.00079576 0.00832564)
(0.0165681 -0.00120761 0.0037775 0.00817825 -0.000719865 0.00770902)
(0.0156529 -0.00111538 0.00324322 0.00792772 -0.000646251 0.00753522)
(0.0163674 -0.0011953 0.00293324 0.00849143 -0.000660752 0.00813475)
(0.0178125 -0.00143859 0.00250933 0.00949577 -0.000695291 0.00917405)
(0.0209741 -0.00193961 0.00199082 0.0114758 -0.000780611 0.0111818)
(0.0261639 -0.0028537 0.00104139 0.0147072 -0.000910667 0.0144445)
(0.0354125 -0.00454391 -0.000580009 0.0203553 -0.00110391 0.0201251)
(0.0515886 -0.00765547 -0.00351833 0.0300989 -0.00137131 0.0299541)
(0.0802393 -0.0133698 -0.00876477 0.0470774 -0.00173423 0.0470406)
(0.129753 -0.0237022 -0.018062 0.0760487 -0.00213519 0.0759483)
(0.212105 -0.0417063 -0.0339255 0.123474 -0.00253211 0.122725)
(0.340591 -0.0708725 -0.0591555 0.195882 -0.00311039 0.193393)
(0.531634 -0.11473 -0.096998 0.299701 -0.00482818 0.295088)
(0.808123 -0.177787 -0.15205 0.443832 -0.00909327 0.437901)
(1.20252 -0.26599 -0.230823 0.640752 -0.0178112 0.636029)
(1.7514 -0.385455 -0.341195 0.90416 -0.0319407 0.904109)
(2.49067 -0.541804 -0.492201 1.24628 -0.0507199 1.25503)
(3.43618 -0.736288 -0.688641 1.66854 -0.0711588 1.68807)
(4.55779 -0.958547 -0.922295 2.14939 -0.0892421 2.17675)
(5.7661 -1.18629 -1.17112 2.64503 -0.0989898 2.6721)
(6.86676 -1.38542 -1.39521 3.08265 -0.086857 3.09164)
(7.52581 -1.50792 -1.53771 3.34456 -0.0400177 3.31613)
(7.50549 -1.52164 -1.55623 3.32785 0.0253349 3.25714)
(6.41891 -1.34357 -1.36346 2.86543 0.0747182 2.75629)
(4.26587 -0.941216 -0.95583 1.9624 0.0883014 1.84535)
(2.15111 -0.504376 -0.529542 1.03561 0.0585688 0.968249)
(0.937002 -0.219709 -0.254647 0.458284 0.0223629 0.449415)
(0.47617 -0.103744 -0.135904 0.22799 0.00760895 0.239467)
(0.305953 -0.0624456 -0.088427 0.144412 0.00349148 0.157097)
(0.222587 -0.0439951 -0.0640741 0.104814 0.00204487 0.114844)
(0.164959 -0.0323639 -0.0468173 0.077935 0.00125525 0.0849137)
(0.114623 -0.0225025 -0.0318398 0.0544186 0.000590837 0.0588956)
(0.075643 -0.0147641 -0.0204257 0.0360518 0.000108096 0.0390416)
(0.0487338 -0.00929427 -0.0125754 0.0233136 -0.000234895 0.0255313)
(0.033019 -0.00601052 -0.00787945 0.0159195 -0.000518651 0.0177791)
(0.0257986 -0.00439556 -0.00545662 0.0126425 -0.000819466 0.0143531)
(0.024073 -0.00382497 -0.00435511 0.012091 -0.00122135 0.0137204)
(0.0268739 -0.00409039 -0.00419091 0.0138712 -0.00180006 0.0154586)
(0.0327266 -0.00479172 -0.00448616 0.0174156 -0.00268991 0.0189798)
(0.0437643 -0.00623407 -0.00581675 0.0238434 -0.00398037 0.0255933)
(0.0633855 -0.00897618 -0.00921883 0.0351042 -0.00576859 0.0374524)
(0.0963399 -0.0137163 -0.0160286 0.0543263 -0.00847969 0.057415)
(0.152164 -0.0218889 -0.0289184 0.0879483 -0.0129815 0.0910364)
(0.247703 -0.0365153 -0.0522398 0.147843 -0.0204172 0.147846)
(0.40084 -0.0634751 -0.0899512 0.252647 -0.03254 0.239448)
(0.610202 -0.104812 -0.14241 0.419668 -0.0526059 0.372242)
(0.864521 -0.15549 -0.207364 0.665495 -0.0947463 0.552508)
(1.3759 -0.177702 -0.338506 1.15985 -0.278015 0.921203)
(1.55984 -0.155436 -0.314408 1.33367 -0.445882 1.0272)
(1.64227 -0.00361593 -0.31862 1.24957 -0.475139 1.0357)
(1.91736 0.135328 -0.403095 1.20864 -0.4961 1.17398)
(2.43068 0.0813258 -0.428827 1.31841 -0.392293 1.25554)
(1.20279 -0.0241966 -0.165227 0.830066 -0.147614 0.681167)
(1.73832 -0.0402403 -0.0829933 0.775313 -0.104423 0.700481)
(0.836231 0.0637531 -0.00988469 0.337104 -0.04854 0.341836)
(0.39143 -0.062449 -0.0501568 0.181074 0.0211263 0.189359)
(0.0306943 -0.00164754 -0.000354363 0.00782672 -0.00056739 0.00854959)
(0.0102845 -0.00133129 0.00150038 0.00459399 -0.000477329 0.00428781)
(0.00852153 -0.000876439 0.00114439 0.00443701 -0.000411802 0.00424373)
(0.00822905 -0.000952599 0.000522766 0.00479385 -0.000376483 0.00466331)
(0.0103716 -0.00133796 -6.41801e-05 0.00633097 -0.000466129 0.00625225)
(0.0149563 -0.00220819 -0.0009091 0.00933517 -0.000615367 0.00932959)
(0.0235262 -0.00384633 -0.00229934 0.0147097 -0.000895284 0.0148137)
(0.0388257 -0.00695851 -0.00483975 0.0240459 -0.00133014 0.0243146)
(0.0661133 -0.0127688 -0.00951396 0.0402937 -0.00201113 0.0409084)
(0.114733 -0.023604 -0.0181918 0.0685791 -0.00302702 0.0698491)
(0.200796 -0.0436588 -0.0341101 0.117726 -0.00428481 0.120224)
(0.349283 -0.0799333 -0.062828 0.201461 -0.00537766 0.206142)
(0.592374 -0.142148 -0.112368 0.337344 -0.00520006 0.345334)
(0.966609 -0.242818 -0.19238 0.546006 -0.00204851 0.556262)
(1.49983 -0.393188 -0.310034 0.843822 0.00541963 0.849049)
(2.18377 -0.592128 -0.462177 1.2245 0.0146667 1.21416)
(3.00911 -0.83117 -0.644401 1.67015 0.0182908 1.64533)
(4.02599 -1.11518 -0.866139 2.19161 0.00973259 2.16892)
(5.32773 -1.45938 -1.14488 2.81868 -0.0203909 2.83472)
(7.04782 -1.89169 -1.51114 3.60648 -0.0748694 3.70589)
(9.30248 -2.43979 -1.99424 4.60363 -0.148168 4.83222)
(12.191 -3.11929 -2.61336 5.84034 -0.234779 6.23072)
(15.7404 -3.91525 -3.35411 7.28806 -0.33434 7.84288)
(19.8873 -4.77666 -4.1689 8.86519 -0.445519 9.55029)
(24.3651 -5.62654 -4.97343 10.4511 -0.530382 11.1604)
(27.9514 -6.24988 -5.54778 11.636 -0.501409 12.1832)
(28.0934 -6.19453 -5.48496 11.5431 -0.324961 11.7562)
(24.3943 -5.40626 -4.7841 10.1007 -0.0951367 9.9195)
(17.7408 -4.04883 -3.62105 7.63014 0.0987907 7.14008)
(10.5814 -2.55271 -2.36728 4.84624 0.159736 4.37709)
(5.71303 -1.40992 -1.44324 2.71765 0.103547 2.52399)
(3.54599 -0.824597 -0.971801 1.65464 0.0508553 1.66123)
(2.66379 -0.579349 -0.758025 1.21742 0.0313128 1.28649)
(2.20816 -0.464021 -0.637067 1.00424 0.0241851 1.0783)
(1.88452 -0.393117 -0.542413 0.860265 0.0203323 0.919158)
(1.55774 -0.327353 -0.44293 0.715854 0.0161396 0.755557)
(1.25941 -0.267014 -0.352902 0.581261 0.012452 0.607995)
(0.995001 -0.212031 -0.274361 0.459216 0.00987236 0.479205)
(0.788756 -0.168678 -0.21352 0.362629 0.00831255 0.380528)
(0.658412 -0.141884 -0.174628 0.301236 0.00812834 0.320064)
(0.538208 -0.117848 -0.140053 0.245608 0.00834958 0.265044)
(0.406569 -0.0911655 -0.104189 0.185981 0.00780325 0.20366)
(0.273117 -0.0628767 -0.0690882 0.126019 0.00568895 0.139778)
(0.16371 -0.0377405 -0.0411915 0.0763935 0.00213235 0.0878201)
(0.142802 -0.0326494 -0.0357791 0.0676559 0.000173822 0.0807201)
(0.145234 -0.0326904 -0.036302 0.0706513 -0.00190539 0.0875141)
(0.145506 -0.0310486 -0.0361655 0.073905 -0.00595198 0.0961427)
(0.15672 -0.0309176 -0.0381813 0.0854714 -0.0127291 0.114032)
(0.225877 -0.0459112 -0.0549245 0.131045 -0.021346 0.168533)
(0.331491 -0.0707888 -0.0789863 0.207688 -0.0357951 0.251075)
(0.457707 -0.103943 -0.10288 0.312105 -0.0569969 0.353528)
(0.646708 -0.136779 -0.113593 0.469291 -0.113245 0.509196)
(0.606444 -0.127754 -0.0663059 0.419369 -0.129209 0.518715)
(0.709624 -0.085306 -0.0700482 0.460447 -0.169254 0.568027)
(1.06295 0.0335652 -0.153484 0.63778 -0.274018 0.71935)
(1.87 0.0554104 -0.217232 0.919733 -0.301002 0.942954)
(0.968843 -0.0724978 -0.0403812 0.577183 -0.0723921 0.506164)
(0.805528 -0.0660961 0.134687 0.430662 -0.0104343 0.451108)
(0.487826 -0.0170386 0.00898647 0.24185 0.0112237 0.264308)
(0.392847 -0.0568981 -0.03822 0.179733 0.0195447 0.17366)
(0.0284509 -0.00176807 -0.001712 0.00772129 -0.00148147 0.00932626)
(0.0100739 -0.00156143 -0.000160322 0.00568986 -0.00046461 0.0057093)
(0.0148311 -0.00245396 -0.00126055 0.00945119 -0.000544835 0.00935557)
(0.0250008 -0.00463904 -0.00318008 0.0163154 -0.000769696 0.0162135)
(0.0434113 -0.0085077 -0.0066076 0.0278088 -0.00123598 0.0280128)
(0.0771066 -0.0160782 -0.0129769 0.0483862 -0.00188678 0.0492112)
(0.135483 -0.0299813 -0.0245583 0.0832793 -0.00278009 0.0851431)
(0.238094 -0.0558179 -0.0453391 0.142954 -0.00385229 0.146533)
(0.414056 -0.102196 -0.0815307 0.242607 -0.00524964 0.248907)
(0.709649 -0.182827 -0.14281 0.404991 -0.00679454 0.415664)
(1.19016 -0.318312 -0.242843 0.663102 -0.00712344 0.679363)
(1.93523 -0.536445 -0.400447 1.0572 -0.00179202 1.08046)
(3.00887 -0.861997 -0.635835 1.62079 0.0161882 1.6533)
(4.41839 -1.30628 -0.955814 2.3634 0.0532473 2.3919)
(6.07857 -1.85244 -1.33756 3.25647 0.108999 3.22993)
(7.73698 -2.426 -1.71463 4.18539 0.170583 4.02606)
(9.21842 -2.95137 -2.05203 5.04266 0.22263 4.73273)
(10.6689 -3.43539 -2.38667 5.84651 0.251356 5.46328)
(12.328 -3.917 -2.77205 6.66122 0.229319 6.3684)
(14.5333 -4.48347 -3.28226 7.61961 0.141619 7.61277)
(17.5456 -5.22599 -3.97583 8.87655 0.0244515 9.29336)
(21.3242 -6.15372 -4.82552 10.4502 -0.104971 11.3675)
(26.0035 -7.26636 -5.8019 12.3486 -0.284734 13.7991)
(31.463 -8.45169 -6.79209 14.3647 -0.540854 16.2919)
(37.8466 -9.68692 -7.78879 16.4968 -0.837934 18.7082)
(44.81 -10.9062 -8.72661 18.6352 -1.04298 20.7565)
(48.781 -11.4065 -9.04058 19.5147 -1.02942 21.1729)
(46.7025 -10.7428 -8.3618 18.3411 -0.790444 19.276)
(39.891 -9.35945 -7.1003 15.999 -0.436836 15.8732)
(29.3663 -7.23692 -5.55555 12.6304 -0.108031 11.5831)
(19.3895 -5.02242 -4.16436 8.94623 0.0646895 7.95536)
(13.7648 -3.49786 -3.31332 6.36139 0.084474 6.00038)
(11.0898 -2.66102 -2.86333 5.00689 0.0761127 5.05629)
(9.62527 -2.22682 -2.58957 4.31358 0.0719821 4.51122)
(8.74551 -1.99934 -2.39321 3.93619 0.0686755 4.13829)
(8.05625 -1.85442 -2.19761 3.66163 0.0629364 3.79304)
(7.48931 -1.74612 -2.01634 3.43443 0.0573166 3.48608)
(6.89687 -1.62289 -1.82425 3.17631 0.0549877 3.16575)
(6.30234 -1.49388 -1.63049 2.89933 0.0546946 2.84576)
(5.94265 -1.41559 -1.49893 2.71543 0.0592816 2.64418)
(5.61464 -1.35078 -1.38387 2.54665 0.0705656 2.4769)
(5.1674 -1.26496 -1.25593 2.33634 0.0837572 2.28301)
(4.50305 -1.13651 -1.08489 2.04974 0.0970658 2.00866)
(3.57601 -0.937075 -0.863152 1.65038 0.0989483 1.63165)
(2.96671 -0.804908 -0.722919 1.37954 0.0982128 1.389)
(2.53049 -0.704239 -0.628064 1.18457 0.0983216 1.22297)
(2.10673 -0.595316 -0.539959 0.988089 0.0951053 1.06233)
(1.53728 -0.442589 -0.414571 0.726828 0.0851369 0.824666)
(0.971039 -0.283738 -0.28131 0.47196 0.0628614 0.570125)
(0.565169 -0.159509 -0.174974 0.289302 0.0303972 0.380758)
(0.460338 -0.12239 -0.143137 0.24949 0.0102101 0.35131)
(0.493511 -0.124322 -0.137752 0.277113 -0.00394641 0.391375)
(0.629552 -0.162981 -0.175715 0.337541 0.00874846 0.447434)
(0.741307 -0.138026 -0.186534 0.352387 -0.029368 0.484019)
(1.03757 -0.0374379 -0.252137 0.468715 -0.132808 0.603993)
(1.95855 0.0558616 -0.272642 0.864228 -0.278058 0.849496)
(1.3647 -0.129219 -0.0937054 0.612251 -0.0971012 0.569292)
(0.547408 -0.0526983 0.0549302 0.331891 0.0360433 0.408729)
(0.4179 -0.0452745 -0.0276365 0.233096 0.0379224 0.233892)
(0.401265 -0.050254 -0.0332682 0.181274 0.014252 0.165509)
(0.0470091 -0.00593088 -0.00581909 0.0170899 -0.00149885 0.0204101)
(0.0390096 -0.00645414 -0.00488316 0.0234099 -0.00108772 0.0246398)
(0.0755818 -0.0161628 -0.0131931 0.0477365 -0.00182421 0.0480614)
(0.140331 -0.0328348 -0.0279004 0.0884432 -0.00241079 0.0889364)
(0.243003 -0.0599355 -0.0522051 0.149118 -0.00303944 0.149661)
(0.418503 -0.107769 -0.093753 0.250139 -0.00256103 0.251689)
(0.692279 -0.185807 -0.159616 0.40573 -0.000292947 0.406447)
(1.12392 -0.312854 -0.262229 0.644596 0.00487472 0.643439)
(1.77945 -0.511094 -0.414674 0.999137 0.011614 0.994048)
(2.76826 -0.814083 -0.638019 1.51621 0.0210507 1.50825)
(4.17788 -1.2515 -0.944035 2.22841 0.0351174 2.22525)
(6.14453 -1.87529 -1.36035 3.20315 0.065525 3.21631)
(8.71256 -2.70743 -1.91142 4.46394 0.129761 4.52709)
(11.6996 -3.70426 -2.56576 5.93945 0.227066 6.04616)
(14.6075 -4.71012 -3.19957 7.41421 0.313868 7.46489)
(17.0409 -5.59742 -3.69225 8.72129 0.362153 8.51589)
(19.0248 -6.3624 -4.06878 9.8773 0.40342 9.25812)
(20.5805 -6.97772 -4.39131 10.8728 0.456669 9.90591)
(21.6015 -7.35067 -4.70461 11.5939 0.498959 10.5128)
(23.0018 -7.7092 -5.21182 12.3142 0.526171 11.4739)
(25.4565 -8.26889 -5.96948 13.2754 0.546711 12.9629)
(28.5049 -8.96782 -6.7583 14.3418 0.535394 14.6959)
(31.5909 -9.69993 -7.34425 15.4004 0.435678 16.3677)
(34.4571 -10.3144 -7.63392 16.2721 0.190161 17.7929)
(37.6856 -10.8242 -7.78629 17.1455 -0.236144 19.1523)
(42.0826 -11.3469 -7.99412 18.3181 -0.738734 20.5247)
(46.9095 -11.6921 -8.23339 19.3845 -1.12375 21.4611)
(48.9834 -11.4929 -8.12857 19.4084 -1.2237 21.1016)
(46.7658 -10.968 -7.62623 18.4378 -1.05053 19.4079)
(40.6478 -10.1135 -6.7805 16.8224 -0.796585 16.6556)
(33.1682 -8.76651 -5.90126 14.7781 -0.564875 13.6802)
(26.9322 -7.28069 -5.23853 12.3773 -0.280601 11.3074)
(22.7301 -6.00292 -4.82356 10.3167 -0.0608408 9.77444)
(19.696 -5.07795 -4.48189 8.86134 0.0565288 8.75176)
(17.4442 -4.46656 -4.1828 7.8874 0.104008 8.01403)
(15.9094 -4.09974 -3.93937 7.28691 0.109955 7.4686)
(15.0473 -3.93442 -3.74746 6.99838 0.0934487 7.10254)
(14.6472 -3.89117 -3.58992 6.90407 0.0731561 6.85112)
(14.374 -3.89337 -3.41873 6.84998 0.0575923 6.59892)
(14.3169 -3.93583 -3.28077 6.84808 0.0456864 6.41612)
(14.5472 -4.0298 -3.19874 6.92322 0.0463972 6.34429)
(14.6674 -4.0755 -3.11527 6.91903 0.060252 6.23629)
(14.844 -4.11988 -3.0542 6.92674 0.0813148 6.18267)
(14.123 -4.01046 -2.847 6.60396 0.129207 5.83578)
(12.4287 -3.7033 -2.47648 5.89031 0.174867 5.14719)
(10.5791 -3.29611 -2.09148 5.1076 0.205631 4.42771)
(8.86999 -2.83621 -1.75425 4.33002 0.232445 3.76522)
(7.13009 -2.32576 -1.45838 3.50078 0.260423 3.12035)
(5.29848 -1.77888 -1.16162 2.66097 0.274803 2.44128)
(3.66872 -1.28084 -0.858455 1.92182 0.256709 1.80622)
(2.60846 -0.945485 -0.631107 1.42882 0.216294 1.37234)
(1.94042 -0.707037 -0.470011 1.08658 0.166667 1.06052)
(1.65113 -0.567941 -0.395929 0.914679 0.11842 0.873026)
(1.47545 -0.397921 -0.386394 0.762546 0.0487338 0.797889)
(1.62804 -0.19479 -0.511708 0.751164 -0.0694587 0.895663)
(2.3948 0.0346234 -0.551561 0.988645 -0.293032 1.06807)
(1.9348 -0.132367 -0.28451 0.750352 -0.19397 0.767127)
(0.905462 -0.13148 -0.164505 0.410472 0.00321077 0.426588)
(0.606876 -0.0609756 -0.0570809 0.270388 0.021142 0.244396)
(0.435861 -0.0486527 -0.0341598 0.184529 0.00690816 0.166024)
(0.112485 -0.0201334 -0.0129258 0.0578205 -0.0200224 0.063723)
(0.164106 -0.043315 -0.0237943 0.0979862 -0.00687086 0.100273)
(0.349244 -0.108754 -0.0684663 0.213503 0.00662216 0.202348)
(0.67071 -0.212658 -0.142684 0.401536 0.0155608 0.383868)
(1.08349 -0.354861 -0.24568 0.640868 0.0369303 0.600531)
(1.73575 -0.572972 -0.4029 1.00165 0.0631695 0.937879)
(2.53636 -0.846381 -0.60457 1.44844 0.0984112 1.34887)
(3.5605 -1.19834 -0.860306 2.01847 0.140489 1.86836)
(4.77052 -1.61844 -1.15821 2.69528 0.189357 2.48784)
(6.55926 -2.22155 -1.56677 3.65556 0.248565 3.37968)
(8.63187 -2.89258 -2.00192 4.67887 0.292867 4.36305)
(10.9973 -3.64202 -2.45662 5.76831 0.310653 5.43331)
(13.4997 -4.42673 -2.92502 6.87111 0.308786 6.57752)
(15.5702 -5.09925 -3.31258 7.81116 0.300223 7.61036)
(17.0531 -5.64769 -3.59061 8.60814 0.297718 8.54452)
(18.349 -6.19841 -3.81436 9.44327 0.307663 9.45428)
(20.0219 -6.83076 -4.12019 10.4613 0.319846 10.3429)
(21.8428 -7.45161 -4.51403 11.5183 0.32488 11.1171)
(23.2761 -7.97608 -4.9613 12.4389 0.356909 11.7765)
(24.3487 -8.41087 -5.44204 13.2048 0.460774 12.4102)
(25.4975 -8.81245 -5.86243 13.827 0.616951 13.0236)
(26.8426 -9.19974 -6.06445 14.2689 0.766329 13.547)
(28.0687 -9.48904 -5.96593 14.4989 0.828283 13.9001)
(29.1215 -9.64863 -5.66886 14.5776 0.759579 14.2025)
(29.9982 -9.62441 -5.27374 14.5086 0.531072 14.5421)
(31.3248 -9.53225 -4.93544 14.5496 0.14602 15.1189)
(33.7907 -9.48127 -4.86523 14.9027 -0.328447 15.9449)
(36.5568 -9.34869 -5.09165 15.3158 -0.793208 16.5865)
(37.5922 -9.14023 -5.45117 15.4504 -1.12879 16.6452)
(35.9239 -8.93648 -5.74655 15.2047 -1.23139 16.0157)
(33.1447 -8.69999 -5.77589 14.7202 -1.09835 14.9039)
(31.3424 -8.47625 -5.66316 14.2288 -0.814006 13.7935)
(30.0791 -8.10546 -5.52196 13.5439 -0.521007 12.7784)
(28.1213 -7.48428 -5.2977 12.5134 -0.312877 11.7318)
(25.274 -6.74408 -4.95412 11.2579 -0.175725 10.6755)
(22.3341 -6.06581 -4.59112 10.1083 -0.082682 9.81202)
(20.1063 -5.59851 -4.3073 9.31112 -0.00341912 9.20788)
(18.7939 -5.37042 -4.1143 8.88416 0.077157 8.78044)
(18.0129 -5.29454 -3.93465 8.67442 0.139167 8.40008)
(17.6002 -5.3155 -3.75628 8.61358 0.161076 8.11103)
(17.6799 -5.43975 -3.65039 8.72432 0.163508 8.01747)
(18.007 -5.6314 -3.61668 8.92403 0.186755 8.02025)
(18.4438 -5.82948 -3.60625 9.15074 0.204686 8.03936)
(18.9098 -5.98913 -3.56856 9.3529 0.192595 7.99866)
(18.8169 -5.99979 -3.35299 9.30261 0.165118 7.70181)
(17.7034 -5.74553 -2.9459 8.79914 0.150346 7.04221)
(15.5246 -5.19588 -2.41435 7.8292 0.162599 6.03824)
(12.7227 -4.42407 -1.89929 6.56536 0.184701 4.89721)
(9.81362 -3.56952 -1.44737 5.236 0.209758 3.79424)
(7.28454 -2.78916 -1.07674 4.07417 0.229342 2.86642)
(5.35359 -2.16381 -0.770884 3.17399 0.22596 2.13803)
(3.9693 -1.66729 -0.55429 2.47601 0.208331 1.61508)
(2.92062 -1.2366 -0.415784 1.88193 0.158286 1.21846)
(2.26453 -0.913562 -0.407787 1.46262 0.11594 1.01933)
(2.00641 -0.64091 -0.521786 1.18935 0.0438124 1.00059)
(2.51419 -0.293465 -0.742791 1.15338 -0.132105 1.24467)
(2.4864 -0.105135 -0.548819 0.941963 -0.192852 1.01257)
(1.50164 -0.129944 -0.257259 0.539568 -0.0619246 0.554165)
(0.856804 -0.0730258 -0.0827293 0.316112 -0.00627104 0.29054)
(0.465797 -0.0429576 -0.0299888 0.185229 -3.54108e-05 0.169192)
(0.23922 -0.067788 -0.0351479 0.128701 -0.0156173 0.105846)
(0.745219 -0.127905 -0.110432 0.311491 -0.0345291 0.323198)
(1.82564 -0.587847 -0.347838 0.876653 0.0094418 0.863853)
(3.10726 -1.05359 -0.5954 1.5486 0.021397 1.49631)
(4.10222 -1.36422 -0.903735 2.05116 0.0625464 2.02576)
(5.96782 -1.97408 -1.34883 3.00064 0.0998873 2.94128)
(7.22101 -2.35631 -1.70586 3.64245 0.14299 3.5721)
(8.40558 -2.70958 -2.04486 4.25244 0.190412 4.13694)
(9.4025 -3.01601 -2.33441 4.77976 0.245206 4.60539)
(10.2364 -3.29778 -2.57025 5.24182 0.299161 4.997)
(11.0614 -3.57411 -2.77373 5.68318 0.335754 5.35491)
(12.0442 -3.85774 -2.94462 6.14328 0.332926 5.70204)
(13.3951 -4.15233 -3.11116 6.67125 0.294108 6.10369)
(14.8778 -4.4274 -3.25409 7.2008 0.240658 6.56471)
(15.7029 -4.59705 -3.34696 7.51149 0.186798 6.98189)
(15.2893 -4.62651 -3.36897 7.50821 0.141029 7.30443)