/*--------------------------------*- C++ -*----------------------------------*\
| =========                 |                                                 |
| \\      /  F ield         | OpenFOAM: The Open Source CFD Toolbox           |
|  \\    /   O peration     | Version:  2.1.1                                 |
|   \\  /    A nd           | Web:      www.OpenFOAM.org                      |
|    \\/     M anipulation  |                                                 |
\*---------------------------------------------------------------------------*/
FoamFile
{
    version     2.0;
    format      ascii;
    class       volScalarField;
    location    "0.0015";
    object      TLS;
}
// * * * * * * * * * * * * * * * * * * * * * * * * * * * * * * * * * * * * * //

dimensions      [0 1 0 0 0 0 0];

internalField   nonuniform List<scalar> 
36520
(
0.000322761
0.000290615
0.000246572
0.000232899
0.00022371
0.000217831
0.000213072
0.000209164
0.00020575
0.000202752
0.000200141
0.000197842
0.000195879
0.000194166
0.00019275
0.000191488
0.000190378
0.000189355
0.000188505
0.000187908
0.00018769
0.000187968
0.000188862
0.00019049
0.000192984
0.000196463
0.000201004
0.000206128
0.000211193
0.000215726
0.000219651
0.000223224
0.000226782
0.000230482
0.000234337
0.000238264
0.000242019
0.000245144
0.000247014
0.000247089
0.00024511
0.000240996
0.000234952
0.000227505
0.000219202
0.000210491
0.000201599
0.000192352
0.000182061
0.000170331
0.000158285
0.000144844
0.000134681
7.1797e-05
2.53045e-05
2.09493e-05
2.15977e-05
2.33347e-05
3.23089e-05
3.61599e-05
0.000504698
0.000285389
0.000269495
0.000261668
0.000255555
0.000250824
0.000246088
0.000241938
0.000237954
0.000234532
0.00023159
0.000229217
0.000227213
0.000225492
0.000223656
0.000221445
0.000218627
0.000215392
0.000212031
0.000208865
0.000206039
0.000203354
0.000200331
0.000196124
0.000189703
0.000180968
0.000171874
0.000171851
0.000187855
0.000225942
0.000263326
0.000281384
0.000291846
0.000300172
0.000307162
0.000312207
0.000315214
0.000315552
0.000312253
0.00030546
0.000296342
0.000285189
0.000272574
0.000258969
0.000244535
0.000229448
0.000214124
0.000199143
0.00018528
0.000173055
0.000162955
0.000151525
0.000135301
0.000123619
0.000121251
0.000123367
0.000105337
5.94031e-05
2.65371e-05
5.38879e-05
0.000593254
0.000302318
0.00028885
0.000282669
0.000277315
0.000272489
0.000267239
0.000262279
0.000257178
0.000252355
0.000247461
0.000242262
0.000236138
0.0002287
0.000219983
0.000210764
0.000201924
0.000193773
0.00018641
0.000179802
0.000173952
0.000168863
0.000164464
0.000160611
0.000157014
0.000153315
0.00014901
0.000146971
0.000150781
0.000162503
0.000180199
0.00019545
0.00020703
0.000217896
0.000232162
0.000255299
0.000284556
0.000306281
0.00031107
0.000304202
0.000292762
0.000279426
0.000264584
0.000248686
0.00023235
0.000216487
0.000201921
0.000189343
0.00017908
0.000170854
0.000163405
0.000153247
0.000129286
0.000141223
0.000142268
0.000138701
0.000132834
8.29614e-05
3.24584e-05
5.52639e-05
0.00069653
0.00031428
0.000301778
0.000293297
0.000283564
0.000272339
0.000260186
0.000247166
0.000234444
0.000222221
0.000211683
0.000203043
0.000196387
0.000191133
0.000186672
0.000182495
0.00017831
0.000173908
0.000169268
0.000164538
0.000159941
0.000155618
0.000151769
0.000148459
0.000145687
0.000143298
0.000140716
0.000140294
0.000144437
0.000154606
0.000169437
0.000180483
0.000186037
0.000188602
0.000189689
0.000190854
0.000192877
0.000197401
0.000205944
0.000218258
0.000231684
0.000238937
0.000242181
0.000237285
0.000225814
0.000212953
0.000200375
0.000188874
0.000179166
0.000171724
0.000165634
0.000153024
0.000137253
0.000152228
0.000163994
0.000158987
0.000140512
7.14845e-05
4.18447e-05
5.63662e-05
0.000777552
0.000295793
0.000271441
0.000248327
0.000232529
0.000221038
0.000212847
0.000206085
0.000200305
0.000195048
0.000190157
0.00018547
0.000180965
0.000176643
0.000172524
0.000168735
0.000165148
0.000161369
0.000157203
0.000152724
0.000148224
0.000143879
0.000139895
0.000136409
0.00013352
0.000131422
0.000130399
0.000131221
0.0001357
0.000145343
0.000159356
0.000170202
0.000175707
0.000178332
0.000179267
0.000179609
0.000179428
0.000179147
0.000178722
0.000177337
0.000175727
0.000174483
0.000174289
0.000178297
0.000180314
0.000181983
0.000187067
0.000192433
0.000185547
0.000178314
0.000172822
0.000167064
0.000165912
0.000170175
0.000173562
0.000168843
0.00015728
0.000131341
4.24605e-05
5.67593e-05
0.000784746
0.000234262
0.000220953
0.000213154
0.000207735
0.000202495
0.000197151
0.000191601
0.000185893
0.000180126
0.000174508
0.000169111
0.000164058
0.000159568
0.000155785
0.000153037
0.000151249
0.000149749
0.000147846
0.000145198
0.000141949
0.000138566
0.000135108
0.000131994
0.000129117
0.000126416
0.000124913
0.000125469
0.000128691
0.000135949
0.000147411
0.000157404
0.000163089
0.000166335
0.000167918
0.000168435
0.000167996
0.000167059
0.000165952
0.000163854
0.000161471
0.000159287
0.000157249
0.000156412
0.000155832
0.000155247
0.000154886
0.000155727
0.000158338
0.00016465
0.000169452
0.000171284
0.000166717
0.000147542
0.00015868
0.000170236
0.000178616
0.000113261
3.27606e-05
5.67056e-05
0.000671935
0.000208978
0.000200507
0.000194321
0.000190104
0.000185464
0.000180439
0.000175102
0.000169527
0.000163824
0.000158383
0.000153236
0.000148501
0.000144521
0.000141695
0.000139908
0.000138935
0.000138607
0.000138785
0.000138434
0.000137117
0.000135591
0.000134396
0.000133678
0.000132729
0.000130593
0.000127101
0.000125258
0.000127179
0.000133259
0.000140334
0.000146637
0.000151608
0.000155215
0.000157902
0.000159748
0.000160234
0.00015917
0.000157342
0.000154955
0.00015237
0.000150122
0.000147383
0.000145187
0.000144748
0.000145139
0.000145834
0.000146819
0.000148304
0.000150201
0.000152502
0.000155639
0.000149013
0.000130646
0.000143122
0.000163213
0.000171387
0.000103278
3.04105e-05
5.60446e-05
0.000520668
0.000189139
0.000177162
0.000169545
0.000166105
0.000162512
0.00015939
0.000156421
0.000153608
0.000150018
0.000146785
0.000144138
0.000142165
0.000141192
0.000140999
0.000140905
0.00013972
0.000138306
0.00013781
0.000137761
0.000137209
0.000135908
0.000134567
0.000133852
0.000134392
0.000135272
0.000134815
0.000131227
0.000129843
0.000134792
0.000142853
0.000145351
0.000145997
0.000147186
0.000148822
0.000151623
0.000154752
0.00015629
0.000154268
0.000144948
0.000143123
0.00014118
0.000143557
0.000141972
0.000137383
0.000133816
0.000133183
0.000133642
0.000134784
0.0001368
0.000138746
0.000141661
0.000151604
0.000155966
0.000159997
0.000158702
0.000159672
0.000106846
3.02405e-05
5.5438e-05
0.000436552
0.000157499
0.000145009
0.000140467
0.000139459
0.000137053
0.00013592
0.000135173
0.00013501
0.000135555
0.000136101
0.000135793
0.000133308
0.000132279
0.000137291
0.000141656
0.00014489
0.000145622
0.00014432
0.000138826
0.000121329
9.25761e-05
6.93182e-05
6.1372e-05
6.26491e-05
7.03604e-05
8.35759e-05
9.32848e-05
0.000100712
0.000109771
0.000119092
0.000127316
0.000136214
0.000144095
0.000145773
0.000145785
0.00014608
0.000146359
0.000146943
0.000147489
0.000147609
0.000146849
0.000145214
0.000142763
0.00013896
0.000134128
0.000129126
0.000124445
0.000120305
0.000119444
0.000121257
0.000127625
0.000147099
0.000152536
0.000148265
0.000122711
0.000109407
5.88069e-05
3.18225e-05
5.64195e-05
0.000469805
0.00016033
0.000145636
0.000140702
0.000142431
0.000142803
0.000143548
0.000143385
0.000142069
0.000140652
0.000139158
0.000136374
0.000129311
0.000119655
0.000121827
0.000143487
0.000155109
0.000159365
0.00016064
0.000158183
0.000143269
0.000103626
6.69904e-05
4.97446e-05
4.74853e-05
5.17362e-05
6.72547e-05
8.58195e-05
9.30543e-05
9.8002e-05
0.000102935
0.000106294
0.000109708
0.000117285
0.000133145
0.000151718
0.000156469
0.000156295
0.000156105
0.000155183
0.000153915
0.00015165
0.000148096
0.000144075
0.000140567
0.000137844
0.000136434
0.000135456
0.000134464
0.000134301
0.00013532
0.000139959
0.000155043
0.00015596
0.000145352
0.000115335
0.00010195
5.4686e-05
3.60307e-05
5.76139e-05
0.000522657
0.000174742
0.000144027
0.000137211
0.000136719
0.000135975
0.000135381
0.00013542
0.000136445
0.000138638
0.000141534
0.000142873
0.000137534
0.000123161
0.000124001
0.000141959
0.000153894
0.000160276
0.000165153
0.000167916
0.000163515
0.000109678
5.81021e-05
4.10516e-05
3.80182e-05
3.9627e-05
4.78675e-05
6.66066e-05
8.47042e-05
0.000100376
0.000118187
0.00012968
0.000132657
0.000135523
0.000142659
0.000150553
0.000151272
0.000150168
0.000150083
0.000151923
0.000154069
0.000155203
0.000155326
0.000154667
0.000153296
0.0001514
0.000149453
0.00014714
0.000144618
0.000141772
0.000140144
0.000140779
0.000144803
0.000148357
0.000153229
0.000146641
0.000121654
5.11545e-05
3.31753e-05
5.56152e-05
0.000482436
0.000173386
0.000158393
0.000149636
0.000144783
0.000139357
0.000136014
0.000135304
0.000135951
0.000136708
0.000137759
0.000138695
0.000138774
0.000138033
0.000139958
0.000145715
0.00015223
0.000157622
0.000161035
0.000163114
0.000165259
0.000167604
0.000168988
0.000145807
6.9207e-05
3.15999e-05
2.86363e-05
2.91354e-05
3.46934e-05
7.03669e-05
0.000159018
0.000162527
0.000158529
0.000152586
0.000150327
0.000149187
0.000145168
0.000138886
0.000141574
0.000152985
0.000155462
0.00015554
0.000154682
0.000144971
0.000125007
0.000123893
0.000123078
0.000135166
0.000144981
0.000142011
0.000142253
0.000146497
0.000146642
0.000143574
0.000147298
0.000163525
0.000165547
8.57577e-05
3.06665e-05
5.27587e-05
0.000474925
0.000167842
0.000156055
0.000149495
0.000146422
0.00014259
0.000140447
0.000139534
0.000139431
0.000139539
0.000139655
0.000139616
0.00013935
0.00013932
0.000140527
0.000142514
0.000139967
0.000130599
0.000121019
0.000122145
0.000137038
0.000161182
0.000168105
0.000168129
0.000128536
5.09825e-05
2.91509e-05
2.71855e-05
2.74909e-05
3.33581e-05
8.07441e-05
0.000156585
0.00015509
0.000153591
0.000152295
0.000151277
0.000148721
0.000139827
0.000139954
0.000143209
0.000153325
0.000152574
0.0001498
0.000148688
0.000144788
0.000124884
0.00012642
0.000137847
0.000139235
0.000134772
0.000136464
0.000143544
0.000147315
0.000139303
0.000145792
0.000166346
0.000170188
7.8487e-05
3.05807e-05
5.25841e-05
0.000502014
0.000160476
0.000138166
0.000129521
0.000131855
0.000134486
0.00013654
0.000137582
0.000138212
0.000138741
0.000138976
0.000137927
0.000134003
0.000122402
9.7727e-05
7.15614e-05
5.23526e-05
4.34732e-05
4.30242e-05
4.99445e-05
8.17482e-05
0.00014347
0.00015897
0.0001627
0.000162504
0.000127473
4.54653e-05
2.7974e-05
2.70106e-05
2.74331e-05
3.48884e-05
9.27624e-05
0.000133332
0.000132854
0.000133778
0.000138046
0.000145174
0.000148864
0.000148853
0.000149899
0.000150681
0.00015074
0.000150955
0.000151606
0.000151426
0.000149302
0.000146171
0.000143847
0.000141615
0.000138187
0.000134462
0.000135224
0.000139569
0.000137272
0.000125897
0.000133929
0.000121822
4.97643e-05
3.32755e-05
5.46435e-05
0.000485719
0.000167317
0.000152392
0.000140267
0.000140312
0.000140767
0.000142046
0.00014313
0.000142808
0.000140396
0.000139399
0.000137378
0.000130956
0.000110825
6.87953e-05
3.73994e-05
2.71896e-05
2.58109e-05
2.65774e-05
3.25476e-05
6.02246e-05
0.000126387
0.000141486
0.000143723
0.000144666
0.000129544
8.89845e-05
4.85152e-05
2.98658e-05
2.74221e-05
2.80898e-05
3.52419e-05
8.84755e-05
0.000148313
0.000147722
0.000145555
0.00014145
0.000140538
0.00014486
0.000153304
0.000156091
0.000157125
0.000157024
0.000154215
0.000148464
0.000141341
0.000139061
0.000140107
0.000143148
0.000145236
0.000146161
0.000147489
0.000147988
0.000143692
0.000128654
0.000128281
0.000132429
5.9876e-05
3.45617e-05
5.49786e-05
0.000458206
0.000163121
0.000151424
0.000144417
0.000140289
0.00013726
0.000134986
0.000133322
0.00013188
0.000130152
0.000126698
0.000115643
8.66401e-05
5.49018e-05
3.86696e-05
3.72565e-05
4.41407e-05
7.73481e-05
0.000124068
0.000128359
0.000132195
0.000135641
0.000136502
0.000135424
0.000131754
0.000117506
8.71617e-05
5.83108e-05
4.25606e-05
3.7585e-05
3.86935e-05
5.01518e-05
9.86296e-05
0.000129059
0.000127214
0.000127607
0.000133531
0.000145153
0.000150805
0.000142743
0.000118133
0.000118066
0.00012457
0.000150421
0.000155224
0.000140554
0.000136353
0.000137218
0.000138836
0.000152099
0.000158496
0.000160266
0.000158365
0.000141395
0.000120093
0.00012273
0.000133531
6.55012e-05
3.49882e-05
5.54155e-05
0.000505581
0.000190765
0.000180191
0.000172103
0.000166276
0.000161105
0.000156219
0.000151534
0.000146438
0.000141209
0.000137181
0.000133854
0.000130722
0.000127511
0.000125024
0.000124565
0.000126766
0.000130312
0.000132969
0.000134697
0.000135488
0.000135668
0.000135769
0.000136118
0.000136867
0.000137734
0.000136433
0.000127156
0.000109547
9.95046e-05
0.000100695
0.000114618
0.000135243
0.000142095
0.000145686
0.000149896
0.000152537
0.000154235
0.000135975
0.000124632
0.000125523
0.000135977
0.000149932
0.00015727
0.000155682
0.000150574
0.000145114
0.00014509
0.000149618
0.000156238
0.000160343
0.000161861
0.000163494
0.000155894
0.000152186
0.000164326
0.000168378
0.000105643
3.40546e-05
5.46802e-05
0.000676009
0.000208094
0.000199853
0.000193809
0.000189258
0.000184529
0.000179333
0.00017381
0.000167975
0.000162212
0.000156796
0.000151787
0.000147446
0.000144199
0.000142527
0.000142785
0.000145774
0.000146752
0.000145148
0.000143375
0.00014159
0.000139794
0.000138386
0.000137331
0.000136245
0.000135248
0.000134652
0.000134579
0.000135515
0.000137558
0.000140009
0.000142461
0.000144744
0.000147171
0.000149758
0.000152064
0.000153406
0.000151129
0.000147876
0.00014808
0.000152606
0.000156675
0.000157546
0.000156652
0.000154836
0.000153485
0.000152308
0.000150967
0.000149354
0.000148672
0.000148372
0.000149177
0.000154863
0.000161132
0.000167461
0.000168503
0.000173996
0.000136337
3.31637e-05
5.47461e-05
0.000766417
0.000245084
0.000227022
0.000218634
0.000213159
0.000208032
0.000202838
0.000197551
0.000192259
0.00018726
0.000182666
0.000178565
0.000174963
0.000171831
0.000168978
0.000167239
0.000170363
0.000169853
0.000167066
0.000164289
0.00016154
0.000158778
0.000156098
0.000153532
0.000151198
0.000149157
0.000147444
0.000146144
0.000145368
0.000145777
0.000147318
0.000149603
0.000152642
0.000156049
0.000158894
0.00016102
0.000162843
0.000164498
0.000166471
0.00016697
0.000166181
0.000163517
0.000160873
0.000158632
0.000156599
0.000155818
0.000155383
0.000154813
0.000155602
0.000156884
0.000153315
0.000144783
0.000146729
0.000158734
0.00017182
0.000167071
0.00017266
0.00016148
3.33762e-05
5.49746e-05
0.000743089
0.000316273
0.000293332
0.000271875
0.000255594
0.000242574
0.000232964
0.000224421
0.000216944
0.000210373
0.000205037
0.000200904
0.000197747
0.000195218
0.000193215
0.000190533
0.000193664
0.000192685
0.000190218
0.000187614
0.00018473
0.000181516
0.000178071
0.00017457
0.000171147
0.000167882
0.000164826
0.000161863
0.000158754
0.000156879
0.000156978
0.000158724
0.000162062
0.000165893
0.000169024
0.000171571
0.000174415
0.000178649
0.000186618
0.00019422
0.000192403
0.000188832
0.000185639
0.000182141
0.000177261
0.000177841
0.000175289
0.000170929
0.000166174
0.000161365
0.000156263
0.000140984
0.000119978
0.000130479
0.000162513
0.000165045
0.000170099
0.000178071
3.83567e-05
5.52635e-05
0.00065999
0.000318017
0.000310017
0.000306996
0.000302271
0.000297107
0.000290586
0.000284161
0.000277177
0.00026972
0.000261042
0.00025068
0.000239549
0.000229582
0.000222518
0.00021798
0.00021727
0.000213666
0.000209395
0.0002053
0.000201395
0.00019762
0.00019389
0.000190161
0.000186376
0.000182503
0.000178469
0.0001742
0.00016947
0.000166356
0.000165492
0.00016684
0.000170443
0.00017554
0.000181844
0.000190581
0.000203304
0.000217877
0.000225071
0.000221309
0.00021417
0.00020687
0.000199732
0.000192731
0.000185788
0.000179057
0.000172509
0.000166099
0.000159899
0.000154646
0.000150551
0.000146485
0.000123843
0.000123518
0.000157067
0.000161872
0.000161514
0.000175316
4.57602e-05
5.56079e-05
0.000576635
0.000303222
0.000293382
0.000290456
0.000287002
0.000284017
0.000279748
0.000276158
0.000272328
0.000269666
0.000267895
0.000267593
0.000267845
0.000267536
0.000264961
0.000260077
0.000254539
0.000248692
0.000243431
0.000238456
0.000232971
0.000226056
0.000217411
0.000207819
0.000198506
0.000190462
0.000183912
0.000179021
0.000175142
0.000173104
0.000173906
0.00017957
0.000194948
0.000222498
0.000248027
0.000257507
0.000254783
0.000247038
0.000238036
0.000229137
0.00022025
0.00021141
0.000202728
0.000194155
0.000185694
0.000177513
0.00016966
0.000162145
0.000155345
0.000149649
0.000145297
0.000142932
0.000142437
0.000132696
0.000141035
0.000141645
0.000142567
0.000125469
3.99495e-05
5.51269e-05
0.000485235
0.000287227
0.000272655
0.000267474
0.000262841
0.000259375
0.000255392
0.000252075
0.000248731
0.000246216
0.000244441
0.000243763
0.000243689
0.000243562
0.000242137
0.0002392
0.000235657
0.000232067
0.000229328
0.000227657
0.00022712
0.000227651
0.000229399
0.000232562
0.000237832
0.000245751
0.000255659
0.000263169
0.000262164
0.000266116
0.00027901
0.00029587
0.000307545
0.000312618
0.000313514
0.000311067
0.000305263
0.000296273
0.000284686
0.000271515
0.000257893
0.000243622
0.000228711
0.000213385
0.000198615
0.000185056
0.000172999
0.00016273
0.000154292
0.000148184
0.000145028
0.000142302
0.000136324
0.00011978
9.12888e-05
8.35231e-05
9.524e-05
6.39111e-05
2.43234e-05
5.29153e-05
0.000307696
0.000280067
0.000246725
0.000235981
0.000228522
0.00022365
0.000219671
0.000216349
0.000213471
0.000210935
0.000208801
0.000207035
0.000205651
0.000204565
0.000203677
0.000202861
0.00020202
0.000201256
0.000200657
0.000200348
0.000200438
0.000200999
0.000202079
0.000203716
0.000205926
0.00020874
0.000212179
0.000216217
0.0002207
0.000225098
0.000229256
0.000233117
0.00023678
0.000240354
0.00024384
0.00024701
0.000249494
0.00025089
0.000251079
0.000250032
0.000247802
0.000244751
0.00024144
0.000238314
0.000235011
0.000230229
0.000221981
0.000212169
0.000202268
0.000191423
0.000177614
0.000159478
0.000143363
0.00013608
0.000133211
9.05573e-05
3.2985e-05
2.51472e-05
3.17681e-05
3.51149e-05
0.0003184
0.000284717
0.000248031
0.00023604
0.000227821
0.000222943
0.000218765
0.000215692
0.000213028
0.000210821
0.000208998
0.000207432
0.000206214
0.000205136
0.000204281
0.00020345
0.000202771
0.000202197
0.000201912
0.000201955
0.000202412
0.000203289
0.000204599
0.000206329
0.000208468
0.000210989
0.000213876
0.000217089
0.000220614
0.000224422
0.000228528
0.000232911
0.000237578
0.000242487
0.000247617
0.000252593
0.000256725
0.000259394
0.000260194
0.000258876
0.000255589
0.000250906
0.000245646
0.000240529
0.000235758
0.000230942
0.000225038
0.000215525
0.000199861
0.000179919
0.000159169
0.000141765
0.00013148
0.000128164
0.000115605
4.10244e-05
2.40592e-05
2.45094e-05
3.0745e-05
3.40389e-05
0.000507112
0.000290267
0.000273923
0.000267356
0.000262561
0.000259455
0.000256341
0.000254562
0.000252682
0.000251865
0.000251187
0.000251287
0.000251321
0.000251481
0.000250296
0.000248508
0.000246119
0.000244514
0.000244094
0.00024527
0.000247956
0.000251776
0.00025661
0.000261885
0.000267515
0.00027345
0.000279269
0.000284463
0.000288605
0.00029163
0.000293422
0.000294895
0.000297195
0.000300685
0.000305479
0.000310402
0.000312263
0.000308095
0.000298543
0.000286398
0.000273265
0.00025973
0.000246122
0.000232711
0.000219724
0.000207421
0.000196224
0.00018647
0.000177778
0.000169264
0.000159609
0.000148508
0.000139219
0.00013037
0.000125655
0.000117407
0.000127358
8.22649e-05
2.5459e-05
5.11223e-05
0.000615569
0.000308572
0.000296093
0.000291723
0.000288457
0.000286191
0.000283817
0.000282972
0.000281888
0.000282567
0.000283145
0.000285119
0.000286691
0.000287507
0.000284673
0.000279125
0.000272128
0.000264754
0.000256941
0.000248085
0.000238434
0.000229504
0.000222332
0.000216879
0.000211459
0.000208532
0.000206947
0.000206591
0.0002074
0.000209408
0.0002116
0.000213098
0.00021554
0.000219631
0.000226155
0.000235734
0.000243868
0.000243414
0.000239257
0.00023356
0.000226542
0.000218322
0.000209384
0.000200499
0.000192051
0.000184338
0.000177558
0.00017203
0.000168124
0.000165629
0.000163001
0.000157828
0.000151725
0.000148416
0.000142982
0.000142934
0.000159117
0.000146273
3.64146e-05
5.37395e-05
0.000710999
0.000326032
0.00031606
0.000313376
0.000310148
0.000306735
0.000301073
0.000293261
0.000281298
0.0002662
0.000251306
0.000238832
0.000230162
0.000224145
0.000219863
0.000216238
0.000213647
0.000210629
0.000207579
0.000204369
0.000200955
0.000197354
0.000193536
0.000190343
0.000188165
0.000186625
0.000185515
0.000184831
0.000184573
0.000184674
0.00018478
0.000184512
0.000183425
0.000182318
0.000181722
0.000182661
0.000186053
0.000189769
0.000193035
0.000195554
0.000195695
0.000193003
0.0001884
0.000182915
0.000177346
0.000172006
0.00016705
0.000162551
0.000158659
0.000155597
0.000153561
0.000151911
0.000148705
0.000138952
0.000140804
0.000149933
0.000164459
0.000166588
3.47999e-05
5.5504e-05
0.00078038
0.000336101
0.000313655
0.00028445
0.000256493
0.000236888
0.000225982
0.000219658
0.000216391
0.000214722
0.000213955
0.000213304
0.000212179
0.000210157
0.000207244
0.000203479
0.000199401
0.00019492
0.000190367
0.00018583
0.000181391
0.000177171
0.000173249
0.00017014
0.000167843
0.000166187
0.00016508
0.000164446
0.000164281
0.000164513
0.000164994
0.000165528
0.000165993
0.000166223
0.000166482
0.000167173
0.000168278
0.000168754
0.000168531
0.000168649
0.000169701
0.000172059
0.000175228
0.00017583
0.000173523
0.000170361
0.000166513
0.000160104
0.000146132
0.000133978
0.000130696
0.000127961
0.000118872
0.000121199
0.000136599
0.000156138
0.000162817
0.000175141
3.17541e-05
5.57873e-05
0.000836778
0.0002488
0.000210204
0.000197073
0.000191817
0.000188991
0.000187726
0.000187549
0.000188223
0.000189438
0.000190891
0.000192235
0.000192928
0.000192395
0.000190468
0.000187237
0.000183316
0.000179135
0.000175053
0.000171024
0.000167044
0.000163215
0.000159642
0.00015657
0.0001542
0.000152452
0.000151206
0.000150345
0.000149844
0.000149652
0.00014971
0.000149921
0.000150268
0.000150707
0.000151181
0.000151953
0.000153017
0.000154192
0.000154538
0.000154527
0.000154147
0.000153432
0.000152916
0.000152249
0.000148729
0.000141309
0.00014208
0.000149617
0.000152069
0.000146338
0.000141205
0.000135552
0.000131492
0.000133858
0.000147165
0.000163957
0.000167691
0.000164204
2.95706e-05
5.53597e-05
0.000809562
0.000188872
0.00018092
0.000176771
0.000173979
0.000171837
0.000169999
0.000168372
0.000167199
0.000166453
0.000166143
0.000166322
0.000166879
0.000167541
0.000168
0.000167459
0.000166428
0.00016469
0.000162566
0.000160251
0.000157662
0.000154858
0.000151984
0.000149309
0.000147109
0.000145593
0.000144543
0.000143859
0.000143463
0.000143259
0.000143153
0.000143121
0.000143185
0.000143362
0.000143516
0.00014361
0.00014338
0.000142896
0.000141847
0.000140218
0.000138371
0.000136318
0.000134747
0.000133573
0.000132552
0.000131012
0.000130788
0.000135164
0.000145325
0.000151526
0.000151727
0.000150273
0.000150486
0.000155849
0.000161531
0.000168577
0.000167769
0.000134486
2.89096e-05
5.52849e-05
0.000618041
0.000179919
0.000170943
0.00016621
0.000162045
0.000158183
0.000154558
0.00015128
0.000148761
0.000146769
0.000145152
0.000143986
0.000143252
0.000143045
0.000143947
0.000145756
0.000147497
0.000148917
0.000149838
0.000150192
0.000149751
0.000148491
0.000146721
0.000144757
0.000142883
0.000141469
0.00014055
0.000140072
0.000139938
0.000139991
0.000140069
0.000140103
0.000140116
0.000140223
0.000140501
0.000140931
0.000141308
0.000141362
0.000140843
0.000139436
0.000137309
0.000134509
0.000131171
0.000127718
0.000124626
0.000122374
0.000120999
0.000121596
0.000124242
0.000128571
0.000131775
0.000134443
0.000136393
0.000138062
0.000150729
0.00016341
0.000164852
0.00011154
2.90911e-05
5.54032e-05
0.000446832
0.000168607
0.000156692
0.000150908
0.000146751
0.000143019
0.000140011
0.000136538
0.00013342
0.000131145
0.000129744
0.000128899
0.00012831
0.00012793
0.000127949
0.000128793
0.000130625
0.000132925
0.000135632
0.000138067
0.000140314
0.000142138
0.000143373
0.000143711
0.000143075
0.000142244
0.000141734
0.000141583
0.000141723
0.000142111
0.000142559
0.000142789
0.000142685
0.000142345
0.000142032
0.000141769
0.000141442
0.00014103
0.000141423
0.000141794
0.000141795
0.000141142
0.000140221
0.000139328
0.00013859
0.000137898
0.00013663
0.000135339
0.000133806
0.000131276
0.000127969
0.000125727
0.000125358
0.000124767
0.000130697
0.000144727
0.00014959
7.87078e-05
2.99717e-05
5.58872e-05
0.000378399
0.00014099
0.000130328
0.000126091
0.000124421
0.000122414
0.000121907
0.000121934
0.000121978
0.000121852
0.000121739
0.000122226
0.000123375
0.000122563
0.000121133
0.000122113
0.000125031
0.000124454
0.000124552
0.000126369
0.000129352
0.000130316
0.000130267
0.000129916
0.000131974
0.00013199
0.000128389
0.000124245
0.000122749
0.000124006
0.000125915
0.000126501
0.000127065
0.000128715
0.000132528
0.000139128
0.000144503
0.00014515
0.000144893
0.000144433
0.000143457
0.000141186
0.000136283
0.000128512
0.000118554
0.000107835
9.90842e-05
9.41699e-05
9.22298e-05
9.20652e-05
9.34565e-05
9.78095e-05
0.000111066
0.000123284
0.000119552
0.000102487
9.03715e-05
4.47514e-05
3.35461e-05
5.76363e-05
0.000428868
0.000162577
0.000132144
0.000129311
0.000129843
0.000128804
0.00012708
0.000124081
0.000117959
0.000104917
8.6035e-05
7.32928e-05
6.89944e-05
6.41198e-05
5.85137e-05
5.9409e-05
6.76061e-05
9.16105e-05
0.000114898
0.000115086
0.000109943
9.19272e-05
7.67007e-05
8.27991e-05
0.000114788
0.000137117
0.000139082
0.000139958
0.000141934
0.00014481
0.000146614
0.000147172
0.000147421
0.000147462
0.000148528
0.000150661
0.000151948
0.000152466
0.000152209
0.000149696
0.000146191
0.000143881
0.000142546
0.000141339
0.000139087
0.000134734
0.000128484
0.000121051
0.000114857
0.000113823
0.000115866
0.00012062
0.000132568
0.000142509
0.000141316
0.000124248
0.000105063
5.23505e-05
3.85296e-05
5.81682e-05
0.000476603
0.000181997
0.000138575
0.000132342
0.000132353
0.000132877
0.000133842
0.00013337
0.000128244
0.000115022
9.54721e-05
7.23692e-05
4.7788e-05
3.34145e-05
3.02749e-05
3.09056e-05
3.28286e-05
3.40702e-05
3.24597e-05
2.74892e-05
2.49902e-05
2.49648e-05
2.63378e-05
4.17052e-05
0.000126814
0.000140028
0.000137954
0.000139065
0.000140204
0.000141171
0.000143729
0.000148147
0.000150599
0.000145602
0.000138588
0.00014014
0.000141615
0.000152589
0.000154496
0.000145175
0.000140063
0.000145484
0.00014778
0.000147785
0.000146129
0.000142557
0.000136491
0.000131063
0.000131241
0.000133856
0.000139897
0.000151828
0.000165567
0.000166491
0.000153609
0.000147385
0.000142733
6.01334e-05
3.90944e-05
5.80227e-05
0.000486769
0.000151885
0.000131762
0.000126017
0.000129661
0.00013251
0.000135436
0.00013828
0.00014015
0.000139089
0.000132126
0.000116961
9.28582e-05
7.77825e-05
7.9163e-05
9.03469e-05
0.000102008
9.50442e-05
6.75711e-05
4.16571e-05
3.10232e-05
2.90426e-05
2.99632e-05
3.99723e-05
6.92413e-05
9.55858e-05
0.000121054
0.000140028
0.000143458
0.000144624
0.000146322
0.000149066
0.000151181
0.00015105
0.000146501
0.000139807
0.000145967
0.000154846
0.000155994
0.000156134
0.000150822
0.000147059
0.000148558
0.000150368
0.000151763
0.000152245
0.000151579
0.000148533
0.000142051
0.00013947
0.000141967
0.000150947
0.000157998
0.00014817
0.000119535
0.000130671
0.000143162
5.95264e-05
3.8434e-05
5.83424e-05
0.0004771
0.000152967
0.000143635
0.000138847
0.00014099
0.000140943
0.000142024
0.000143364
0.000144204
0.000144176
0.000142351
0.00013557
0.000133143
0.000137452
0.000141429
0.000144768
0.000146191
0.000144368
0.000134195
0.000110628
8.01617e-05
5.31569e-05
3.91848e-05
3.67044e-05
3.8711e-05
5.03875e-05
9.34597e-05
0.000147249
0.000154007
0.000155131
0.000155654
0.000155761
0.000155726
0.000155727
0.000155774
0.00015509
0.000153588
0.000151136
0.000150227
0.000151357
0.00015245
0.000152909
0.000152412
0.000152164
0.000151904
0.000151662
0.00015117
0.000150048
0.000148456
0.000146009
0.000145587
0.000148655
0.000151223
0.000143743
0.00013179
0.000133641
0.000131897
6.02929e-05
3.69869e-05
5.80328e-05
0.000432181
0.000163919
0.000156286
0.000150279
0.000151071
0.000149534
0.000149701
0.000149266
0.000148312
0.000147398
0.00014648
0.000145128
0.000143325
0.000142374
0.000143324
0.000146619
0.000150564
0.000152964
0.000152342
0.000146747
0.000126082
8.522e-05
5.5685e-05
4.87613e-05
5.15439e-05
7.10074e-05
0.000125847
0.000152585
0.000154489
0.000155265
0.000155567
0.000155765
0.000155918
0.000155668
0.000153652
0.000149268
0.000143407
0.000140223
0.000143127
0.000151091
0.000154541
0.000152423
0.000147616
0.000146398
0.000145278
0.000144515
0.000144668
0.000145783
0.000148216
0.000150139
0.000150906
0.000150549
0.000150395
0.00014979
0.000151782
0.000157924
0.000156461
7.08537e-05
3.40452e-05
5.5606e-05
0.000395799
0.000188938
0.000185998
0.000178373
0.000172207
0.00016653
0.000162025
0.000158348
0.00015531
0.000152593
0.000150042
0.000147977
0.000146792
0.000146931
0.000149134
0.000152735
0.000155524
0.000157051
0.000156116
0.000150412
0.000140775
0.000123788
0.000107055
0.000105372
0.000115114
0.000133647
0.000140255
0.000141903
0.000143973
0.000145107
0.000142242
0.000131874
0.000137007
0.00014904
0.000151441
0.000139206
0.000129473
0.000130492
0.000141582
0.000152968
0.000153375
0.000149291
0.000134164
0.000118805
0.000120889
0.000133437
0.000145275
0.000150092
0.000150958
0.000152301
0.000151475
0.000149595
0.000134213
0.00012003
0.000138786
0.000175362
0.000189681
9.92398e-05
3.15841e-05
5.33741e-05
0.000447918
0.000191205
0.000182003
0.000173229
0.000166828
0.000161401
0.000157235
0.000153843
0.000151312
0.000149323
0.000147005
0.000145289
0.00014467
0.000145553
0.000147576
0.000149986
0.00015149
0.000151754
0.000151163
0.000149508
0.000145139
0.000139277
0.000139419
0.000141515
0.000140636
0.00014134
0.000142888
0.000144759
0.000145704
0.000144369
0.000141103
0.000142025
0.000145588
0.000149407
0.000149036
0.000144671
0.000144068
0.000146655
0.000150201
0.000151787
0.000150868
0.0001462
0.000141004
0.000139219
0.000138148
0.000138352
0.000139021
0.000140411
0.000142722