/*--------------------------------*- C++ -*----------------------------------*\
| =========                 |                                                 |
| \\      /  F ield         | OpenFOAM: The Open Source CFD Toolbox           |
|  \\    /   O peration     | Version:  2.1.1                                 |
|   \\  /    A nd           | Web:      www.OpenFOAM.org                      |
|    \\/     M anipulation  |                                                 |
\*---------------------------------------------------------------------------*/
FoamFile
{
    version     2.0;
    format      ascii;
    class       volVectorField;
    location    "0.0015";
    object      U;
}
// * * * * * * * * * * * * * * * * * * * * * * * * * * * * * * * * * * * * * //

dimensions      [0 1 -1 0 0 0 0];

internalField   nonuniform List<vector> 
36520
(
(-0.516427 -0.911764 -0.942225)
(-0.217655 -0.27145 -0.13433)
(-1.431 0.00855518 0.158338)
(-1.83987 0.301688 0.114628)
(-2.26435 0.440117 0.0903177)
(-2.51726 0.553248 0.0708556)
(-2.75561 0.649677 0.0675471)
(-2.96856 0.730523 0.0638936)
(-3.18308 0.818069 0.0707461)
(-3.42235 0.914247 0.0804777)
(-3.69648 1.00283 0.0925683)
(-4.0275 1.0896 0.10118)
(-4.38225 1.13271 0.104607)
(-4.75037 1.13866 0.0955171)
(-5.05256 1.09118 0.0796019)
(-5.29452 1.03393 0.0601981)
(-5.46173 0.998458 0.0495869)
(-5.62846 1.01819 0.0541275)
(-5.84241 1.09249 0.07815)
(-6.17635 1.20634 0.117839)
(-6.66075 1.31787 0.159427)
(-7.29131 1.38381 0.195487)
(-8.03059 1.35984 0.214716)
(-8.83388 1.21891 0.217631)
(-9.61956 0.914627 0.191114)
(-10.2245 0.409991 0.113616)
(-10.4422 -0.245421 -0.0099391)
(-10.1757 -0.902285 -0.14152)
(-9.43864 -1.41955 -0.252573)
(-8.40262 -1.64566 -0.308493)
(-7.36296 -1.50926 -0.283227)
(-6.6187 -1.11393 -0.211451)
(-6.236 -0.684716 -0.146728)
(-6.08923 -0.33901 -0.107318)
(-6.03626 -0.0872954 -0.0874432)
(-6.00683 0.102038 -0.0785954)
(-5.98002 0.277262 -0.0684491)
(-5.96145 0.458686 -0.0603048)
(-5.95685 0.659208 -0.0553817)
(-5.98716 0.889138 -0.0515616)
(-6.05619 1.13908 -0.0497878)
(-6.15781 1.3889 -0.0454559)
(-6.30617 1.61554 -0.0283453)
(-6.50622 1.78657 0.00915196)
(-6.74659 1.88789 0.0762594)
(-7.05655 1.94428 0.177915)
(-7.44925 1.92499 0.310096)
(-7.85448 1.72585 0.50037)
(-8.17545 1.14313 0.875041)
(-8.22938 -0.556198 1.69501)
(-8.45626 -5.5369 2.33471)
(-12.8739 -14.8185 2.10043)
(-23.5471 -16.766 0.0126836)
(-27.3544 -12.7943 -7.56085)
(-28.0925 -13.0785 -8.80254)
(-27.1887 -13.2996 -8.9685)
(-23.8451 -13.2903 -8.59331)
(-18.3997 -14.0414 -6.6891)
(-12.349 -14.1801 -3.13497)
(-1.69302 -16.0838 -3.15433)
(-2.23635 -0.828366 -0.787157)
(-2.77457 0.226566 0.0248008)
(-3.6108 0.290596 0.308804)
(-3.99199 0.582217 0.220591)
(-4.38578 0.594377 0.194746)
(-4.61959 0.736445 0.149997)
(-4.86494 0.770535 0.150048)
(-5.09621 0.847831 0.139362)
(-5.32128 0.909906 0.160204)
(-5.57284 0.993762 0.183388)
(-5.86718 1.07433 0.226038)
(-6.21383 1.1581 0.256708)
(-6.59516 1.18817 0.27388)
(-6.97664 1.18811 0.257044)
(-7.2915 1.11585 0.215477)
(-7.54027 1.03377 0.155079)
(-7.70048 0.956837 0.118172)
(-7.85517 0.94691 0.117618)
(-8.04539 0.995929 0.173351)
(-8.35705 1.10646 0.272192)
(-8.82179 1.21703 0.389274)
(-9.4259 1.28336 0.492471)
(-10.1362 1.26497 0.561377)
(-10.9028 1.13085 0.589332)
(-11.6531 0.827449 0.53045)
(-12.2319 0.294177 0.328478)
(-12.4117 -0.415927 0.00684741)
(-12.1204 -1.12049 -0.345121)
(-11.3562 -1.67556 -0.64956)
(-10.2997 -1.91262 -0.807156)
(-9.25042 -1.74161 -0.750411)
(-8.52547 -1.28673 -0.558004)
(-8.17044 -0.815954 -0.382111)
(-8.04622 -0.452589 -0.271746)
(-8.00217 -0.194735 -0.210672)
(-7.97501 -0.00194773 -0.172571)
(-7.94789 0.177683 -0.135853)
(-7.93088 0.363351 -0.0979514)
(-7.93233 0.565957 -0.0606435)
(-7.96708 0.781049 -0.0149983)
(-8.02537 0.990409 0.0490613)
(-8.08323 1.17525 0.131038)
(-8.13737 1.3219 0.221208)
(-8.18662 1.43434 0.310684)
(-8.22751 1.50306 0.399293)
(-8.30833 1.53179 0.51762)
(-8.41511 1.51225 0.708964)
(-8.46567 1.34847 1.07237)
(-8.30481 0.919605 1.6486)
(-7.64869 -0.236405 2.29909)
(-5.95107 -3.35299 2.98936)
(-3.07248 -11.0544 3.04811)
(-1.70216 -18.6649 3.49683)
(-0.688643 -19.9424 3.09427)
(-8.54437 -19.0952 1.73364)
(-15.8845 -15.2716 -1.51891)
(-11.7874 -10.8226 -3.03143)
(-4.51652 -8.13734 -4.98589)
(-9.72773 -11.4914 -5.2488)
(4.54384 -13.5242 -5.16218)
(-2.80146 -0.800365 -0.395204)
(-3.80579 0.316705 0.270954)
(-4.60132 0.418899 0.486884)
(-4.97668 0.651567 0.359263)
(-5.27077 0.65003 0.329995)
(-5.49767 0.797934 0.248542)
(-5.70742 0.81454 0.26429)
(-5.90994 0.918161 0.241611)
(-6.11611 0.979292 0.281102)
(-6.33584 1.08075 0.314077)
(-6.61083 1.17571 0.37597)
(-6.94607 1.2647 0.41051)
(-7.32753 1.29469 0.417526)
(-7.71176 1.27488 0.367381)
(-8.02938 1.17388 0.286779)
(-8.25599 1.0538 0.203334)
(-8.37844 0.945539 0.175601)
(-8.47061 0.930921 0.20805)
(-8.59025 0.997654 0.314882)
(-8.83112 1.14609 0.484613)
(-9.22692 1.30426 0.672996)
(-9.75912 1.42394 0.836171)
(-10.3968 1.44361 0.932374)
(-11.1125 1.33438 0.964888)
(-11.8553 1.02669 0.869582)
(-12.4694 0.416374 0.547459)
(-12.6704 -0.422978 0.0462759)
(-12.4038 -1.25928 -0.483047)
(-11.6489 -1.94513 -0.952749)
(-10.5529 -2.26336 -1.21352)
(-9.44797 -2.05634 -1.14418)
(-8.72226 -1.49805 -0.874797)
(-8.41035 -0.94547 -0.632194)
(-8.33276 -0.545311 -0.489135)
(-8.31747 -0.274476 -0.414535)
(-8.3049 -0.0734023 -0.364702)
(-8.28519 0.113075 -0.316867)
(-8.27831 0.312382 -0.266311)
(-8.29682 0.533421 -0.218045)
(-8.35217 0.771685 -0.166067)
(-8.4347 1.01153 -0.10086)
(-8.51744 1.23435 -0.0224547)
(-8.58311 1.43429 0.0588495)
(-8.63296 1.61904 0.145215)
(-8.66542 1.76138 0.239649)
(-8.68859 1.87358 0.381476)
(-8.65129 1.94558 0.612217)
(-8.53624 1.9872 1.0551)
(-8.07964 1.83597 1.81626)
(-6.76072 1.20942 2.83894)
(-3.57738 -0.843925 3.32551)
(0.639583 -4.34264 1.79926)
(4.96254 -8.97507 -1.25375)
(7.67934 -12.2288 -2.99005)
(6.27211 -16.337 -1.3483)
(8.11009 -17.1985 -2.04848)
(7.11886 -9.70132 -6.33761)
(12.2211 -6.05556 -4.77866)
(-9.316 -11.1676 -7.79123)
(6.64471 -12.735 -9.4299)
(-2.97056 -0.788531 0.199238)
(-4.17135 0.427367 0.516155)
(-4.99572 0.515739 0.573553)
(-5.32996 0.734238 0.432097)
(-5.54468 0.764386 0.391559)
(-5.75176 0.874854 0.302296)
(-5.90895 0.899865 0.316273)
(-6.10422 0.978478 0.284478)
(-6.29243 1.03464 0.329747)
(-6.52017 1.1418 0.374758)
(-6.80055 1.26191 0.477485)
(-7.142 1.3818 0.533778)
(-7.51955 1.44505 0.537653)
(-7.88574 1.42351 0.459219)
(-8.16553 1.28808 0.336381)
(-8.3193 1.10235 0.235938)
(-8.35353 0.945377 0.216162)
(-8.33504 0.879608 0.288787)
(-8.32373 0.95869 0.436773)
(-8.41263 1.18025 0.643124)
(-8.63478 1.43857 0.855257)
(-8.96175 1.63847 1.02611)
(-9.33897 1.71918 1.12515)
(-9.75717 1.65479 1.16506)
(-10.2486 1.35447 1.06775)
(-10.7686 0.63363 0.687629)
(-11.1043 -0.438304 0.0660475)
(-11.1112 -1.49314 -0.58322)
(-10.6554 -2.36347 -1.1193)
(-9.70703 -2.74925 -1.41669)
(-8.65082 -2.43138 -1.34519)
(-8.0037 -1.66601 -1.05095)
(-7.82182 -0.968044 -0.798855)
(-7.87401 -0.503945 -0.661181)
(-7.9647 -0.20603 -0.59455)
(-8.03316 0.0159723 -0.541319)
(-8.07031 0.222046 -0.482054)
(-8.10181 0.437566 -0.416497)
(-8.14293 0.666133 -0.348031)
(-8.20507 0.904325 -0.280697)
(-8.27562 1.13485 -0.203172)
(-8.32818 1.34249 -0.121446)
(-8.329 1.54174 -0.0462815)
(-8.25573 1.76357 0.00626585)
(-8.09271 1.94731 0.0190518)
(-7.83564 2.09318 0.0772632)
(-7.3988 2.23315 0.265495)
(-6.72018 2.34714 0.723002)
(-5.79684 2.35937 1.48806)
(-4.07283 2.3293 2.27833)
(-0.784776 1.71699 2.51682)
(4.15014 0.0230425 1.468)
(6.92808 -3.05638 -0.181622)
(9.62142 -6.42484 -0.632409)
(7.38605 -11.1892 -0.251467)
(8.76673 -14.6221 -0.763249)
(6.53126 -9.65341 -3.24444)
(15.6245 -6.54787 -2.39849)
(-8.74626 -7.74891 -6.90084)
(8.39604 -12.5816 -12.1072)
(-2.95301 -0.405928 0.870357)
(-4.31164 0.562774 0.823114)
(-5.08372 0.588891 0.776185)
(-5.41189 0.787862 0.533558)
(-5.64466 0.827113 0.50803)
(-5.85796 0.928397 0.406442)
(-6.01667 0.980259 0.40265)
(-6.18855 1.0779 0.385536)
(-6.34137 1.16593 0.422427)
(-6.50835 1.31857 0.48287)
(-6.73272 1.47801 0.586676)
(-7.0255 1.6245 0.628227)
(-7.35624 1.69398 0.580452)
(-7.64354 1.64666 0.424685)
(-7.77614 1.45729 0.248688)
(-7.71951 1.18658 0.163325)
(-7.50078 0.947094 0.230363)
(-7.2018 0.850732 0.386901)
(-6.88504 0.955218 0.588863)
(-6.60734 1.26405 0.803439)
(-6.37005 1.64281 0.97638)
(-6.07754 1.95441 1.08314)
(-5.69315 2.11243 1.12286)
(-5.23322 2.12372 1.12683)
(-4.81791 1.87169 1.06062)
(-4.61853 1.06572 0.751794)
(-4.92485 -0.276274 0.187461)
(-5.611 -1.75617 -0.425634)
(-6.17552 -2.90559 -0.863307)
(-6.11651 -3.47008 -1.17497)
(-5.45663 -2.99685 -1.20114)
(-5.02758 -1.94655 -1.04309)
(-5.07049 -1.07541 -0.905516)
(-5.36002 -0.564922 -0.841023)
(-5.68961 -0.256748 -0.827119)
(-6.01183 0.00112891 -0.801182)
(-6.27995 0.253369 -0.768607)
(-6.5453 0.512857 -0.725219)
(-6.80906 0.793117 -0.67266)
(-7.08425 1.10969 -0.643382)
(-7.39818 1.44965 -0.615502)
(-7.70472 1.80542 -0.58843)
(-7.95713 2.18282 -0.603464)
(-8.10024 2.58032 -0.659061)
(-8.04338 2.8625 -0.798668)
(-7.85917 3.05241 -0.894042)
(-7.42378 3.19897 -0.838957)
(-6.68351 3.39797 -0.53905)
(-5.51585 3.77367 0.0307829)
(-3.61613 4.27656 0.655747)
(-0.918794 4.46644 0.875575)
(2.56311 4.11194 0.273471)
(3.86621 2.63439 -2.33854)
(7.12336 -1.01363 -3.34718)
(5.24479 -6.28847 -2.82912)
(5.36305 -12.5849 -1.14438)
(-1.52187 -12.7895 -2.20294)
(11.4273 -8.39897 -0.170646)
(-4.69543 -5.62278 -6.10907)
(8.0414 -12.9562 -13.2667)
(-3.30868 -0.110256 1.2669)
(-4.58388 0.748582 0.955731)
(-5.24471 0.784459 0.822038)
(-5.50951 0.927376 0.545063)
(-5.67148 1.0191 0.513152)
(-5.83363 1.09652 0.41441)
(-5.93826 1.16722 0.413298)
(-6.03528 1.25444 0.403871)
(-6.08131 1.33517 0.443287)
(-6.10101 1.50773 0.500578)
(-6.15465 1.69096 0.613075)
(-6.24292 1.86101 0.635112)
(-6.31188 1.92125 0.505103)
(-6.24038 1.82927 0.219377)
(-5.94696 1.53299 -0.0406574)
(-5.4845 1.15474 -0.107043)
(-4.9228 0.865577 0.0660253)
(-4.26075 0.72662 0.376653)
(-3.58569 0.849547 0.659772)
(-2.87693 1.27496 0.852211)
(-2.12867 1.81606 0.874882)
(-1.28856 2.27714 0.770617)
(-0.198254 2.57542 0.60011)
(1.0715 2.73906 0.454892)
(2.41061 2.66009 0.355054)
(3.68408 1.92217 0.191641)
(4.31197 0.444774 -0.0877771)
(3.777 -1.3544 -0.373583)
(2.47169 -3.16227 -0.424844)
(1.14086 -4.23622 -0.348791)
(0.841099 -3.78862 -0.480615)
(0.976714 -2.40388 -0.701535)
(0.787998 -1.31126 -0.799863)
(0.397817 -0.763286 -0.832586)
(0.0223099 -0.520689 -0.834373)
(-0.393132 -0.328663 -0.815509)
(-0.748154 -0.0861161 -0.815801)
(-1.1486 0.204498 -0.812239)
(-1.61497 0.544938 -0.784832)
(-2.13074 0.909591 -0.803924)
(-2.78388 1.28228 -0.875785)
(-3.51178 1.62696 -0.971043)
(-4.19501 1.94281 -1.06528)
(-4.79665 2.41425 -1.18891)
(-5.03301 2.78423 -1.37061)
(-5.16529 3.06973 -1.6145)
(-5.19201 3.46499 -1.88688)
(-5.09639 3.90502 -1.94663)
(-4.49557 4.49197 -1.85449)
(-3.43949 5.47637 -1.70073)
(-1.50689 5.95491 -1.68032)
(1.21453 5.92925 -2.41388)
(3.25899 4.82772 -4.89407)
(6.13522 1.22777 -5.00203)
(4.79043 -3.08885 -3.23791)
(3.87187 -9.82319 0.130366)
(-3.56952 -12.8557 -1.58835)
(-0.627039 -9.2354 -2.26287)
(3.07446 -7.16609 -6.99461)
(4.63309 -14.2368 -12.3702)
(-3.64513 1.8837 2.13285)
(-4.70071 1.00478 1.14918)
(-5.26782 0.948161 0.973623)
(-5.4138 0.965525 0.672594)
(-5.43221 1.11588 0.62123)
(-5.42829 1.18343 0.487528)
(-5.32677 1.27127 0.446801)
(-5.16426 1.32454 0.394637)
(-4.89876 1.38911 0.397698)
(-4.53227 1.57332 0.441205)
(-4.13672 1.80416 0.553724)
(-3.70497 1.98189 0.580235)
(-3.17103 1.99832 0.363648)
(-2.48186 1.82719 -0.0785945)
(-1.67298 1.43988 -0.472443)
(-0.787316 0.940678 -0.466911)
(0.0491682 0.447444 -0.0333657)
(0.796817 0.106294 0.543214)
(1.49162 0.0966004 0.981864)
(2.3429 0.630255 1.0684)
(3.50997 1.44574 0.832559)
(4.8652 2.05277 0.386299)
(6.33632 2.48439 -0.146861)
(7.84089 2.86039 -0.61373)
(9.43337 3.12018 -0.883275)
(11.2878 2.7182 -0.883267)
(12.8743 1.41701 -0.705229)
(12.8802 -0.236473 -0.59886)
(11.1533 -2.1282 -0.347324)
(8.57142 -3.69618 0.330489)
(7.21125 -3.73274 0.709864)
(6.94281 -2.52425 0.202905)
(6.52417 -1.28015 -0.46694)
(5.89736 -0.649711 -0.811626)
(5.40275 -0.399528 -0.934161)
(5.04938 -0.275046 -0.900776)
(4.87792 -0.121742 -0.809559)
(4.74676 0.0813469 -0.731193)
(4.58973 0.307475 -0.614756)
(4.46758 0.56736 -0.512237)
(4.25215 0.851059 -0.469552)
(3.83522 1.1853 -0.524442)
(3.36374 1.43516 -0.690265)
(2.59946 1.69188 -1.0895)
(2.1746 2.03101 -1.69968)
(2.03622 2.44906 -2.34538)
(2.2079 3.05661 -3.0448)
(2.18006 3.56032 -3.53561)
(2.66342 3.98196 -3.78097)
(3.32215 4.72301 -3.81757)
(4.62751 5.69316 -4.24922)
(6.18242 6.55588 -4.7371)
(8.61802 5.61167 -5.88555)
(8.21321 4.03988 -5.42137)
(7.24599 -0.0414716 -4.10039)
(5.91348 -6.0178 0.985872)
(-0.981555 -10.3978 -0.57578)
(0.0755525 -9.27393 -5.36724)
(6.60322 -9.95458 -8.59031)
(4.16489 -14.9285 -11.2035)
(-4.31132 1.36008 1.75412)
(-4.81454 0.869079 0.822325)
(-4.55968 1.14008 0.947705)
(-4.2916 1.16555 0.466533)
(-3.71889 1.30941 0.529372)
(-3.19371 1.32298 0.38646)
(-2.56703 1.29592 0.389916)
(-1.83798 1.20738 0.388293)
(-0.978276 1.1682 0.459122)
(0.0789344 1.30088 0.560356)
(1.20216 1.51796 0.705274)
(2.40034 1.65564 0.693376)
(3.69005 1.57839 0.22625)
(5.0238 1.29238 -0.622123)
(6.24152 0.902239 -1.26498)
(7.30624 0.603862 -1.21688)
(8.45013 0.346376 -0.494469)
(9.33809 0.0381912 0.46542)
(9.8587 -0.126387 1.1582)
(10.6424 0.00535095 1.28846)
(12.4185 0.356292 0.916128)
(14.629 0.682555 0.242052)
(16.5046 0.962619 -0.402373)
(17.5936 1.32302 -0.867445)
(18.0867 1.84616 -1.2446)
(18.45 2.09243 -1.38627)
(19.0005 1.66733 -1.09458)
(18.9722 0.663416 -0.53752)
(17.6457 -0.902434 0.0655206)
(15.2192 -2.20563 0.544066)
(13.7443 -2.35839 0.799655)
(13.6711 -1.89554 0.606371)
(13.4425 -1.1778 0.0629343)
(12.6661 -0.76425 -0.473815)
(11.6623 -0.575312 -0.882405)
(10.8309 -0.4712 -0.944745)
(10.3516 -0.308712 -0.824909)
(10.0726 -0.053738 -0.72546)
(9.78955 0.211086 -0.56414)
(9.68819 0.433872 -0.388613)
(9.7028 0.645566 -0.248535)
(9.64642 0.848147 -0.151008)
(9.78371 1.01088 -0.102253)
(9.85302 1.16582 -0.190888)
(9.77092 1.31746 -0.446216)
(9.37649 1.5598 -0.920922)
(8.76617 2.01213 -1.5686)
(7.99699 2.69469 -2.30211)
(7.66923 3.46839 -3.03442)
(7.81543 4.34392 -3.76722)
(8.76568 5.1812 -4.75532)
(10.1301 5.8772 -6.15816)
(11.4832 6.21845 -7.4851)
(12.5822 5.48364 -7.57438)
(14.0898 3.77642 -6.26669)
(15.4123 0.277976 -0.938195)
(11.8342 -2.90495 -1.17132)
(9.959 -11.0227 -7.76974)
(9.12716 -12.071 -7.8241)
(5.27193 -15.141 -9.69448)
(-3.60389 17.9551 4.30593)
(-4.29979 2.98016 0.955913)
(-2.88418 0.678777 1.0629)
(-1.92531 0.651389 0.373616)
(-0.45004 0.324545 0.483486)
(1.17441 0.241223 0.292344)
(2.75613 0.118275 0.259496)
(4.4655 -0.00523757 0.260474)
(5.95351 -0.0772779 0.277029)
(7.37961 -0.102504 0.281132)
(8.94758 -0.139105 0.325349)
(10.8444 -0.141733 0.332495)
(12.9058 -0.083126 0.127069)
(13.8991 0.113079 -0.28269)
(13.3057 0.304737 -0.659433)
(11.4268 0.547478 -0.963022)
(10.5468 0.542056 -0.632843)
(11.2585 0.530716 0.0278)
(13.298 0.65277 0.590647)
(15.8984 0.676122 0.492626)
(18.5471 0.570747 0.09205)
(20.3383 0.360324 -0.275007)
(21.1327 0.276086 -0.546892)
(21.3101 0.302907 -0.721612)
(21.198 0.393638 -0.830588)
(20.6699 0.43946 -0.938485)
(20.0931 0.202188 -0.81934)
(19.6893 -0.22098 -0.361551)
(19.4463 -0.538127 0.205378)
(19.4299 -0.669636 0.515932)
(19.6485 -0.585582 0.474516)
(20.1167 -0.419354 0.259309)
(20.2921 -0.278983 0.206051)
(20.0994 -0.170215 0.239005)
(19.1754 -0.0478093 0.189071)
(17.4661 0.126366 -0.109782)
(16.1313 0.266842 -0.503296)
(15.5069 0.249084 -0.652779)
(15.2254 0.10294 -0.442912)
(15.105 0.0539612 -0.163461)
(15.2046 0.19014 0.0473111)
(15.4765 0.256005 0.141121)
(15.9814 0.182127 0.14564)
(16.6515 0.1132 0.118738)
(17.3349 0.0998323 0.00928829)
(17.9185 0.160726 -0.171254)
(18.3352 0.271642 -0.424697)
(18.3585 0.416932 -0.741228)
(18.157 0.601473 -1.15141)
(17.9631 0.893005 -1.66843)
(17.9509 1.26584 -2.31407)
(18.0544 1.66734 -3.11819)
(17.6174 2.56128 -4.34445)
(18.7 2.85677 -5.31823)
(19.2611 2.23981 -4.95028)
(21.5581 0.0840239 -2.1066)
(20.756 -2.33498 -1.92266)
(16.9434 -11.3933 -5.27987)
(11.6608 -13.2045 -6.53165)
(5.3604 -14.0809 -7.71839)
(-2.34443 19.3345 6.80314)
(-3.27702 3.47365 2.0026)
(-0.782693 1.14977 0.973966)
(0.380797 1.02575 0.128371)
(2.46634 0.619769 -0.00357552)
(4.22668 0.446554 -0.24376)
(5.8687 0.338042 -0.359771)
(7.84971 0.175801 -0.369976)
(9.921 -0.028458 -0.243093)
(11.7756 -0.178275 -0.0984947)
(13.4729 -0.259609 0.0987573)
(15.0806 -0.243587 0.258944)
(16.6823 -0.166356 0.258871)
(17.776 -0.118575 0.163227)
(17.8101 -0.123491 0.115857)
(16.882 0.0925649 -0.102085)
(15.2412 0.463241 -0.521062)
(14.886 0.823576 -0.651354)
(16.0229 0.917889 -0.7998)
(18.3115 0.828437 -0.96666)
(20.101 0.810767 -0.846754)
(21.215 0.602101 -0.514339)
(21.7485 0.26223 -0.325702)
(21.9503 -0.0167756 -0.260727)
(21.9204 -0.165876 -0.238464)
(21.6628 -0.224322 -0.272628)
(21.0543 -0.251675 -0.327638)
(20.5048 -0.253942 -0.358683)
(20.266 -0.27843 -0.333893)
(20.314 -0.243043 -0.265971)
(20.664 -0.152351 -0.331428)
(21.1017 -0.102448 -0.336911)
(21.3432 -0.0840454 -0.208665)
(21.3851 -0.0783691 -0.0229302)
(21.296 -0.0780397 0.164795)
(21.0531 -0.0414255 0.245358)
(20.4318 0.0597165 0.0522196)
(19.1713 0.182223 -0.321022)
(18.2311 0.161845 -0.341294)
(18.0402 0.0813431 -0.157691)
(18.2042 0.105855 0.0120259)
(18.6976 0.140235 0.165699)
(19.2899 0.0631011 0.20801)
(19.9361 -0.0186801 0.154116)
(20.5671 -0.0374424 0.0845596)
(21.0196 -0.00574198 0.00963477)
(21.1723 0.0404757 -0.0703558)
(21.1164 0.0661419 -0.134683)
(20.9057 0.119891 -0.303403)
(20.6533 0.203559 -0.581843)
(20.3562 0.317862 -0.940268)
(20.3693 0.48469 -1.48958)
(20.3802 0.905643 -2.56665)
(20.6993 1.24163 -3.60123)
(20.713 0.897103 -3.50461)
(21.9019 -0.536964 -1.74966)
(20.1548 -3.01211 -1.36281)
(16.9887 -10.2768 -4.01075)
(11.7497 -12.7994 -4.18522)
(5.82834 -14.548 -5.45991)
(-1.88603 11.6112 4.60103)
(-1.13259 0.471408 1.41637)
(2.80059 -0.0499583 0.273935)
(3.57912 0.0539887 -0.126377)
(5.08535 0.0703254 -0.295916)
(6.56131 0.108514 -0.442877)
(7.84697 0.134017 -0.593567)
(8.79859 0.152021 -0.691851)
(9.63714 0.175517 -0.625055)
(10.5591 0.249781 -0.435956)
(12.2412 0.349214 -0.196138)
(14.8973 0.277054 -0.0191804)
(18.0913 -0.000189139 0.0734183)
(20.0751 -0.172758 0.200481)
(20.2606 -0.221213 0.304577)
(19.4959 -0.0362538 0.521887)
(17.0021 0.259756 0.447156)
(15.8835 0.54874 -0.33499)
(16.7876 0.644269 -1.20555)
(19.0323 0.454829 -1.77332)
(20.6886 0.332009 -1.53412)
(21.7936 0.286218 -0.803346)
(22.5998 0.056541 -0.38691)
(23.0889 -0.121361 -0.231907)
(23.3851 -0.166749 -0.157457)
(23.6754 -0.081641 -0.115519)
(23.902 -0.177113 -0.179629)
(23.79 -0.358518 -0.324043)
(22.7474 -0.431727 -0.579158)
(21.7157 -0.286334 -0.798756)
(21.4727 -0.0897957 -0.969199)
(21.6017 0.0216868 -0.885971)
(21.8545 0.0145812 -0.453085)
(21.908 -0.00382388 -0.111518)
(21.849 0.00548751 0.0786322)
(21.6857 0.0279266 0.119982)
(21.2314 0.00347261 0.0954967)
(19.967 -0.107458 0.0481024)
(18.3856 -0.197645 -0.0575322)
(17.763 -0.0966971 -0.148548)
(17.7604 0.0409773 -0.158051)
(18.1157 0.15628 -0.101845)
(18.9123 0.174708 -0.000598535)
(19.7399 0.10247 0.00259083)
(20.533 0.0458897 -0.0377982)
(21.1488 0.0321992 -0.024347)
(21.5233 0.0175716 0.0151168)
(21.646 -0.0173124 0.0674906)
(21.6538 -0.0654429 0.0768535)
(21.6219 -0.0825883 0.0405616)
(21.6484 -0.0654622 -0.037468)
(21.8915 -0.0465964 -0.232664)
(22.1399 0.113109 -0.727674)
(22.2718 0.658873 -1.69193)
(22.9371 0.647633 -1.6401)
(22.8902 -0.163321 -0.885644)
(19.1427 -2.27321 -0.66135)
(17.4132 -8.85806 -3.04239)
(12.4107 -13.3603 -2.19182)
(5.00625 -14.3408 -3.49361)
(-3.60213 2.08493 2.63008)
(-2.93359 0.0226578 0.390191)
(-1.82526 0.394459 -0.32772)
(-1.77469 0.551718 -0.300526)
(-0.641558 0.677881 -0.374706)
(0.187787 0.647976 -0.450868)
(1.15058 0.564192 -0.460416)
(1.99133 0.522706 -0.393715)
(2.95997 0.659354 -0.253476)
(4.21315 1.02903 -0.115673)
(5.8758 1.40099 -0.0908626)
(8.01438 1.43831 -0.188445)
(10.5904 1.06638 -0.0587099)
(12.9481 0.529005 0.469457)
(13.6695 0.0750199 1.04047)
(13.4278 -0.167835 1.41246)
(13.3747 -0.0373606 0.942418)
(14.7857 0.662104 -0.707093)
(16.8089 1.20508 -2.15114)
(18.9141 1.20217 -2.75192)
(20.9191 0.656256 -2.62874)
(22.3547 0.0798089 -1.99546)
(23.1151 -0.162651 -1.14108)
(23.7915 0.236631 -0.3739)
(25.1132 0.304878 0.193175)
(26.2269 -0.310565 -0.000821684)
(26.6266 -0.6485 -0.167036)
(26.6397 -0.836314 -0.290551)
(26.3448 -0.900688 -0.42801)
(25.5162 -0.830519 -0.64033)
(21.9999 -0.784458 -1.48128)
(20.6405 -0.635045 -1.89396)
(20.6053 -0.303484 -1.16491)
(20.2829 -0.11454 -0.377101)
(19.7672 -0.091013 0.0532901)
(18.9447 -0.145782 0.300319)
(17.8356 -0.320954 0.486889)
(16.812 -0.570363 0.411189)
(16.2378 -0.610312 0.0409154)
(16.1859 -0.372026 -0.116359)
(16.3145 0.0384528 -0.106243)
(16.3989 0.302339 -0.055848)
(16.6561 0.450812 0.02531)
(16.9108 0.445539 0.000746364)
(17.2388 0.336484 -0.0493598)
(17.4512 0.265349 -0.0135889)
(17.5713 0.200479 0.112701)
(17.659 0.15773 0.24981)
(17.7203 0.152664 0.308814)
(17.8123 0.140576 0.354536)
(18.0221 0.218552 0.428265)
(18.3505 0.411858 0.245102)
(18.1217 0.872016 -0.118695)
(18.5159 1.454 -0.786795)
(20.2915 0.936201 -0.831925)
(21.1402 -1.09775 -0.255698)
(17.3568 -3.08868 -0.394313)
(5.08483 -10.8044 0.0844062)
(12.0244 -15.2338 -0.695504)
(4.87271 -14.6751 -1.25726)
(-3.67885 2.487 -3.51411)
(-3.83488 0.272045 -1.20667)
(-2.71074 0.722787 -0.133871)
(-2.72673 0.898256 -0.153341)
(-1.51366 1.10373 0.018019)
(-0.723318 1.11523 0.278516)
(0.32974 1.08251 0.53316)
(1.49653 0.971064 0.785111)
(2.82506 1.02491 0.986423)
(4.38029 1.28976 1.13913)
(6.38234 1.49665 1.29341)
(8.89281 1.33947 1.42266)
(11.5527 0.898763 1.45922)
(13.5737 0.424203 1.37582)
(14.5989 -0.0733095 1.24475)
(15.6725 -0.317279 1.11762)
(17.631 0.0657407 0.594664)
(19.6421 0.706929 -0.448434)
(20.7762 1.14552 -1.69831)
(21.3911 1.3733 -2.71736)
(22.1592 1.2448 -3.0067)
(23.4743 0.635582 -2.58154)
(24.8199 0.0218836 -1.85357)
(26.0654 0.11763 -1.26402)
(27.3835 0.728054 -0.721874)
(28.3129 -0.107366 -0.23402)
(28.4318 -0.765214 -0.233899)
(28.2574 -0.984171 -0.265201)
(27.9342 -1.12537 -0.292191)
(27.414 -1.21941 -0.258968)
(26.0538 -1.29814 -0.265159)
(22.1767 -0.666888 -0.817018)
(21.1862 -0.123835 -0.604183)
(20.5555 0.0265843 0.0580744)
(19.8881 0.0247942 0.430505)
(19.0385 -0.0582012 0.506518)
(18.0346 -0.249934 0.248926)
(17.1212 -0.559684 -0.30069)
(16.3394 -0.636951 -0.621944)
(16.0915 -0.420349 -0.543832)
(16.1376 -0.0227698 -0.186479)
(16.1456 0.253801 0.0974893)
(16.436 0.325793 0.322539)
(16.8022 0.338649 0.414334)
(17.0826 0.337592 0.380343)
(17.2224 0.258509 0.367944)
(17.2727 0.198977 0.424699)
(17.1804 0.233408 0.604874)
(16.709 0.369867 0.935497)
(15.7338 0.656871 1.34567)
(15.7117 0.905202 1.8748)
(15.8882 1.2607 2.59648)
(16.038 1.78584 3.17218)
(16.7485 2.45661 2.99567)
(19.3517 1.83185 3.38642)
(20.8578 -0.608995 2.85531)
(17.2294 -3.00727 2.15339)
(7.34872 -9.53273 -0.0861543)
(12.758 -14.3917 -0.114421)
(4.39452 -15.312 0.664236)
(-1.90246 12.0503 -5.3107)
(-2.13572 1.46781 -1.9897)
(1.22149 0.0346466 -0.376998)
(1.21019 0.108482 0.0887533)
(1.87919 0.305082 0.209872)
(2.66688 0.532126 0.391575)
(3.77234 0.655869 0.561482)
(5.18366 0.697269 0.720749)
(6.67468 0.747694 0.934577)
(8.27206 0.808272 1.1416)
(10.3838 0.790543 1.18626)
(13.129 0.582706 1.03302)
(16.0064 0.218686 0.839443)
(18.6018 0.021932 0.711214)
(20.362 -0.281761 0.700052)
(21.4809 -0.576332 0.430045)
(22.6181 -0.539436 0.00334657)
(23.606 -0.353227 -0.338576)
(24.234 -0.174723 -0.787978)
(24.5519 0.0967137 -1.42145)
(24.887 0.533925 -2.17229)
(25.452 0.876469 -2.52504)
(26.2917 0.378415 -2.03292)
(27.6552 -0.390802 -1.32087)
(28.7326 -0.333128 -1.17901)
(29.6117 0.0404859 -0.710489)
(30.2836 -0.66651 -0.020845)
(30.1672 -0.893273 0.00895076)
(29.7123 -1.01979 -0.0564285)
(29.0631 -1.11362 -0.0955689)
(28.1232 -1.2206 -0.0588716)
(26.0324 -1.15373 0.11652)
(23.3981 -0.390237 -0.214502)
(22.5743 -0.049376 -0.011016)
(22.196 0.0534201 0.255666)
(21.9717 0.0867164 0.323688)
(21.6609 0.0729572 0.260055)
(20.9176 -0.0219319 0.0315675)
(19.0503 -0.130341 -0.247899)
(17.4265 -0.104051 -0.233451)
(16.8534 0.0440474 -0.0167946)
(16.8643 0.176055 0.121553)
(17.335 0.181086 0.223046)
(18.3686 0.0825022 0.239192)
(19.396 0.0132378 0.16859)
(20.1974 0.00022215 0.144004)
(20.7137 0.00222341 0.210232)
(20.8749 0.0061008 0.426296)
(20.8038 0.0230719 0.796194)
(20.6089 0.0393438 1.08054)
(20.5674 0.073532 1.36396)
(20.843 0.101365 1.81419)
(21.0114 0.456681 2.67334)
(20.3306 1.04489 3.09412)
(20.3033 1.06539 3.18632)
(21.0101 -0.200557 2.57426)
(18.5126 -2.51566 1.56989)
(18.7979 -8.13094 2.47713)
(13.0263 -12.9264 1.65926)
(2.07919 -14.1237 3.72372)
(-2.59603 20.1237 -7.09178)
(-3.86689 5.96371 -2.41179)
(-1.40092 2.19702 -0.906483)
(-0.326987 1.12233 0.347394)
(1.42824 0.622597 0.684887)
(2.88085 0.394417 0.901264)
(4.4922 0.23306 0.95778)
(6.3688 0.114359 0.994405)
(8.47941 0.0646679 1.10315)
(10.9424 0.0882592 1.19341)
(13.7009 0.121202 1.20826)
(16.4776 0.0594069 1.21163)
(18.5476 -0.267351 1.11418)
(19.5405 -0.979611 0.667436)
(20.5481 -1.50925 0.188922)
(21.871 -1.31412 -0.0429291)
(22.9647 -1.02876 -0.161024)
(23.984 -0.730219 -0.298418)
(24.7049 -0.566031 -0.448873)
(24.994 -0.474365 -0.71168)
(25.2373 -0.265496 -1.21709)
(25.5583 0.256682 -1.86506)
(25.9185 0.186021 -1.80979)
(26.9944 -0.486706 -1.1636)
(27.6971 -0.919121 -0.683492)
(27.8911 -0.706571 -0.924986)
(28.9515 0.242558 -0.813913)
(30.9236 0.406805 -0.503447)
(31.3357 -0.32096 -0.202975)
(30.7286 -0.916199 0.106089)
(29.6554 -1.28591 0.436857)
(28.2413 -1.53471 0.765948)
(25.5663 -1.44711 1.09289)
(22.9048 -0.331001 0.795478)
(21.8941 0.0433825 0.638186)
(21.0861 0.130571 0.552428)
(19.9595 0.160949 0.448721)
(18.1299 0.191857 0.376756)
(16.3118 0.15055 0.37109)
(15.2386 0.0522407 0.332112)
(14.8634 0.15963 0.302069)
(14.8788 0.344807 0.280828)
(15.2 0.381608 0.217276)
(15.7329 0.228296 0.124763)
(16.2061 0.113625 0.161583)
(16.4356 0.133127 0.355321)
(16.3728 0.236339 0.674059)
(16.3081 0.461515 1.38128)
(16.5411 0.732704 2.27134)
(16.7257 1.04786 3.01733)
(17.1854 1.30621 3.64768)
(18.3437 1.53611 4.42929)
(19.8597 1.72773 5.33244)
(20.2244 1.61304 5.62439)
(20.1865 1.09353 5.37197)
(20.3749 -0.0334449 3.5092)
(16.6625 -2.94975 1.64422)
(14.6118 -10.35 3.13626)
(11.9223 -13.3486 4.06345)
(3.05172 -16.3107 6.63455)
(-3.85313 18.4423 -3.00077)
(-4.79187 5.36731 -0.747468)
(-3.15948 1.62922 -1.32742)
(-1.93065 0.727582 -0.658971)
(-0.0884153 0.140759 -0.677982)
(1.61331 -0.0829682 -0.513273)
(3.23701 -0.228648 -0.565637)
(4.87921 -0.2887 -0.668635)
(6.81345 -0.278227 -0.739241)
(9.05956 -0.249607 -0.777932)
(11.7195 -0.308863 -0.746155)
(14.6018 -0.41462 -0.657485)
(17.4453 -0.45283 -0.563964)
(19.6393 -0.714699 -0.456146)
(20.7497 -0.981569 -0.39829)
(20.9796 -0.95449 -0.47318)
(21.0539 -0.798303 -0.645161)
(21.4112 -0.404383 -0.902277)
(21.303 0.275118 -0.97976)
(19.6455 0.59904 -0.873025)
(18.3365 -0.0744292 -1.38715)
(18.3715 -0.318069 -1.84539)
(19.5438 -0.116997 -2.13799)
(21.6515 0.420125 -2.134)
(24.071 0.830582 -1.93143)
(26.3895 -0.0310315 -1.88586)
(27.5636 -0.599735 -1.86298)
(28.1095 -0.716984 -1.11424)
(28.6403 -0.803939 -0.135851)
(28.5341 -0.999913 0.438171)
(27.6913 -1.00296 0.911505)
(25.7457 -0.677071 1.66572)
(22.8862 0.0190424 2.22491)
(20.882 0.353187 1.53908)
(19.9031 0.311593 0.943159)
(18.9364 0.329174 0.839313)
(17.646 0.42224 0.992988)
(15.8486 0.47565 1.13768)
(14.1031 0.339795 1.0161)
(13.0422 0.255786 0.748441)
(12.5841 0.403903 0.679455)
(12.4538 0.543994 0.714019)
(12.3471 0.580685 0.771904)
(12.1449 0.570603 0.826688)
(11.683 0.602861 0.882272)
(11.2143 0.743691 1.08729)
(11.1868 0.93457 1.47062)
(11.6346 1.16121 1.99781)
(12.4424 1.44671 2.55826)
(13.5037 1.73572 3.01422)
(15.1484 1.93743 3.43473)
(16.7914 2.35543 3.97769)
(18.2677 3.2674 5.47232)
(19.6407 2.71336 6.47778)
(20.0106 1.77337 6.04824)
(19.8901 0.668395 3.43899)
(17.5563 -2.31869 1.86446)
(13.7708 -10.8331 4.4938)
(11.267 -13.1431 5.98249)
(3.74389 -16.5746 7.92339)
(-4.43793 1.02899 -1.14846)
(-4.90216 0.629494 -0.589321)
(-4.72034 0.864726 -0.924268)
(-4.43956 0.877137 -0.652062)
(-3.88172 0.921942 -0.68325)
(-3.31991 0.925137 -0.560892)
(-2.63335 0.923076 -0.628633)
(-1.86975 0.94335 -0.74835)
(-0.876834 1.01296 -0.933831)
(0.3207 1.24038 -1.10717)
(1.8246 1.50488 -1.27986)
(3.93153 1.53031 -1.34843)
(6.86415 1.03492 -1.25818)
(10.1374 0.149488 -0.958147)
(11.8068 -0.613484 -0.634191)
(11.1199 -1.06777 -0.454634)
(8.24195 -1.24371 -0.361279)
(6.37649 -0.41769 0.0373558)
(6.31512 0.736004 0.5125)
(6.94007 1.21666 0.0748242)
(8.35587 1.02014 -1.17725)
(10.0564 0.314264 -2.1295)
(11.8057 -0.426985 -2.70841)
(13.6023 -0.962723 -3.08589)
(15.4864 -1.33456 -3.20521)
(17.578 -1.66051 -2.58784)
(19.9243 -1.71004 -1.72478)
(22.2597 -1.45959 -1.06227)
(23.7003 -1.02726 -0.226896)
(23.7043 -0.439526 0.488014)
(22.3029 0.3149 1.58905)
(18.7912 1.12485 2.97321)
(15.9704 1.26496 3.30563)
(14.9167 0.844625 2.40245)
(13.9881 0.465205 1.72251)
(13.0402 0.136857 1.62576)
(12.1681 -0.212203 1.77511)
(11.3718 -0.414242 1.74956)
(10.8669 -0.31706 1.38139)
(10.9112 -0.0312998 1.11153)
(10.9777 0.297065 1.022)
(11.1512 0.609441 1.10541)
(11.0938 0.919247 1.26943)
(10.8415 1.12778 1.54484)
(10.358 1.26232 1.85308)
(9.78978 1.43124 2.18116)
(9.46341 1.74822 2.62517)
(9.58027 2.23926 3.34547)
(9.84799 2.95887 4.17332)
(10.4225 3.61536 4.81698)
(11.8612 4.25153 5.71612)
(13.3312 4.6645 6.88092)
(15.1671 5.34154 8.20134)
(17.5531 4.32602 8.38254)
(17.8696 2.45927 6.95696)
(17.592 -0.443055 2.53525)
(12.828 -4.8764 1.49285)
(6.33397 -11.0259 6.86104)
(8.12132 -12.9054 7.62351)
(3.98945 -15.6023 9.77608)
(-3.7769 1.80293 -1.75418)
(-4.94141 1.22425 -0.980331)
(-5.43675 0.948587 -0.946039)
(-5.6483 0.907058 -0.708216)
(-5.71297 0.884471 -0.671727)
(-5.71429 0.873464 -0.635553)