/*--------------------------------*- C++ -*----------------------------------*\
| =========                 |                                                 |
| \\      /  F ield         | OpenFOAM: The Open Source CFD Toolbox           |
|  \\    /   O peration     | Version:  2.1.1                                 |
|   \\  /    A nd           | Web:      www.OpenFOAM.org                      |
|    \\/     M anipulation  |                                                 |
\*---------------------------------------------------------------------------*/
FoamFile
{
    version     2.0;
    format      ascii;
    class       volVectorField;
    location    "0.0015";
    object      UFLUK;
}
// * * * * * * * * * * * * * * * * * * * * * * * * * * * * * * * * * * * * * //

dimensions      [0 1 -1 0 0 0 0];

internalField   nonuniform List<vector> 
36520
(
(-0.000140008 -0.942147 0.911879)
(-0.000175536 -0.134284 0.271652)
(6.06058e-06 0.158433 -0.00828237)
(1.18003e-05 0.114764 -0.301354)
(1.59661e-05 0.0905004 -0.439718)
(1.74818e-05 0.0710851 -0.552794)
(2.00095e-05 0.0678248 -0.649156)
(2.40531e-05 0.0642259 -0.72992)
(3.1175e-05 0.0711427 -0.817358)
(4.31404e-05 0.0809559 -0.913389)
(6.10766e-05 0.0931553 -1.00177)
(8.77041e-05 0.101914 -1.08828)
(0.000125941 0.105543 -1.13105)
(0.000178115 0.0967304 -1.13659)
(0.000245118 0.0811873 -1.08862)
(0.000326523 0.0622626 -1.03087)
(0.000420534 0.0522517 -0.994885)
(0.000521748 0.0575179 -1.01416)
(0.000619654 0.0823828 -1.08808)
(0.000700533 0.122986 -1.20167)
(0.000751102 0.165494 -1.31307)
(0.00076384 0.202416 -1.37905)
(0.000739588 0.222395 -1.3553)
(0.000687473 0.225904 -1.21477)
(0.000615334 0.19977 -0.91102)
(0.000540136 0.122403 -0.407009)
(0.000427303 -0.00124674 0.247571)
(0.000289101 -0.133038 0.903465)
(0.000231166 -0.244367 1.41975)
(0.000271318 -0.300428 1.64511)
(0.000335646 -0.275001 1.50841)
(0.000351124 -0.202805 1.11263)
(0.000266831 -0.137557 0.682914)
(6.60601e-05 -0.097805 0.33684)
(-0.000242638 -0.0780424 0.0849264)
(-0.00061601 -0.0699347 -0.104454)
(-0.000942947 -0.061113 -0.27968)
(-0.00113992 -0.0547512 -0.46119)
(-0.00118009 -0.0518862 -0.662439)
(-0.0010373 -0.0518125 -0.910036)
(-0.000750264 -0.0560116 -1.20145)
(-0.000437428 -0.0560447 -1.47717)
(-0.000147748 -0.0430873 -1.69554)
(-0.000957852 -0.00666737 -1.80574)
(-0.0074453 0.00303597 -1.88811)
(-0.0478605 -0.219277 -1.93837)
(-0.140463 -0.66389 -1.89229)
(-0.235095 -0.87099 -1.6596)
(-0.271347 -0.707675 -1.11523)
(-0.224614 -0.858585 0.071229)
(0.0380465 2.77612 2.81436)
(-0.669881 6.17673 13.4796)
(-4.6654 2.78494 16.7011)
(-5.71321 -5.99739 13.2034)
(-5.38504 -8.06386 15.0183)
(-2.66481 -10.4781 16.8853)
(-0.784084 -10.969 16.3693)
(-0.790837 -8.30941 16.9455)
(-0.468038 -3.53395 15.9519)
(-0.843166 -4.09897 15.5442)
(-8.56867e-05 -0.786941 0.828579)
(-0.000103054 0.025142 -0.226215)
(1.13292e-05 0.309199 -0.29023)
(3.1898e-05 0.221038 -0.581858)
(3.56165e-05 0.19525 -0.594027)
(3.92431e-05 0.150555 -0.736113)
(5.11105e-05 0.150676 -0.770211)
(6.7448e-05 0.140078 -0.847508)
(9.32245e-05 0.161036 -0.909567)
(0.00012892 0.184375 -0.99339)
(0.000175022 0.227232 -1.07391)
(0.000232224 0.258172 -1.15762)
(0.000296793 0.2757 -1.18763)
(0.000362011 0.259307 -1.18756)
(0.000418227 0.218282 -1.11534)
(0.000457621 0.1585 -1.03338)
(0.000480031 0.122265 -0.956628)
(0.000482525 0.122388 -0.946918)
(0.000461981 0.178743 -0.996176)
(0.000413478 0.278065 -1.10701)
(0.000336257 0.395469 -1.21793)
(0.000237834 0.498879 -1.28465)
(0.000129879 0.567977 -1.26659)
(3.10253e-05 0.596112 -1.13261)
(-4.20894e-05 0.537255 -0.829284)
(-0.000132161 0.335066 -0.29654)
(-0.000271287 0.0132283 0.412729)
(-0.000383543 -0.338975 1.11671)
(-0.0003336 -0.644608 1.67076)
(-0.000149526 -0.803533 1.90725)
(-7.31057e-05 -0.74715 1.7375)
(-0.000113819 -0.554795 1.28415)
(-0.000126698 -0.379142 0.814089)
(-0.000122863 -0.269132 0.451001)
(-0.000142365 -0.208465 0.193278)
(-0.000203363 -0.170818 0.000598328)
(-0.000303453 -0.134702 -0.179399)
(-0.000526436 -0.0977605 -0.367073)
(-0.0047293 -0.0613649 -0.573968)
(-0.0156001 -0.0116238 -0.794008)
(-0.0193177 0.0567291 -1.00664)
(-0.00438011 0.135717 -1.19434)
(0.019221 0.187494 -1.48285)
(0.00721808 0.199581 -1.91555)
(0.0009691 0.251233 -2.12575)
(-0.000641839 0.321113 -2.24575)
(-0.0353738 0.304168 -2.00774)
(-0.17337 0.261832 -1.56735)
(-0.535526 0.374939 -1.32254)
(-1.93532 1.30705 -0.892489)
(-2.66314 2.46042 1.90165)
(-1.23106 3.7975 8.20361)
(-0.144254 4.20385 14.3114)
(0.0436554 4.10405 25.2211)
(0.00200226 2.27691 24.2385)
(-0.00498864 -1.0428 19.6052)
(-0.0230515 -2.62125 14.5936)
(-0.677753 -4.63105 11.7383)
(-1.21027 -5.17966 12.8695)
(-1.62148 -5.05569 13.487)
(-5.01254e-05 -0.394836 0.800483)
(-6.05828e-05 0.271345 -0.316594)
(-1.85814e-05 0.487318 -0.418816)
(-7.19558e-06 0.35971 -0.651532)
(-7.82282e-06 0.33046 -0.650045)
(-6.73831e-06 0.249027 -0.798009)
(-6.03676e-07 0.264815 -0.81469)
(8.97215e-06 0.24219 -0.918375)
(2.3021e-05 0.281767 -0.979538)
(3.82319e-05 0.314843 -1.08104)
(5.16968e-05 0.376866 -1.17606)
(5.95557e-05 0.411569 -1.26513)
(5.71593e-05 0.418799 -1.29521)
(4.08495e-05 0.368932 -1.27554)
(1.12324e-05 0.288699 -1.17475)
(-2.13116e-05 0.205706 -1.05495)
(-4.10173e-05 0.178509 -0.947035)
(-4.73499e-05 0.211467 -0.932976)
(-7.62676e-05 0.318344 -1.00174)
(-0.000147307 0.486928 -1.15655)
(-0.000249563 0.671475 -1.33069)
(-0.000316701 0.825659 -1.48675)
(-0.00018578 0.902918 -1.58231)
(-2.61807e-05 0.90206 -1.60371)
(-0.000456409 0.755819 -1.48842)
(-0.00103795 0.376479 -1.09221)
(-0.00113329 -0.16621 -0.408997)
(-0.00198808 -0.698123 0.417703)
(-0.00231087 -1.14729 1.1954)
(-0.000382408 -1.36359 1.69476)
(0.000555477 -1.24118 1.68459)
(0.00042004 -0.93558 1.25861)
(0.000168195 -0.674305 0.776539)
(5.73538e-05 -0.519613 0.420977)
(1.38972e-05 -0.436908 0.181328)
(-0.00011234 -0.381003 0.00314092)
(-0.000628419 -0.328664 -0.167438)
(-0.00168288 -0.27508 -0.358265)
(-0.00255994 -0.22495 -0.578923)
(-0.00221364 -0.172598 -0.821407)
(-0.00121328 -0.109339 -1.06769)
(-0.0620617 -0.0367956 -1.2964)
(-0.335156 0.0627593 -1.4913)
(-0.436037 0.17082 -1.80733)
(-0.145131 0.193296 -2.2111)
(0.265263 0.108244 -2.39158)
(0.343955 0.137428 -2.52166)
(-0.0217609 0.455467 -2.79202)
(-0.757975 0.620807 -2.46923)
(-1.7341 1.52364 -1.71154)
(-2.56908 2.30867 0.00574611)
(-3.01779 1.02063 2.82733)
(-0.113097 -1.10289 5.44383)
(2.96369 -1.08679 9.72811)
(2.25044 2.1544 15.7554)
(-2.54375 1.50187 17.1197)
(-3.77045 -5.11597 10.5819)
(-5.03144 -4.86052 5.92172)
(-2.57386 -7.66068 11.5377)
(-1.48834 -9.12693 12.9682)
(-5.33915e-05 0.199584 0.788457)
(-5.56872e-05 0.516526 -0.427482)
(-2.81178e-05 0.573974 -0.5159)
(-2.47504e-05 0.432549 -0.73439)
(-2.85084e-05 0.392026 -0.764565)
(-3.62272e-05 0.302733 -0.875207)
(-3.52404e-05 0.316708 -0.900486)
(-1.50675e-05 0.284923 -0.979508)
(-5.89695e-08 0.33021 -1.03638)
(-7.89095e-08 0.375223 -1.14487)
(-1.10294e-07 0.478043 -1.26706)
(-1.59744e-07 0.534594 -1.39032)
(-2.4255e-07 0.538914 -1.45938)
(-6.15915e-06 0.460906 -1.44835)
(-4.04779e-05 0.338064 -1.33118)
(-6.03544e-05 0.235709 -1.17825)
(-0.00019635 0.209453 -1.07924)
(-0.00212338 0.263771 -1.12193)
(-0.00893512 0.364654 -1.41676)
(-0.0218238 0.462929 -2.06122)
(-0.0379081 0.476731 -3.0067)
(-0.0526318 0.399303 -3.99963)
(-0.0590333 0.260484 -4.8037)
(-0.0557633 0.0975075 -5.32272)
(-0.0427 -0.152262 -5.43429)
(-0.0241493 -0.621215 -4.91835)
(-0.0110768 -1.25518 -3.82868)
(-0.011668 -1.80459 -2.43484)
(-0.0272061 -2.09951 -0.841887)
(-0.0310665 -2.0966 0.435289)
(-0.00399065 -1.80726 0.858291)
(0.00881664 -1.38596 0.517443)
(0.00903244 -1.0657 0.0372342)
(0.00795067 -0.888343 -0.289949)
(0.00661505 -0.78986 -0.472822)
(0.0055873 -0.703977 -0.576355)
(0.00444143 -0.612755 -0.672247)
(0.00303641 -0.515935 -0.791341)
(0.00106961 -0.422027 -0.949334)
(-0.000647992 -0.341247 -1.15335)
(-0.00104068 -0.257343 -1.37876)
(-0.00435331 -0.178122 -1.60609)
(-0.0421196 -0.111932 -1.83806)
(-0.185015 -0.0827679 -2.0669)
(-0.238507 -0.321435 -2.07648)
(-0.0108044 -0.476485 -2.05803)
(-0.00060746 -0.463482 -2.2102)
(-0.0282834 -0.229772 -2.27098)
(-0.0918588 0.241822 -2.23739)
(-0.504614 0.723007 -2.17741)
(-1.63139 1.0706 -1.59449)
(-1.78726 -0.654306 0.179696)
(-0.394646 -1.46481 5.30333)
(2.94986 0.00813471 5.62185)
(2.81895 -0.055333 9.6293)
(-1.14977 1.97932 14.5997)
(-2.51901 -2.35126 9.74848)
(-3.2704 -2.62566 6.69432)
(-2.28546 -6.87768 7.77608)
(-1.55845 -12.0873 12.6718)
(-6.66059e-05 0.870881 0.405707)
(-6.25341e-05 0.823711 -0.563018)
(-2.18202e-05 0.776853 -0.590019)
(-1.4502e-05 0.534011 -0.791481)
(-0.00011067 0.507651 -0.836468)
(-0.000260815 0.404425 -0.948038)
(-0.000433485 0.398427 -1.01492)
(-0.000764041 0.378249 -1.13597)
(-0.00147331 0.410669 -1.26104)
(-0.00243198 0.46308 -1.47811)
(-0.00349354 0.550864 -1.74798)
(-0.00506785 0.558471 -2.08369)
(-0.00758596 0.448771 -2.44108)
(-0.0105614 0.188604 -2.79976)
(-0.015433 -0.102473 -3.05967)
(-0.0208943 -0.346512 -3.31618)
(-0.0313377 -0.418975 -3.58048)
(-0.0501168 -0.421519 -4.02784)
(-0.0841739 -0.404352 -4.73228)
(-0.135775 -0.404846 -5.70841)
(-0.188332 -0.465709 -6.80821)
(-0.234342 -0.60326 -7.8722)
(-0.292612 -0.807328 -8.77675)
(-0.349871 -1.04648 -9.48633)
(-0.333211 -1.34693 -9.82989)
(-0.227088 -1.98318 -9.32371)
(-0.0811916 -2.89108 -7.70879)
(0.0586304 -3.55954 -5.47591)
(0.13328 -3.69585 -3.1821)
(0.123664 -3.27677 -1.35375)
(-0.0486922 -2.54 -0.742323)
(-0.0567449 -2.10962 -1.0796)
(0.0245198 -1.79608 -1.59812)
(0.0723103 -1.65491 -1.88156)
(0.0777145 -1.58911 -1.99911)
(0.0653249 -1.46911 -2.05602)
(0.0518609 -1.35722 -2.10171)
(0.0386826 -1.24847 -2.15365)
(0.0270864 -1.1328 -2.25401)
(0.00850551 -1.05803 -2.44838)
(-0.00407984 -0.98471 -2.66817)
(-0.0128974 -0.90337 -2.87563)
(-0.00895812 -0.862102 -3.0716)
(-0.00197668 -0.860641 -3.28551)
(0.0057992 -0.994856 -3.53573)
(0.0125819 -1.12965 -3.73733)
(0.00588129 -1.19204 -3.85169)
(-0.00167673 -1.16621 -3.81521)
(-0.0672941 -0.866963 -3.83311)
(-0.48943 -0.395257 -4.05904)
(-1.19789 0.0348294 -3.91968)
(-0.752452 -0.190924 -2.5301)
(-0.24228 -2.35037 -0.847937)
(0.139692 -4.05567 -0.69372)
(0.598122 -2.6123 4.23896)
(0.36266 1.2379 12.4945)
(-2.00082 -1.2203 13.264)
(-2.23114 -0.0861238 8.55447)
(-1.41134 -6.45395 4.95742)
(-1.51425 -13.4089 12.7276)
(-0.000116778 1.26636 0.104888)
(-0.00064853 0.951575 -0.770841)
(-0.00214765 0.808344 -0.85113)
(-0.00442938 0.515839 -1.07179)
(-0.00710748 0.467166 -1.25851)
(-0.009164 0.350303 -1.45566)
(-0.0118974 0.333706 -1.66739)
(-0.0157079 0.293178 -1.95773)
(-0.0244227 0.291854 -2.29915)
(-0.0412659 0.295082 -2.80972)
(-0.0650591 0.302457 -3.44626)
(-0.0818956 0.118195 -4.19027)
(-0.0970519 -0.284348 -4.88037)
(-0.102042 -0.831701 -5.42973)
(-0.135219 -1.32345 -5.73797)
(-0.162425 -1.48076 -5.89877)
(-0.192422 -1.38289 -6.04638)
(-0.281968 -1.42696 -6.23949)
(-0.456044 -1.65303 -6.67909)
(-0.700989 -1.71091 -7.62171)
(-0.923468 -1.84722 -8.85466)
(-1.09251 -2.30132 -10.0183)
(-1.53838 -3.2624 -10.8307)
(-2.52516 -5.04464 -10.7446)
(-2.86669 -7.64126 -9.0063)
(-1.47915 -9.95723 -5.65852)
(-0.352073 -10.9115 -2.71607)
(0.165416 -10.9528 -0.328409)
(0.461693 -10.332 1.84462)
(0.619572 -9.16173 3.23338)
(0.875221 -7.43049 1.25785)
(-0.311802 -3.37318 -3.12892)
(-0.435256 -2.87034 -3.89417)
(-0.233253 -2.68717 -4.18724)
(-0.0587715 -2.59115 -4.23008)
(-0.0875676 -2.54056 -4.20759)
(-0.032662 -2.60282 -4.21622)
(0.297774 -2.33378 -4.37748)
(0.256433 -2.10604 -4.54843)
(0.0812383 -2.07661 -4.77415)
(0.0191787 -2.11622 -5.02038)
(-0.0524226 -2.1079 -5.23161)
(-0.0984181 -1.96611 -5.36971)
(-0.00739671 -1.93009 -5.52028)
(0.0600355 -2.08416 -5.6411)
(0.0578453 -2.35796 -5.72802)
(0.0341689 -2.60789 -5.9298)
(0.021841 -2.58771 -6.06915)
(0.00903004 -2.38506 -6.28644)
(-0.0643039 -2.13086 -6.93625)
(-0.489678 -2.1679 -7.2492)
(-1.55524 -2.36975 -5.20539)
(-1.87333 -5.21097 -5.23872)
(-0.429717 -5.4569 -2.84649)
(1.12753 -2.1934 1.8126)
(2.82851 1.42446 9.38446)
(-2.9189 -1.52749 12.8359)
(-1.84949 -2.26392 9.2131)
(-0.915764 -7.61073 6.38407)
(-1.49729 -12.5616 13.9605)
(-0.0283869 2.13431 -1.89458)
(-0.0657048 1.1581 -1.09388)
(-0.118647 1.00953 -1.21131)
(-0.155484 0.765924 -1.43522)
(-0.195423 0.845536 -1.73284)
(-0.223056 1.07124 -1.78509)
(-0.290576 1.45793 -1.74291)
(-0.402504 1.90395 -1.41086)
(-0.538713 2.33859 -1.48395)
(-1.06063 2.82777 -1.68875)
(-2.47356 3.17428 -1.96504)
(-4.1973 3.22026 -2.25626)
(-5.45149 3.30362 -2.47615)
(-5.95917 3.70203 -2.57185)
(-6.22079 4.12068 -2.4016)
(-0.267087 -7.70627 0.41485)
(-0.0535757 -7.88798 -0.516255)
(-0.050626 -7.64695 -0.986682)
(-0.164007 -6.73693 -3.50638)
(-0.572092 -2.22912 -8.46286)
(-0.797848 -1.8668 -10.0207)
(-0.701746 -2.34042 -11.2149)
(-0.557437 -3.23282 -12.0757)
(-0.702433 -4.90065 -12.3912)
(-1.19378 -9.27859 -9.46307)
(-0.789428 -11.569 -2.89631)
(-0.274549 -11.6224 0.0470999)
(-0.0272336 -11.5058 1.83188)
(0.158963 -10.9904 3.56149)
(0.326482 -9.84681 4.92201)
(0.735754 -8.85559 4.48919)
(1.07676 -4.76899 -4.36889)
(-0.768761 -0.280073 -6.51273)
(-0.930988 -0.685504 -6.71532)
(-0.351816 -1.1419 -6.66835)
(-0.164254 -1.18534 -6.54796)
(-1.17737 -4.00804 -5.64978)
(-1.51777 -7.08877 -1.34977)
(-1.15497 -5.48182 -4.52589)
(-0.15816 -2.65662 -6.54869)
(0.10793 -1.77502 -7.02198)
(0.164176 -1.72661 -7.32192)
(-0.136183 -1.95734 -7.53377)
(-0.573022 -2.37855 -7.59617)
(-0.137858 -2.7859 -7.61003)
(0.158295 -3.29446 -7.63347)
(0.171066 -3.93972 -7.83372)
(0.0878395 -4.43398 -7.89357)
(0.050418 -4.68637 -7.79025)
(0.0528187 -4.63498 -7.98771)
(0.0223106 -4.93331 -8.54385)
(-1.42455 -5.27434 -8.84426)
(-3.20997 -5.83338 -5.68448)
(-0.714235 -3.93106 -2.49497)
(1.77997 -2.48662 0.907149)
(3.84442 1.06203 5.74064)
(-3.47284 -0.579049 10.2858)
(-2.37889 -5.36382 9.27361)
(-1.63335 -9.17723 9.5781)
(-1.63016 -11.3347 14.829)
(-0.103492 1.76254 -1.35074)
(-0.323714 0.921633 -0.819929)
(-0.495344 1.48143 -1.01446)
(-0.251781 1.66951 -0.959202)
(0.095399 2.14741 -0.962244)
(0.376097 2.21982 -0.584732)
(0.574173 2.48738 -0.221302)
(0.00899538 -3.03775 -0.347905)
(0.00203172 -3.56886 -0.429666)
(0.00229759 -4.12752 -0.412698)
(0.00265547 -4.63885 -0.726173)
(0.00301864 -5.28031 -1.07253)
(0.00335036 -6.30556 -1.0633)
(0.00354689 -7.50648 -0.114395)
(0.00365008 -8.38453 0.855428)
(-0.00885826 -8.65556 1.31715)
(-0.0209787 -8.322 1.67003)
(-0.0135651 -7.75436 2.02826)
(-0.00501484 -7.40631 2.16543)
(-0.0631358 -7.69789 1.28521)
(-0.458568 -3.47305 -8.30244)
(-0.228808 -0.876843 -9.81781)
(-0.098871 -1.41475 -10.2302)
(-0.0447419 -1.98904 -10.6792)
(-0.0105158 -3.03934 -11.2088)
(-0.000199625 -6.90244 -10.0217)
(-0.0463104 -10.7087 -2.53888)
(-0.0348504 -10.2414 0.635662)
(0.0361098 -9.63632 2.52329)
(0.176004 -9.11087 3.58181)
(0.509319 -8.6941 1.02585)
(0.272743 -1.88104 -7.05848)
(-0.168532 -0.0483177 -7.75724)
(-0.996039 0.597411 -7.71041)
(-1.10129 0.954233 -7.36137)
(0.977904 -0.887905 -7.33164)
(1.19872 -1.68051 -7.18489)
(-1.11539 -1.87922 -7.22431)
(-6.63896 -1.77294 -5.73582)
(-6.27896 -1.57648 -6.01838)
(-0.394574 -1.21321 -7.65779)
(3.56423 -2.32987 -7.18788)
(3.60255 -2.66487 -7.24079)
(-0.634333 -2.09247 -8.00119)
(-1.90711 -1.72484 -8.04719)
(-0.873565 -1.91818 -8.11044)
(-0.228031 -2.3096 -8.11893)
(-0.193632 -2.8705 -8.20384)
(-0.0816959 -3.44191 -8.32537)
(-0.0104734 -3.86107 -8.57573)
(0.0687663 -4.56338 -8.83297)
(0.679959 -5.48828 -8.97767)
(1.58503 -4.34083 -5.81195)
(0.0718641 -6.61497 -3.09058)
(0.276488 -5.09968 -1.52498)
(-0.0245734 -2.94978 -2.12512)
(-1.71341 -2.93143 1.56229)
(-3.05694 -7.87925 10.972)
(-2.22596 -8.07566 12.3494)
(-1.70465 -9.73705 15.1585)
(0.000893598 3.48015 -18.2724)
(0.00157732 -0.32889 -3.53443)
(0.00246898 -1.0927 -1.58447)
(0.0032213 -2.49164 -1.84276)
(0.0037016 -2.81438 -1.71006)
(0.00446506 -3.69679 -1.9099)
(0.00491192 -4.136 -1.95628)
(0.00491599 -4.48586 -1.97968)
(0.00508606 -4.75242 -2.02298)
(0.00412718 -4.98123 -2.09569)
(-0.00170785 -5.14535 -2.15616)
(-0.0155914 -5.34636 -2.24668)
(-0.007679 -5.79047 -2.38869)
(0.0119474 -6.43683 -2.66288)
(0.0170828 -6.94972 -2.92364)
(0.0109301 -7.27055 -3.18329)
(-0.00208723 -6.95427 -3.21622)
(-0.125555 -6.41695 -3.23838)
(-0.385783 -5.93197 -3.47346)
(-0.803836 -6.02683 -3.5657)
(-0.913633 -6.42833 -3.48624)
(-0.514596 -6.88096 -3.30121)
(-0.146032 -7.30348 -3.2161)
(-0.0307819 -7.55417 -3.39375)
(0.0638971 -7.69042 -3.6774)
(0.195496 -7.71641 -4.00577)
(0.197697 -7.71269 -3.62648)
(0.104097 -7.39554 -3.0822)
(0.0800958 -6.9639 -2.81919)
(0.0775676 -6.77156 -2.74005)
(0.0708497 -6.86634 -2.83387)
(0.0698863 -7.11289 -2.97198)
(0.0726397 -7.22928 -3.07493)
(0.0527145 -7.28946 -3.1265)
(0.0193772 -7.38289 -3.14323)
(-0.00848941 -7.55992 -3.16498)
(-0.0533278 -7.67131 -3.2229)
(-0.0438895 -7.53642 -3.24137)
(0.0277446 -7.19921 -3.04114)
(0.0306767 -6.95094 -2.68222)
(-0.0122887 -6.62427 -2.86718)
(-0.0518369 -6.42964 -2.98526)
(-0.0617733 -6.30818 -3.02585)
(-0.0598277 -6.30612 -2.90926)
(-0.0510787 -6.42706 -2.77531)
(-0.0347466 -6.59253 -2.70597)
(-0.0202022 -6.76234 -2.68153)
(-0.0139866 -6.90256 -2.67555)
(-0.0060594 -7.0189 -2.68095)
(0.0061587 -7.13805 -2.76158)
(0.0181838 -7.30867 -2.89761)
(0.0353385 -7.60894 -3.06086)
(0.0249972 -8.27149 -3.72593)
(-0.00327288 -8.73136 -3.85392)
(-0.0341279 -7.91134 -3.13298)
(-0.0270284 -4.69738 -0.975357)
(-0.205882 -4.09003 1.49041)
(-2.18255 -6.21575 10.9539)
(-1.68744 -7.30781 12.8089)
(-1.5886 -7.47401 14.1576)
(0.000701182 6.04878 -19.5001)
(0.00123894 0.899474 -3.7513)
(0.00208628 -1.1073 -1.64465)
(0.00258592 -2.52199 -1.63979)
(0.00287748 -2.98239 -1.31963)
(0.00313972 -3.51465 -1.21325)
(0.00106967 -3.85604 -1.15838)
(-0.00340762 -4.05219 -1.03929)
(-0.00536079 -4.10487 -0.873728)
(-0.00538182 -4.13126 -0.758044)
(-0.00883983 -4.09957 -0.708463)
(-0.0219879 -4.09979 -0.756398)
(-0.0306975 -4.26508 -0.874232)
(-0.00440803 -4.57629 -0.98444)
(0.0236283 -4.87247 -1.038)
(0.0293687 -5.25628 -1.29093)
(0.0137791 -5.69767 -1.69063)
(-0.00454389 -5.79565 -2.0799)
(-0.108596 -5.95903 -2.12633)
(-0.428038 -6.21355 -1.83892)
(-1.35797 -6.15574 -1.50296)
(-1.73882 -5.83441 -1.68675)
(-0.734645 -5.76733 -1.93486)
(-0.150085 -5.8553 -1.71003)
(0.0243917 -5.93387 -1.66132)
(0.19304 -6.02442 -1.75771)
(0.359424 -6.1142 -1.84001)
(0.169569 -6.27515 -1.56249)
(0.0511176 -6.32149 -1.45388)
(0.036025 -6.32561 -1.47736)
(0.0303563 -6.47767 -1.54836)
(0.0277989 -6.62439 -1.59447)
(0.0387261 -6.68516 -1.63352)
(0.0610961 -6.69799 -1.66757)
(0.0719547 -6.67195 -1.67914)
(0.0499891 -6.68495 -1.70772)
(0.0166425 -6.88365 -1.79125)
(-0.00206452 -7.12504 -1.87892)
(-0.0280259 -6.90652 -1.81866)
(-0.0622649 -6.48107 -1.69414)
(-0.0693286 -6.1163 -1.66434)
(-0.0810514 -5.8184 -1.65026)
(-0.0785985 -5.67754 -1.53376)
(-0.0508857 -5.65953 -1.42789)
(-0.0192919 -5.67559 -1.39845)
(-0.00137747 -5.7178 -1.42357)
(0.00409945 -5.75756 -1.45004)
(0.00504281 -5.75125 -1.43373)
(0.00612691 -5.79356 -1.4219)
(0.00821351 -5.87629 -1.42233)
(0.0117415 -5.95713 -1.43256)
(0.0178762 -6.15344 -1.48021)
(0.0123547 -6.79317 -1.77513)
(-0.0035861 -7.34003 -1.9799)
(-0.0297336 -6.74128 -1.51613)
(-0.0285266 -4.51777 -0.00433644)
(-0.209766 -3.5438 2.54371)
(-1.80159 -5.00255 10.0151)
(-1.46473 -4.90247 12.4131)
(-1.56357 -5.49203 14.4935)
(0.000199389 4.00654 -11.7284)
(0.000329173 0.611882 -0.656887)
(0.000775148 -1.98382 -0.396663)
(0.00101805 -3.058 -0.615978)
(0.00112973 -3.5741 -0.694093)
(0.00123677 -4.04804 -0.791374)
(0.00133232 -4.4879 -0.869848)
(0.00140747 -4.82761 -0.928844)
(0.00145534 -4.94631 -0.978053)
(0.000889582 -4.88067 -1.0619)
(-0.00402893 -4.71958 -1.16485)
(-0.0238368 -4.6343 -1.10427)
(-0.0410984 -4.68896 -0.864253)
(-0.0102724 -4.77681 -0.756967)
(0.0119844 -4.87106 -0.767495)
(0.0174773 -4.73757 -0.998376)
(0.00925756 -4.73267 -1.31091)
(0.000126097 -5.39601 -1.61704)
(-0.104662 -6.29689 -1.18579)
(-3.30859 -0.908669 4.07891)
(-6.11415 -2.16208 1.86927)
(-5.8475 -3.14735 1.05105)
(-2.59452 -5.22568 0.0609229)
(-0.337109 -5.54495 -0.668131)
(-0.0134945 -5.64016 -0.845529)
(0.175306 -5.48346 -1.85724)
(0.420565 -4.41602 -3.81005)
(0.368025 -3.94665 -4.41891)
(0.147472 -5.77614 -2.58011)
(0.0770004 -6.62803 -1.26014)
(0.0516907 -6.99075 -1.27935)
(0.0259887 -7.09959 -1.41219)
(0.0142221 -6.87952 -1.42653)
(0.02109 -6.75086 -1.46123)
(0.0279163 -6.75213 -1.54573)
(0.0202871 -6.86862 -1.63376)
(0.006789 -6.99977 -1.64429)
(-0.00162988 -7.04253 -1.5673)
(-0.00675157 -7.00598 -1.49021)
(0.0210186 -6.99801 -1.10177)
(0.0152749 -6.87934 -0.673589)
(-0.0418326 -6.65418 -0.644845)
(-0.038208 -6.40574 -0.907666)
(-0.0208493 -6.26539 -1.28583)
(-0.0115366 -6.20541 -1.51925)
(-0.0053638 -6.17183 -1.49092)
(-0.00266163 -6.10424 -1.46661)
(-0.00253123 -6.01548 -1.38424)
(-0.00382428 -5.91981 -1.28178)
(-0.00380823 -5.78528 -1.20865)
(0.00014557 -5.58613 -1.13478)
(0.00720054 -5.42023 -1.03844)
(0.00933407 -5.4602 -1.07433)
(0.00711822 -5.83042 -1.4631)
(-0.00445566 -5.18869 -1.30205)
(-0.0188258 -3.95333 -0.399099)
(-0.270048 -3.11315 1.79072)
(-2.01425 -4.33827 8.64009)
(-1.74481 -3.06942 13.0934)
(-1.59656 -3.71128 14.5693)
(-0.465008 2.88204 -2.39906)
(-1.1366 0.910897 -0.45098)
(-1.20327 0.704663 -1.40812)
(-0.168401 -1.89551 -2.00056)
(0.0666635 -2.61966 -1.97876)
(0.0502616 -3.30553 -2.15737)
(0.00391767 -3.67614 -2.38012)
(-0.0119239 -3.63595 -2.85054)
(-0.0283091 -3.42574 -3.42036)
(-0.0710341 -3.75304 -3.70129)
(-0.121931 -4.35432 -3.74206)
(-0.109649 -5.00317 -3.42969)
(-0.060442 -5.24193 -2.95551)
(-0.0120976 -4.95716 -2.47329)
(0.0152487 -4.41431 -2.19855)
(0.0204206 -3.81233 -2.19404)
(0.00365025 -3.91795 -2.55033)
(-0.130324 -0.566019 -5.86875)
(-0.0967582 -2.03734 -6.41632)
(-0.0532464 -2.62679 -6.5107)
(-0.00806521 -3.48399 -6.03171)
(-0.018083 -3.69695 5.18102)
(-0.107795 -2.72764 5.54046)
(-0.621351 -1.98802 5.19088)
(-4.91871 -1.16639 3.77956)
(-7.48807 -1.49854 1.07098)
(-0.310213 -4.29369 -3.34934)
(0.597534 -4.34134 -3.45444)
(0.95623 -4.80382 -3.35966)
(1.31093 -5.47216 -3.29134)
(1.31863 -7.06896 -2.52949)
(0.0115606 -8.24912 -1.43746)
(-0.0657591 -7.71836 -2.05166)
(-0.0405223 -7.14298 -2.45712)
(0.0146699 -6.84381 -2.76088)
(-0.0702593 -6.66349 -2.95726)
(-0.698212 -6.52354 -2.75489)
(-2.01192 -5.48805 -4.04746)
(5.53838 -4.34386 -4.05177)
(4.28778 -5.86864 -2.82665)
(0.49543 -7.13165 -0.619408)
(-0.133882 -5.3409 -4.59561)
(-2.48067 -4.80781 -4.76201)
(-6.39903 -4.40465 -2.88536)
(-5.77245 -4.86146 -2.8337)
(-0.0488665 -3.37709 -6.00394)
(3.38387 -3.26206 -5.4619)
(5.01724 -5.38618 -1.3911)
(1.33924 -6.23485 -0.134564)
(-0.385723 -6.01357 0.109904)
(0.658853 -5.47193 0.740699)
(0.518416 -4.99481 1.05503)
(-0.55916 -4.76613 0.00486718)
(-0.592085 -4.0999 -2.94517)
(0.269786 -3.33417 -2.3975)
(0.05062 -3.01557 0.252705)
(-0.786628 -2.99917 2.32058)
(-3.55155 -0.399812 10.7353)
(-2.273 -1.4266 14.8928)
(-1.40098 -1.68951 15.3088)
(-0.448894 -3.02172 -2.40467)
(-1.06885 -0.465664 -0.186966)
(-1.5922 0.963149 -0.559625)
(-0.469014 -2.02254 -1.5283)
(-0.135527 -2.22375 -0.479004)
(-0.135041 -2.41238 -0.272894)
(-0.273008 -2.73334 -0.545517)
(-0.69576 -2.6449 -2.23659)
(-0.879161 -1.91612 -3.5128)
(-0.614515 -2.70247 -3.20808)
(-0.142202 -3.45267 -2.0023)
(0.0512282 -3.61113 -0.474418)
(0.0243469 -3.7089 0.745476)
(0.00302157 -3.99393 1.45899)
(-0.00784971 -4.42312 1.26832)
(-0.0601902 -4.34067 -1.26292)
(-0.107394 -1.88018 -4.76929)
(-0.0983681 -1.93346 -5.52442)
(-0.0600427 -3.10583 -5.86657)
(0.0686914 -4.06281 -6.15314)
(0.634526 -4.22834 -6.17268)
(4.34959 -4.19141 -4.19514)
(0.0383607 0.00312946 4.91388)
(-4.01164 -3.08719 3.68858)
(-4.59219 -2.05264 2.9157)
(-4.39884 -1.49553 3.88691)
(-2.44709 -3.79101 4.03764)
(-0.276113 -5.54901 0.77373)
(1.77104 -4.82228 -1.9424)
(2.79486 -3.9585 -3.17862)
(4.16188 -3.64093 -3.61974)
(2.734 -7.5508 0.379803)
(-0.0069988 -7.38156 2.57032)
(0.00566446 -6.89045 2.54627)
(0.0130623 -6.68331 2.57725)
(-0.0366547 -6.73793 2.6582)
(-0.700082 -6.95272 3.02701)
(-2.97185 -5.88722 5.48052)
(-0.0524169 -4.68713 6.97002)
(6.94742 -6.00299 -0.544569)
(2.83433 -7.02412 -0.380546)
(-1.44355 -6.52526 1.55816)
(-0.832293 -6.1639 1.75753)
(-0.528737 -5.53696 2.87178)
(-2.73044 -4.06034 4.32346)
(-2.44894 -3.64551 4.86451)
(2.86363 -4.02048 4.50352)
(3.52813 -5.24731 2.27774)
(-0.0214596 -5.81 -0.196861)
(-0.503892 -4.99658 -0.822944)
(0.831736 -3.66946 -1.95815)
(0.65312 -2.07507 -2.45584)
(-1.12919 -0.640986 -2.31126)
(-1.98162 0.857091 -3.56283)
(0.5534 3.50868 -3.7863)
(0.11021 0.040715 1.16468)
(-0.95848 -0.504228 3.63991)
(-3.54885 -0.566671 9.53096)
(-2.18693 -1.09594 14.1854)
(-0.340142 -0.254368 16.0405)
(-9.54918e-05 -5.9544 -11.9227)
(-0.000187732 -2.92363 -1.26399)
(-0.00170931 -2.801 0.429774)
(-0.00175026 -3.17812 0.474093)
(-0.000563235 -3.02565 0.257574)
(-0.0017811 -2.94757 0.0440255)
(-0.00370798 -2.95637 -0.0524135)
(-0.00549351 -3.04325 -0.0552921)
(-0.00722664 -3.08885 -0.0734785)
(-0.0117223 -3.11326 -0.12331)
(-0.0223987 -3.24936 -0.100604)
(-0.0418481 -3.55065 0.111054)
(-0.0680453 -3.85254 0.503428)
(-0.0988426 -4.03223 0.717479)
(-0.12207 -4.00896 0.898265)
(-0.171218 -4.20795 0.602145)
(-0.214543 -4.36254 -0.862486)
(-0.126921 -4.61369 -1.53404)
(0.146993 -5.1522 -2.00795)
(0.857391 -6.04331 -2.22581)
(2.825 -6.86903 -1.83215)
(5.46883 -5.90678 -1.13054)
(3.92998 -5.98829 -2.32247)
(-2.54717 -5.68809 -1.8255)
(-3.10762 0.890501 4.41796)
(-3.62221 0.952466 3.80148)
(-4.17548 0.484703 4.37385)
(-2.65015 -3.19082 3.95797)
(0.185833 -4.84763 2.32952)
(2.21313 -5.19213 0.51115)
(2.9377 -5.38491 -0.385664)
(2.48122 -5.87498 -0.736786)
(0.138857 -7.07062 1.42471)
(0.00278896 -7.06163 1.39365)
(0.00921784 -6.95364 1.34205)
(0.0167843 -6.99462 1.33766)
(0.0176206 -7.13232 1.35999)
(0.00910649 -7.40816 1.46761)
(-0.00338263 -7.64062 1.5818)
(-0.0360197 -7.39713 1.72582)
(-0.219853 -6.92731 1.55651)
(-0.20871 -6.53119 1.43661)
(-0.0470253 -6.25168 1.32232)
(-0.00427894 -6.15996 1.17596)
(-0.0145551 -6.15981 1.17978)
(-0.0148024 -6.10046 1.26472)
(-0.00738611 -5.98405 1.19696)
(-0.00267827 -5.69915 1.12238)
(-0.00436759 -5.20084 1.05607)
(-0.00867753 -4.66318 0.976629)
(-0.00402728 -3.95975 0.840588)
(0.00523385 -2.95712 0.685284)
(-0.00115893 -1.41732 0.191762)
(-0.0282321 -0.240664 -0.530852)
(-0.0176622 0.430067 -0.671593)
(-0.01463 0.0891108 0.572051)
(-0.304971 -0.572256 2.88287)
(-1.82917 1.1329 8.32806)
(-1.4827 0.409841 13.0657)
(-0.0753162 2.71048 14.6077)
(-0.00017138 -7.80885 -19.9694)
(-0.000251863 -3.25458 -5.7563)
(-0.0329032 -2.43744 -1.83346)
(-0.105724 -2.09846 -0.586378)
(-0.131881 -2.10829 -0.276586)
(-0.224047 -2.14817 -0.636755)
(-0.576882 -1.57545 -2.1888)
(-1.39361 -0.251555 -3.05781)
(-2.44446 0.474864 -2.93719)
(-2.11797 -1.11849 -2.28019)
(-0.438547 -2.41612 -0.0526765)
(-0.190594 -2.37328 0.348781)
(-0.177944 -2.38593 0.592877)
(-0.400455 -2.75774 0.978782)
(-1.0955 -3.24235 1.30858)
(-0.926079 -3.78132 1.85894)
(-0.346668 -4.41807 1.86912)
(0.0381934 -5.14714 1.77545)
(0.364583 -5.88696 1.76624)
(0.727609 -6.71238 1.82741)
(1.48886 -7.59817 1.73818)
(2.03864 -8.40711 1.20003)
(0.392409 -8.56031 1.1888)
(-0.114322 -7.83536 1.73873)
(-0.566579 -7.20192 2.1765)
(-2.57499 -6.7547 2.7758)
(-2.91535 -0.317409 5.60085)
(-1.58822 0.583605 5.27176)
(-1.80032 -2.21712 5.34333)
(-0.360846 -4.81311 3.45266)
(1.3527 -5.18157 2.43557)
(3.55344 -5.06236 2.32452)
(5.12908 -4.87551 2.43626)
(0.414098 -6.4084 1.79087)
(0.000562673 -6.80433 1.46449)
(-0.0101409 -7.05334 1.39021)
(-0.0135077 -7.25353 1.35492)
(0.0153452 -7.2751 1.32285)
(0.17254 -7.07004 1.3697)
(0.815325 -6.97356 0.628962)
(0.124485 -2.22543 -6.44938)
(-0.11183 -2.39595 -6.31127)
(-0.507283 -4.46822 -4.84232)
(-0.776125 -6.1419 1.43241)
(-0.531933 -6.00755 1.47423)
(-0.240393 -5.83027 0.851933)
(-0.0201477 -5.33747 0.630261)
(0.0939039 -4.34512 0.371566)
(0.100148 -3.1156 0.0730216)
(0.0420161 -1.9206 -0.0587071)
(0.0119316 -0.814872 -0.34119)
(-1.99531e-05 0.427606 -0.750821)
(-0.0313317 1.79852 -1.13095)
(-0.0956753 2.57681 -1.17168)
(-0.0617359 2.7687 -0.746523)
(-0.01443 1.20104 0.390279)
(-0.387494 -0.376487 3.33246)
(-2.18421 2.1594 10.5887)
(-1.45389 2.93752 13.7008)
(-0.0400117 5.77662 16.9996)
(-0.000269784 -3.78645 -18.1782)
(-0.00042132 -1.82089 -4.95586)
(-0.014073 -3.05118 -0.952355)
(-0.101852 -3.06622 0.263759)
(-0.235166 -3.64666 1.1446)
(-0.299315 -3.90278 1.61219)
(-0.208764 -4.32552 1.89993)
(-0.180086 -4.75453 2.13317)
(-0.229707 -5.08179 2.45083)
(-0.410492 -5.27806 2.87081)
(-0.997335 -5.51124 2.98534)
(-2.16758 -5.60219 2.86216)
(-2.73853 -5.67216 2.68835)
(-1.38838 -6.05058 2.99995)
(-0.222011 -6.43151 3.43104)
(0.103181 -6.96667 3.92609)
(0.328547 -7.10015 5.28342)
(0.444928 -6.01306 7.09849)
(0.190522 -2.38727 8.35939)
(0.011277 -0.28881 8.35189)
(-0.00594853 -1.60822 9.11954)
(-0.27299 -8.80143 6.14635)
(-0.562699 -10.3266 4.11398)
(-0.576162 -10.3671 3.32576)
(-0.480417 -10.1509 2.5852)
(-0.328515 -10.0073 3.275)
(-0.259803 -9.77901 3.71714)
(-0.39493 -8.52736 3.91519)
(-0.476849 -5.90457 5.65773)
(-0.143125 -2.76123 7.41898)
(0.564769 -1.79502 7.64342)
(2.5043 -2.6019 6.71132)
(3.34119 -4.81912 3.32248)
(0.385293 -6.17999 2.52283)
(-0.0147062 -6.78678 2.59116)
(0.0474333 -6.83385 2.57111)
(0.135264 -6.55185 2.46371)
(0.178407 -6.19955 2.39466)
(-0.164288 -6.29663 1.86348)
(-5.87246 -2.79904 -5.04793)
(-4.06398 1.65048 -6.44702)
(1.79324 1.92504 -6.73957)
(8.58471 1.60198 -3.21101)
(9.14785 1.89621 0.0409278)
(-4.66443 4.03852 3.35459)
(-6.23818 3.78698 1.96868)
(-3.22078 6.08881 1.06799)
(0.742891 7.12485 -0.181358)
(5.36207 5.00389 -0.400369)
(4.50498 3.67939 0.525649)
(0.735819 0.859185 0.590281)
(-0.206633 1.27555 -0.351943)
(-1.32358 2.94991 -1.87483)
(-1.0104 3.92876 -1.88332)
(-0.16907 3.69839 -0.987062)
(0.000101967 1.32724 0.0919353)
(-0.377083 -0.0189481 3.04695)
(-2.30601 3.63095 11.2025)
(-1.2383 4.88683 13.7527)
(0.197882 6.96511 16.0217)
(-0.00819634 -1.13886 -1.02758)
(-0.0073876 -0.492484 -0.630861)
(0.0155733 -0.516386 -0.869485)
(0.000462906 -0.851164 0.714431)