/*--------------------------------*- C++ -*----------------------------------*\
| =========                 |                                                 |
| \\      /  F ield         | OpenFOAM: The Open Source CFD Toolbox           |
|  \\    /   O peration     | Version:  2.1.1                                 |
|   \\  /    A nd           | Web:      www.OpenFOAM.org                      |
|    \\/     M anipulation  |                                                 |
\*---------------------------------------------------------------------------*/
FoamFile
{
    version     2.0;
    format      ascii;
    class       volScalarField;
    location    "0.00115";
    object      alpha1;
}
// * * * * * * * * * * * * * * * * * * * * * * * * * * * * * * * * * * * * * //

dimensions      [0 0 0 0 0 0 0];

internalField   nonuniform List<scalar> 
36520
(
-1.81108e-12
-1.95581e-13
-2.84495e-13
-3.8322e-13
-5.46952e-13
-7.7572e-13
-1.01447e-12
-1.14543e-12
-1.15848e-12
-1.14949e-12
-1.19207e-12
-1.28478e-12
-1.41474e-12
-1.57574e-12
-1.77816e-12
-2.02986e-12
-2.35428e-12
-2.78484e-12
-3.36674e-12
-4.14947e-12
-5.18092e-12
-6.50286e-12
-8.13967e-12
-1.00743e-11
-1.22327e-11
-1.4475e-11
-1.66099e-11
-1.84428e-11
-1.98655e-11
-2.09968e-11
-2.22787e-11
-2.44744e-11
-2.84885e-11
-3.50584e-11
-4.4429e-11
-5.62117e-11
-6.95251e-11
-8.29451e-11
-9.45948e-11
-1.02383e-10
-1.0506e-10
-1.03235e-10
-9.71714e-11
-8.08242e-11
-4.51342e-11
-1.32345e-11
5.93436e-13
1.09075e-11
3.45264e-11
-1.36907e-12
-1.80244e-12
-2.23291e-12
-1.48858e-13
-2.81442e-15
-2.20155e-17
-1.34815e-19
-7.27605e-22
-3.36053e-24
-1.20086e-26
-2.18128e-29
-4.6266e-12
-3.50084e-12
-4.40992e-12
-5.62666e-12
-7.19562e-12
-8.69757e-12
-9.87765e-12
-1.03013e-11
-1.04317e-11
-1.05632e-11
-1.10516e-11
-1.17682e-11
-1.27783e-11
-1.40167e-11
-1.55812e-11
-1.75337e-11
-2.00512e-11
-2.33091e-11
-2.74105e-11
-3.24901e-11
-3.84862e-11
-4.53176e-11
-5.26614e-11
-6.00131e-11
-6.65237e-11
-7.12178e-11
-7.2997e-11
-7.09871e-11
-6.47833e-11
-5.52013e-11
-4.43308e-11
-3.5067e-11
-2.97633e-11
-2.8754e-11
-3.05859e-11
-3.34502e-11
-3.64816e-11
-3.95136e-11
-4.20678e-11
-4.27038e-11
-4.00967e-11
-3.41601e-11
-2.42348e-11
-1.45975e-11
-1.33771e-14
2.37091e-09
3.05352e-08
9.84886e-08
1.56471e-07
6.34789e-08
4.18325e-09
-2.21811e-11
-2.32005e-12
-8.25322e-14
-9.57447e-16
-7.90616e-18
-5.23225e-20
-2.80921e-22
-1.09214e-24
-2.03473e-27
-1.18774e-11
-1.04199e-11
-1.23275e-11
-1.47661e-11
-1.73911e-11
-1.89408e-11
-1.93647e-11
-1.79274e-11
-1.63873e-11
-1.47475e-11
-1.35878e-11
-1.26398e-11
-1.19463e-11
-1.14451e-11
-1.12609e-11
-1.15011e-11
-1.22497e-11
-1.35301e-11
-1.52295e-11
-1.72661e-11
-1.95029e-11
-2.18346e-11
-2.40216e-11
-2.57563e-11
-2.65498e-11
-2.58137e-11
-2.38103e-11
-1.76201e-11
-1.01975e-11
-3.40151e-12
1.15956e-19
4.70632e-20
6.20793e-21
2.73337e-20
1.44936e-19
3.76282e-19
8.08198e-19
2.19493e-18
7.31707e-18
1.82786e-17
-8.6342e-18
1.22077e-14
5.87664e-11
3.45084e-08
2.62171e-07
1.47315e-06
5.49183e-06
1.13153e-05
1.31257e-05
5.44229e-06
5.26529e-07
-1.33782e-10
-1.51113e-11
-1.10251e-12
-1.93042e-14
-2.17971e-16
-1.80573e-18
-1.14769e-20
-4.55992e-23
-8.58925e-26
-1.7938e-11
-1.41338e-11
-1.49445e-11
-1.60299e-11
-1.70565e-11
-1.7057e-11
-1.71846e-11
-1.20932e-11
-8.63729e-12
-5.35487e-12
-2.41492e-12
-3.40199e-13
-6.08609e-20
-5.96904e-20
-7.1281e-20
-6.72657e-20
-1.74263e-19
-9.15096e-20
4.18831e-14
-8.13124e-19
-7.53475e-19
-1.31055e-19
5.66819e-19
2.02137e-18
-5.62227e-18
2.62611e-16
6.36617e-10
3.76506e-09
7.51404e-09
1.25557e-08
1.82257e-08
2.36594e-08
2.74275e-08
2.8856e-08
2.81698e-08
2.62749e-08
2.49424e-08
2.60579e-08
3.08532e-08
4.29462e-08
7.29638e-08
1.52785e-07
3.87892e-07
1.2371e-06
4.66668e-06
1.84096e-05
6.47241e-05
0.000135003
0.000133155
5.87334e-05
5.75369e-06
-2.41351e-09
-5.72418e-11
-9.16486e-12
-2.52816e-13
-4.03661e-15
-4.56836e-17
-3.29476e-19
-1.42171e-21
-2.87497e-24
-1.72762e-11
-1.13471e-11
-9.68936e-12
-8.68535e-12
-1.18247e-11
-2.37083e-11
-3.67847e-11
-3.55654e-13
-7.99936e-15
1.61322e-12
3.54892e-11
1.63751e-10
4.4475e-10
9.23731e-10
1.65739e-09
2.7522e-09
4.36457e-09
6.60469e-09
9.6538e-09
1.38492e-08
1.96956e-08
2.83241e-08
4.22139e-08
6.56578e-08
1.04847e-07
1.69098e-07
2.69671e-07
4.19818e-07
6.08922e-07
8.13169e-07
1.00659e-06
1.16066e-06
1.24148e-06
1.2838e-06
1.20764e-06
1.05456e-06
8.90778e-07
7.63015e-07
7.0561e-07
7.66395e-07
1.03747e-06
1.76894e-06
3.77458e-06
9.8205e-06
2.72892e-05
7.97244e-05
0.000258812
0.000644143
0.000691192
0.000400369
9.78556e-05
3.78157e-06
-9.90067e-11
-5.0342e-11
-2.43405e-12
-5.77323e-14
-7.97697e-16
-6.69746e-18
-3.25317e-20
-7.2792e-23
-9.80242e-12
2.37716e-18
1.29321e-11
2.47076e-11
2.79733e-11
1.23005e-12
-6.04227e-12
6.09436e-10
2.01311e-09
3.12264e-09
4.79355e-09
7.95925e-09
1.42059e-08
2.60729e-08
4.60719e-08
7.67149e-08
1.21789e-07
1.8168e-07
2.64295e-07
3.78267e-07
5.35909e-07
7.51166e-07
1.09831e-06
1.7922e-06
3.03e-06
4.81971e-06
6.80957e-06
8.83888e-06
1.06703e-05
1.17418e-05
1.16141e-05
1.11896e-05
1.10765e-05
1.15826e-05
1.22572e-05
1.30746e-05
1.38325e-05
1.47828e-05
1.59859e-05
1.73204e-05
2.12455e-05
3.09319e-05
5.48305e-05
0.000123918
0.000279711
0.000597073
0.00163539
0.00420946
0.00611907
0.00593934
0.00285819
0.000185131
6.85411e-08
-1.57758e-10
-1.78847e-11
-5.75451e-13
-9.76762e-15
-9.71528e-17
-5.4355e-19
-1.37409e-21
-3.36193e-17
3.94803e-10
1.43164e-09
9.17619e-09
1.76257e-08
5.46104e-08
1.19788e-07
3.62816e-08
7.25728e-08
1.20784e-07
1.83271e-07
2.98677e-07
5.07495e-07
8.48657e-07
1.28812e-06
1.78445e-06
2.30662e-06
2.91027e-06
3.66314e-06
4.62791e-06
5.7674e-06
6.9753e-06
8.33257e-06
1.01909e-05
1.29124e-05
1.58631e-05
2.01734e-05
2.74694e-05
3.16252e-05
3.21904e-05
3.38034e-05
3.80044e-05
3.8005e-05
3.23519e-05
3.07276e-05
3.30932e-05
3.6098e-05
3.82357e-05
4.37445e-05
5.97895e-05
9.89156e-05
0.000163106
0.00026269
0.000471584
0.00103953
0.00367974
0.0142461
0.0321234
0.055351
0.0547252
0.0236538
0.00142922
2.19391e-06
-3.1955e-10
-9.28259e-11
-4.09774e-12
-8.5726e-14
-1.01332e-15
-6.59466e-18
-1.89764e-20
7.68249e-09
2.52376e-08
4.3227e-09
9.69785e-09
7.26878e-06
1.8651e-05
2.9003e-05
1.23366e-05
1.49292e-06
1.46002e-06
2.42651e-06
3.61914e-06
5.27384e-06
7.48356e-06
9.67105e-06
1.17026e-05
1.36807e-05
1.54718e-05
1.75122e-05
1.93627e-05
2.17121e-05
2.4558e-05
2.76289e-05
3.10113e-05
3.52586e-05
4.09927e-05
4.86734e-05
5.83571e-05
6.94376e-05
8.26103e-05
0.000101711
0.000136083
0.000180062
0.000189546
0.000179155
0.000153405
0.000133809
0.000129885
0.000123994
0.000104518
8.40243e-05
0.000100428
0.000165186
0.000221863
0.000286228
0.000667631
0.00555868
0.0950816
0.324187
0.265433
0.0661006
0.00259285
4.71817e-06
-2.81653e-09
-4.48594e-10
-2.27438e-11
-5.56844e-13
-7.65916e-15
-5.75887e-17
-1.89695e-19
2.50643e-16
7.05119e-15
1.47606e-16
1.09597e-12
0.000231126
0.000611494
0.000586635
0.000281637
9.03392e-05
3.72999e-05
2.88614e-05
3.84975e-05
5.52723e-05
7.33133e-05
7.80535e-05
6.01317e-05
4.62081e-05
4.6381e-05
5.02687e-05
5.35236e-05
5.72268e-05
6.22778e-05
6.97202e-05
8.06008e-05
9.89851e-05
0.000130257
0.000178283
0.000242953
0.000317322
0.00039146
0.00045738
0.000519833
0.000589779
0.000668144
0.000744038
0.000795492
0.00081556
0.000829926
0.000829256
0.000752258
0.00051285
0.000199915
0.000139868
0.00013996
0.000139896
0.000139962
0.0014877
0.103758
0.623398
0.498756
0.102104
0.00368033
8.28383e-06
-8.64821e-09
-1.63012e-09
-1.02235e-10
-3.00165e-12
-4.81521e-14
-4.15424e-16
-1.56592e-18
1.22671e-15
1.98647e-16
7.61389e-15
6.29608e-14
4.15573e-05
0.000143982
0.000279781
0.00025712
0.000112256
6.8846e-05
8.49982e-05
0.000119918
0.000166315
0.000206907
0.000225025
0.000232544
0.000221846
0.000196591
0.000162945
0.00011773
9.40023e-05
9.92101e-05
0.000120677
0.000159045
0.00020561
0.000262926
0.000344398
0.000469966
0.000625886
0.000742555
0.000795782
0.000819242
0.000843953
0.000865091
0.00088405
0.000900144
0.000915572
0.000935221
0.000911513
0.000816471
0.000694038
0.000639375
0.000655403
0.000649016
0.000435104
0.000180845
0.00204581
0.111527
0.566675
0.420713
0.0809582
0.00282488
5.34873e-06
-6.95283e-09
-1.77459e-09
-1.15611e-10
-3.48057e-12
-5.68892e-14
-4.95691e-16
-1.87246e-18
8.62061e-16
3.09591e-14
-1.03505e-13
3.544e-14
5.71088e-05
0.000390121
0.000703191
0.000498852
0.00011626
1.05305e-05
1.01048e-05
1.00354e-05
2.37755e-05
4.50979e-05
6.42744e-05
7.62693e-05
8.26504e-05
7.87896e-05
6.67668e-05
5.88142e-05
6.28379e-05
8.98123e-05
0.000147939
0.000158977
0.000157752
0.000174594
0.000224314
0.000251561
0.00025402
0.00025372
0.000256897
0.000267619
0.000284148
0.000305179
0.000328599
0.000343435
0.000346889
0.000341157
0.000323824
0.000277084
0.000192274
0.000179217
0.000197542
0.000205722
0.000143971
0.000116348
0.00147
0.107263
0.642085
0.488604
0.090744
0.00272103
2.52671e-06
-7.95947e-09
-2.26288e-09
-1.34748e-10
-3.92684e-12
-6.34773e-14
-5.47337e-16
-2.03072e-18
3.91863e-07
3.94522e-07
5.61911e-08
-2.27614e-13
2.83437e-11
-1.10606e-10
3.63136e-05
2.97825e-06
3.39354e-06
4.93591e-06
1.55957e-05
2.11626e-05
2.3995e-05
2.62782e-05
2.81463e-05
3.05317e-05
3.81305e-05
4.93212e-05
4.78133e-05
3.25693e-05
4.0689e-05
0.000154811
0.00016581
0.000127721
7.58546e-05
0.00011412
0.000378912
0.000491277
0.000321108
0.000153255
0.000112616
0.000119824
0.000478325
0.000751377
0.000750912
0.000554489
0.000216438
0.000188985
0.000227881
0.000212181
0.000167562
0.00014244
0.000140082
0.000137212
0.000116361
0.000116318
0.000741275
0.0595084
0.69138
0.74921
0.211882
0.00898022
2.52321e-05
-2.68046e-08
-2.37228e-09
-1.22039e-10
-3.21137e-12
-4.59262e-14
-3.47612e-16
-1.12787e-18
2.72064e-07
1.25069e-06
2.08619e-06
8.88501e-06
0.000117657
0.000991753
0.00337051
0.00314765
0.00123875
0.000133992
1.33125e-05
1.63404e-05
1.70354e-05
1.26828e-05
1.18771e-05
1.18609e-05
1.18769e-05
1.79641e-05
2.54267e-05
2.62713e-05
2.92934e-05
0.000114178
0.000165873
0.00014281
7.57882e-05
7.57573e-05
8.75944e-05
0.000352858
0.000753103
0.000603952
0.000218836
0.000114493
0.000104254
0.00013011
0.000436209
0.000723872
0.000720957
0.000344662
0.000122254
0.000113814
0.000144302
0.000272836
0.000402487
0.000235741
0.000116319
0.000116327
0.00086402
0.0584809
0.651237
0.700118
0.210396
0.00956638
3.08155e-05
-2.72118e-08
-2.25743e-09
-1.15519e-10
-3.06971e-12
-4.42817e-14
-3.37096e-16
-1.09837e-18
-2.47206e-13
4.42034e-06
1.28381e-05
5.39248e-05
0.000494025
0.00420803
0.0180476
0.021538
0.0108435
0.0012345
1.68957e-05
4.23141e-06
4.31124e-06
1.30415e-05
3.86728e-05
7.68138e-05
9.43769e-05
9.1667e-05
8.05734e-05
5.91315e-05
4.31648e-05
5.1602e-05
7.33479e-05
6.35693e-05
7.84578e-05
0.000115575
0.00012351
0.000157678
0.000212729
0.000237265
0.000246669
0.000258794
0.000269644
0.000280866
0.000300069
0.000339809
0.000364158
0.000352442
0.00031425
0.000250787
0.000219267
0.000244841
0.000300379
0.000289888
0.000150848
0.000169395
0.00466787
0.186345
0.55443
0.328585
0.0487862
0.00108106
-6.88678e-08
-1.66289e-08
-1.67089e-09
-8.97874e-11
-2.66504e-12
-4.40647e-14
-3.8488e-16
-1.43819e-18
7.36534e-13
7.36835e-05
0.000108275
0.00029646
0.00114521
0.00525529
0.023032
0.0374797
0.0229161
0.00378034
9.16962e-05
3.77678e-05
6.80212e-05
0.000110282
0.000143118
0.000146609
0.000127424
8.01087e-05
6.94112e-05
8.51565e-05
8.50406e-05
5.7411e-05
2.18551e-05
1.43001e-05
3.32963e-05
0.000200497
0.000615446
0.000632595
0.000561001
0.000338694
0.000182903
0.000115171
8.74613e-05
0.000101728
0.000352332
0.000809997
0.000811118
0.000707532
0.000356184
0.000324961
0.000343199
0.000369111
0.000372848
0.000333474
0.000147828
0.000191266
0.00622303
0.229225
0.483428
0.227269
0.0217867
0.000238891
-4.66803e-08
-7.46295e-09
-7.614e-10
-4.15123e-11
-1.22467e-12
-1.99831e-14
-1.72345e-16
-6.38888e-19
5.82888e-14
-7.35153e-11
1.19205e-05
0.000217172
0.00169883
0.00757447
0.0111921
0.00633595
0.00123396
0.000122974
2.31118e-05
3.17231e-05
4.76909e-05
6.06934e-05
6.89769e-05
7.95171e-05
9.55722e-05
0.000110812
0.000129419
0.000123505
7.74738e-05
3.18801e-05
2.07438e-05
0.000110096
0.000567801
0.000617594
0.000617115
0.000351171
0.000220305
0.000240039
0.000278361
0.000452055
0.00131946
0.00187037
0.00097793
0.000261507
0.000219407
0.000243992
0.000291223
0.000310449
0.000295232
0.000299991
0.000273612
0.000176752
7.47311e-05
0.000144151
0.00696976
0.253071
0.547372
0.270978
0.0275667
0.000341752
-5.91128e-08
-7.76969e-09
-6.9481e-10
-3.52763e-11
-1.00035e-12
-1.59898e-14
-1.36619e-16
-5.05783e-19
1.00149e-10
5.0805e-10
1.47368e-12
1.36359e-11
3.366e-05
0.000177866
0.000181779
4.8049e-05
5.87504e-06
2.81211e-06
4.17185e-06
6.09649e-06
8.15106e-06
1.10787e-05
1.61708e-05
2.09204e-05
2.4562e-05
2.63439e-05
2.56944e-05
2.09434e-05
1.95212e-05
3.64917e-05
9.94125e-05
0.000122267
0.000120429
9.7762e-05
6.14876e-05
3.94931e-05
7.27811e-05
0.000297587
0.000478785
0.000478491
0.000478516
0.000392998
0.000189019
4.73625e-05
3.11278e-05
4.41958e-05
7.56525e-05
8.06001e-05
7.87056e-05
8.57314e-05
0.000107271
0.000104602
7.47433e-05
0.000346882
0.0105443
0.122057
0.243531
0.168948
0.0359836
0.00108242
7.12005e-07
-1.01572e-09
-3.20905e-10
-1.47958e-11
-3.50657e-13
-4.81629e-15
-3.64033e-17
-1.20791e-19
-2.51862e-11
1.43448e-10
5.06975e-10
1.24345e-09
-1.09546e-12
-1.12115e-10
-1.22096e-09
-4.8382e-09
-1.64644e-09
6.71117e-08
7.74952e-08
7.20917e-08
1.13108e-07
2.35159e-07
4.79425e-07
7.78755e-07
9.37771e-07
9.37603e-07
8.43944e-07
8.59973e-07
1.64166e-06
3.11491e-06
3.09151e-06
1.86069e-06
2.84751e-06
4.41812e-06
6.94673e-06
1.0785e-05
1.58298e-05
1.96826e-05
2.02151e-05
1.6496e-05
1.13989e-05
9.32981e-06
8.25092e-06
8.76736e-06
1.1165e-05
1.39521e-05
1.66413e-05
1.91772e-05
2.46444e-05
3.40431e-05
4.88755e-05
9.28828e-05
0.000334266
0.00240101
0.0116183
0.0278714
0.0472993
0.0475689
0.0206097
0.0011582
1.69796e-06
-2.27909e-10
-6.92165e-11
-2.93888e-12
-6.04115e-14
-7.0402e-16
-4.51477e-18
-1.28447e-20
-1.46214e-10
-1.2439e-10
-1.03288e-10
-2.83577e-11
-1.58761e-15
-1.27657e-10
-4.67357e-10
-3.72699e-10
-2.13902e-11
-7.25941e-13
1.27763e-14
5.19536e-17
1.13306e-16
-3.85587e-17
-1.03454e-17
-2.30075e-17
-7.20254e-16
-1.47564e-15
-5.85271e-16
-1.44821e-14
2.19912e-10
1.39472e-10
-2.35462e-16
3.79981e-18
1.10946e-17
5.98193e-19
-2.99379e-17
-9.53239e-17
-2.16314e-16
-5.60237e-16
-1.45404e-15
-2.42386e-15
-3.46972e-15
-5.47291e-15
-3.28143e-15
5.5136e-15
1.03863e-14
1.76807e-14
4.14429e-14
1.79223e-13
4.36023e-13
5.15834e-07
5.27872e-06
2.46751e-05
6.55783e-05
0.000165242
0.000613595
0.00232573
0.00495115
0.00654282
0.00447607
0.000405171
2.37696e-07
-2.1175e-11
-1.5325e-11
-5.02273e-13
-8.35268e-15
-8.08715e-17
-4.40187e-19
-1.08302e-21
-1.76332e-10
-2.03263e-10
-2.57162e-10
-3.0738e-10
-3.52288e-10
-3.92175e-10
-4.49859e-10
-4.94225e-10
-5.94248e-10
-7.26327e-10
-8.76137e-10
-1.01564e-09
-1.18248e-09
-1.37691e-09
-1.5851e-09
-1.79208e-09
-1.98655e-09
-2.1715e-09
-2.38509e-09
-2.64526e-09
-2.91666e-09
-3.18704e-09
-3.4126e-09
-3.61008e-09
-3.76029e-09
-3.83187e-09
-3.7949e-09
-3.64548e-09
-3.39875e-09
-3.0911e-09
-2.7623e-09
-2.43505e-09
-2.10697e-09
-1.75115e-09
-1.29292e-09
-7.07373e-10
-2.13134e-10
7.89896e-11
2.1198e-09
6.62659e-09
1.42695e-08
2.57055e-08
5.30822e-08
1.44964e-08
9.55183e-11
7.47114e-09
1.01601e-05
7.87679e-05
0.000191098
0.000268722
0.000259381
2.98093e-05
6.98537e-10
-4.93372e-11
-3.03182e-12
-7.04263e-14
-9.45384e-16
-7.68544e-18
-3.60957e-20
-7.79036e-23
-1.20504e-10
-1.62418e-10
-2.2999e-10
-3.12299e-10
-4.06686e-10
-4.9803e-10
-5.86377e-10
-6.81886e-10
-7.98846e-10
-9.24908e-10
-1.06579e-09
-1.21746e-09
-1.38661e-09
-1.5748e-09
-1.78135e-09
-1.99214e-09
-2.20046e-09
-2.40849e-09
-2.61746e-09
-2.83084e-09
-3.03656e-09
-3.23717e-09
-3.41939e-09
-3.59546e-09
-3.76249e-09
-3.91461e-09
-4.03694e-09
-4.12923e-09
-4.19649e-09
-4.24603e-09
-4.27155e-09
-4.27093e-09
-4.24146e-09
-4.16964e-09
-4.02241e-09
-3.74358e-09
-3.27214e-09
-2.54742e-09
-1.68971e-09
-8.81306e-10
-2.64647e-10
-8.01253e-14
3.26263e-10
6.93511e-09
1.05869e-08
5.32812e-08
2.59999e-07
7.06971e-07
1.15483e-06
1.41287e-06
1.69297e-06
9.54252e-08
-1.69124e-10
-2.20767e-11
-6.16158e-13
-1.02775e-14
-1.21121e-16
-9.25106e-19
-4.24586e-21
-9.16594e-24
-4.52108e-11
-5.60869e-11
-7.88642e-11
-1.08898e-10
-1.47341e-10
-1.91497e-10
-2.36615e-10
-2.75615e-10
-3.10784e-10
-3.43652e-10
-3.83916e-10
-4.32454e-10
-4.92681e-10
-5.60409e-10
-6.36784e-10
-7.18253e-10
-8.04565e-10
-8.87025e-10
-9.61345e-10
-1.03146e-09
-1.09851e-09
-1.17002e-09
-1.25287e-09
-1.34877e-09
-1.45693e-09
-1.58029e-09
-1.71841e-09
-1.87249e-09
-2.03961e-09
-2.21153e-09
-2.36995e-09
-2.49306e-09
-2.55563e-09
-2.52944e-09
-2.3784e-09
-2.05752e-09
-1.53442e-09
-1.1924e-09
-7.00323e-10
-3.92032e-12
1.12818e-09
8.00798e-09
1.64218e-08
9.62745e-09
2.99307e-10
4.24815e-10
1.49911e-09
4.46581e-09
6.23053e-09
6.12536e-09
-1.11757e-11
-2.77372e-10
-4.89223e-11
-2.49221e-12
-3.97965e-14
-4.45448e-16
-3.75809e-18
-2.47564e-20
-1.04776e-22
-2.1758e-25
-8.40911e-12
-8.03002e-12
-1.05706e-11
-1.41424e-11
-1.95395e-11
-2.71017e-11
-3.54418e-11
-4.21593e-11
-4.68404e-11
-5.07318e-11
-5.58538e-11
-6.2895e-11
-7.25148e-11
-8.40023e-11
-9.72155e-11
-1.11953e-10
-1.28629e-10
-1.45431e-10
-1.61417e-10
-1.77518e-10
-1.94823e-10
-2.1575e-10
-2.42101e-10
-2.73345e-10
-3.10553e-10
-3.55052e-10
-4.0747e-10
-4.68237e-10
-5.35973e-10
-6.07019e-10
-6.74182e-10
-7.28802e-10
-7.61532e-10
-7.66036e-10
-7.39672e-10
-6.85199e-10
-6.31615e-10
-5.83123e-10
-5.33153e-10
-4.4836e-10
-2.67015e-10
-4.05866e-14
-2.11296e-13
-6.39323e-13
2.21326e-10
7.81809e-10
1.07641e-09
2.18874e-10
2.43071e-12
-1.21504e-13
-3.52671e-10
-5.27123e-11
-4.87953e-12
-1.23323e-13
-1.21794e-15
-9.73617e-18
-6.61744e-20
-3.80795e-22
-1.64136e-24
-3.51806e-27
-1.51091e-12
-2.69272e-13
-3.52688e-13
-4.43433e-13
-6.39632e-13
-1.02612e-12
-1.50313e-12
-1.90233e-12
-2.10468e-12
-2.2545e-12
-2.43774e-12
-2.77664e-12
-3.29356e-12
-3.97891e-12
-4.81185e-12
-5.82464e-12
-7.07899e-12
-8.41408e-12
-9.70478e-12
-1.10766e-11
-1.2687e-11
-1.48561e-11
-1.77408e-11
-2.13049e-11
-2.57266e-11
-3.12053e-11
-3.79449e-11
-4.61844e-11
-5.60831e-11
-6.76657e-11
-8.06818e-11
-9.46855e-11
-1.09098e-10
-1.23693e-10
-1.38992e-10
-1.56433e-10
-1.7843e-10
-2.07355e-10
-2.44351e-10
-2.86614e-10
-3.23123e-10
-3.24893e-10
-2.57462e-10
-1.14196e-10
7.27577e-11
2.68912e-10
2.43129e-10
-6.44542e-12
-1.03829e-10
-1.21922e-10
-4.22855e-11
-3.83622e-12
-1.94451e-13
-2.65463e-15
-1.80329e-17
-1.20034e-19
-7.8219e-22
-4.44793e-24
-1.90436e-26
-4.18628e-29
-3.9215e-13
-1.57278e-13
-2.36001e-13
-3.05705e-13
-4.1589e-13
-5.44937e-13
-7.14037e-13
-9.1253e-13
-1.15889e-12
-1.44717e-12
-1.79432e-12
-2.20179e-12
-2.68498e-12
-3.24878e-12
-3.91535e-12
-4.69429e-12
-5.6091e-12
-6.68015e-12
-7.93423e-12
-9.40793e-12
-1.1129e-11
-1.3139e-11
-1.54882e-11
-1.82409e-11
-2.14456e-11
-2.51103e-11
-2.91239e-11
-3.31548e-11
-3.6497e-11
-3.81083e-11
-3.69403e-11
-3.3575e-11
-2.95436e-11
-2.61377e-11
-2.37806e-11
-2.2644e-11
-2.3121e-11
-2.57076e-11
-3.06478e-11
-3.74777e-11
-4.51094e-11
-5.19407e-11
-5.49631e-11
-5.07456e-11
-3.73083e-11
-2.0972e-11
-1.36145e-11
-1.80809e-11
-2.62377e-11
-4.94157e-11
-2.60604e-11
-3.63647e-12
-1.72507e-13
-4.63529e-15
-4.12624e-17
-3.03428e-19
-2.00334e-21
-1.08688e-23
-4.36312e-26
-8.69819e-29
-1.35365e-12
-2.89415e-12
-4.14609e-12
-5.6565e-12
-7.58257e-12
-9.76579e-12
-1.2414e-11
-1.53879e-11
-1.89481e-11
-2.29413e-11
-2.75827e-11
-3.2896e-11
-3.88997e-11
-4.57131e-11
-5.33412e-11
-6.17613e-11
-7.09788e-11
-8.07931e-11
-9.09455e-11
-1.01346e-10
-1.11403e-10
-1.2091e-10
-1.29259e-10
-1.35893e-10
-1.39293e-10
-1.37206e-10
-1.26289e-10
-1.03415e-10
-6.71194e-11
-1.96657e-11
3.94471e-11
3.43812e-10
8.51817e-10
1.31644e-09
1.60286e-09
1.68192e-09
1.64961e-09
1.49797e-09
1.13661e-09
6.05981e-10
2.7546e-10
1.50537e-10
1.33985e-10
3.26607e-10
1.24093e-09
3.12924e-09
4.99557e-09
5.7313e-09
3.36726e-09
8.2135e-10
5.95382e-11
-1.18079e-11
-1.95727e-12
-1.26692e-13
-1.85635e-15
-1.81908e-17
-1.42767e-19
-8.98094e-22
-3.86938e-24
-8.02245e-27
7.08211e-12
-6.99388e-12
-1.13396e-11
-1.6548e-11
-2.26098e-11
-2.9821e-11
-3.81446e-11
-4.76006e-11
-5.82377e-11
-6.97257e-11
-8.21276e-11
-9.50853e-11
-1.08149e-10
-1.20799e-10
-1.32054e-10
-1.40607e-10
-1.45244e-10
-1.44703e-10
-1.38377e-10
-1.26471e-10
-1.09225e-10
-8.62689e-11
-5.78907e-11
-2.53642e-11
1.33341e-11
1.97039e-10
4.67316e-10
8.89367e-10
1.72513e-09
3.61561e-09
9.61321e-09
2.97038e-08
7.29808e-08
1.2355e-07
1.67089e-07
2.09656e-07
2.63195e-07
3.15948e-07
3.25152e-07
2.87637e-07
2.84405e-07
3.29329e-07
3.99299e-07
4.57415e-07
4.86966e-07
5.70937e-07
6.72482e-07
6.21971e-07
5.63218e-07
4.38124e-07
2.36293e-07
1.81123e-08
-1.42617e-11
-1.40523e-12
-3.91362e-14
-5.33428e-16
-5.03263e-18
-3.60338e-20
-1.59623e-22
-3.39343e-25
-1.23942e-11
-2.83263e-11
-4.63626e-11
-6.746e-11
-8.85303e-11
-1.11621e-10
-1.33912e-10
-1.56126e-10
-1.76209e-10
-1.93678e-10
-2.0842e-10
-2.20844e-10
-2.31445e-10
-2.41919e-10
-2.53691e-10
-2.67309e-10
-2.80942e-10
-2.88166e-10
-2.7987e-10
-2.48429e-10
-1.94766e-10
-1.44672e-10
-1.06132e-10
-6.2422e-11
-1.62251e-11
3.66408e-11
2.07755e-10
4.6677e-10
1.07193e-09
2.75769e-09
7.50467e-09
1.86989e-08
3.78075e-08
6.11856e-08
8.45115e-08
1.08433e-07
1.42116e-07
2.09159e-07
3.7552e-07
8.59792e-07
2.35796e-06
7.45488e-06
1.90932e-05
3.03581e-05
1.87007e-05
8.15662e-06
4.12554e-06
7.59399e-06
1.49122e-05
2.13871e-05
2.14431e-05
6.02217e-06
1.8937e-08
-7.11317e-12
-5.15467e-13
-1.03692e-14
-1.32647e-16
-1.05108e-18
-4.93541e-21
-1.09445e-23
-7.56386e-11
-1.21792e-10
-1.77885e-10
-2.3908e-10
-2.99535e-10
-3.65983e-10
-4.34482e-10
-5.04708e-10
-5.74634e-10
-6.37852e-10
-6.95766e-10
-7.44874e-10
-7.86853e-10
-8.23539e-10
-8.60918e-10
-9.02634e-10
-9.46096e-10
-9.70721e-10
-9.48148e-10
-8.53615e-10
-6.71921e-10
-4.35385e-10
-2.14707e-10
-1.02467e-10
-3.96099e-11
2.02946e-17
5.80347e-11
3.12513e-10
7.35551e-10
1.63784e-09
3.34733e-09
5.90548e-09
9.05638e-09
1.28763e-08
1.7455e-08
2.36794e-08
3.33483e-08
5.25115e-08
1.18042e-07
3.8242e-07
1.33227e-06
4.64284e-06
1.32953e-05
2.69601e-05
3.61968e-05
2.19169e-05
1.46422e-05
5.31776e-05
0.000184396
0.000355186
0.00045139
0.000222742
2.67118e-06
-6.3905e-12
-4.17566e-12
-1.38059e-13
-2.22711e-15
-2.09986e-17
-1.1321e-19
-2.82594e-22
-9.63605e-11
-1.1944e-10
-1.32228e-10
-1.36953e-10
-1.48638e-10
-1.59965e-10
-1.71088e-10
-1.77551e-10
-1.86381e-10
-1.95664e-10
-2.08006e-10
-2.18073e-10
-2.23243e-10
-2.34152e-10
-2.26717e-10
-2.08768e-10
-1.73243e-10
-1.13264e-10
-3.33036e-11
-4.67404e-17
-4.5733e-17
-6.0442e-17
-5.84472e-17
-1.7503e-16
1.87194e-16
7.44121e-10
3.93517e-09
9.58937e-09
1.81374e-08
2.99982e-08
4.29567e-08
5.09287e-08
5.21003e-08
5.1213e-08
5.04174e-08
6.63521e-08
1.07394e-07
1.67074e-07
1.90536e-07
3.0635e-07
8.16933e-07
2.32945e-06
6.26957e-06
1.838e-05
2.05128e-05
2.35009e-05
5.41089e-05
0.000246491
0.00123031
0.0032829
0.00448837
0.00217327
4.12135e-05
1.52243e-09
-1.40299e-11
-7.81942e-13
-1.40413e-14
-1.38429e-16
-7.48395e-19
-1.79843e-21
-5.99005e-11
-2.32968e-11
-3.04137e-17
-2.57856e-17
-5.11805e-17
-5.65764e-17
3.08212e-17
2.14133e-16
4.21384e-16
5.43555e-16
3.42438e-16
1.2997e-16
2.94693e-16
1.26836e-09
2.61963e-09
2.7238e-09
3.19552e-09
4.14973e-09
4.19779e-09
3.64664e-09
3.1997e-09
3.01986e-09
8.41835e-09
2.68292e-08
5.66891e-08
1.08442e-07
1.93559e-07
3.27148e-07
5.30424e-07
8.06923e-07
1.15361e-06
1.5587e-06
1.99505e-06
2.34132e-06
2.44436e-06
2.38158e-06
2.13035e-06
1.7777e-06
1.54181e-06
1.76137e-06
2.80492e-06
5.00034e-06
8.26804e-06
1.23613e-05
3.68855e-05
0.000136595
0.000466359
0.00231371
0.010928
0.0273931
0.0278107
0.00686745
0.000101374
3.75073e-09
-9.37996e-11
-3.85044e-12
-7.12018e-14
-7.46096e-16
-4.27225e-18
-1.07429e-20
3.0917e-10
2.34715e-09
7.73612e-09
4.79873e-08
1.35717e-07
2.56985e-07
3.5927e-07
4.55257e-07
5.4842e-07
6.18517e-07
6.44462e-07
6.75949e-07
7.51098e-07
8.56547e-07
9.65517e-07
1.08484e-06
1.23178e-06
1.42987e-06
1.65393e-06
1.79039e-06
1.81208e-06
1.77396e-06
1.90267e-06
2.32081e-06
2.95524e-06
3.62146e-06
4.23371e-06
4.90471e-06
5.97474e-06
7.35664e-06
8.7249e-06
9.92884e-06
1.09001e-05
1.16158e-05
1.27051e-05
1.43122e-05
1.67547e-05
1.94411e-05
2.13117e-05
2.45065e-05
3.08309e-05
3.77115e-05
3.84851e-05
2.41865e-05
2.07516e-05
0.000122179
0.0021824
0.0198055
0.093197
0.139083
0.0776985
0.00732077
4.26478e-05
-6.88598e-09
-4.29891e-10
-1.59702e-11
-3.37199e-13
-4.10049e-15
-2.71471e-17
-7.84656e-20
1.62277e-09
5.64952e-08
3.1707e-07
8.98319e-07
1.49504e-06
1.81532e-06
2.66003e-06
3.8261e-06
5.11417e-06
6.67359e-06
8.26771e-06
9.90959e-06
1.1173e-05
1.15374e-05
1.13412e-05
1.13355e-05
1.19234e-05
1.3848e-05
1.74551e-05
2.03347e-05
2.28244e-05
2.67099e-05
3.29411e-05
3.95894e-05
4.8463e-05
6.04682e-05
7.35497e-05
8.64822e-05
9.2605e-05
9.1794e-05
8.72536e-05
8.00952e-05
7.41267e-05
7.42919e-05
8.21395e-05
9.22743e-05
9.30836e-05
9.25837e-05
9.69239e-05
0.000108213
0.000125478
0.000146379
0.000166143
0.000159945
6.00649e-05
0.000101959
0.002942
0.0838515
0.447516
0.403773
0.0944456
0.00285082
2.66678e-06
-6.28869e-09
-9.45407e-10
-4.48862e-11
-1.10701e-12
-1.573e-14
-1.22353e-16
-4.13953e-19
4.82615e-13
-1.88372e-10
3.26358e-06
3.85207e-07
8.66256e-07
6.71524e-06
1.65461e-05
3.0929e-05
4.93903e-05
6.33174e-05
7.2053e-05
8.73362e-05
0.00010875
0.000136362
0.000157741
0.000170712
0.000166495
0.000145207
0.000130648
0.000114656
0.000101884
9.64057e-05
0.000102224
0.000131344
0.000198484
0.000299508
0.000438974
0.000630995
0.000867717
0.00109671
0.00127435
0.00139106
0.00146495
0.00153359
0.00161115
0.00168273
0.00170901
0.00165909
0.00152234
0.00125181
0.000928959
0.000840965
0.000888873
0.000914337
0.000576573
0.000261547
0.00427724
0.232637
0.832267
0.555184
0.071844
0.00133847
-2.12127e-07
-2.35878e-08
-1.84297e-09
-8.96393e-11
-2.58555e-12
-4.29241e-14
-3.82408e-16
-1.46645e-18
1.11116e-08
1.13074e-09
7.39841e-07
1.88047e-05
1.76128e-05
1.78323e-07
1.98378e-07
1.23463e-05
3.47051e-05
4.17657e-05
4.48336e-05
4.91117e-05
5.51808e-05
6.32842e-05
7.1474e-05
7.94577e-05
8.69975e-05
9.65886e-05
0.000108937
0.000121076
0.000131544
0.000144117
0.00016666
0.000208674
0.000268172
0.000346641
0.000446958
0.000558309
0.000659656
0.000753443
0.000842581
0.000926276
0.00101318
0.00113917
0.00135381
0.00165327
0.00184971
0.00185157
0.00171499
0.00141664
0.00108201
0.000934876
0.00090912
0.000804405
0.000367492
0.000261528
0.00709466
0.347429
0.710443
0.325187
0.0305038
0.000381204
-8.95086e-08
-1.24733e-08
-1.22276e-09
-6.7997e-11
-2.09535e-12
-3.58888e-14
-3.24069e-16
-1.25257e-18
-1.05969e-12
0.0015167
0.00171736
0.000471213
7.42847e-06
6.92744e-05
0.000273105
0.000350246
0.000139043
4.77127e-05
4.54323e-05
4.6775e-05
4.74317e-05
4.97005e-05
6.63787e-05
6.63047e-05
4.16543e-05
4.8367e-05
0.00022037
0.000245756
0.000245585
8.20631e-05
8.94718e-05
0.000249326
0.000308391
0.000308392
0.000315345
0.000348361
0.000393315
0.000440523
0.000490533
0.000547948
0.000625747
0.000758808
0.00102241
0.00135723
0.0014246
0.00133544
0.00106798
0.000803687
0.00069817
0.000600381
0.000464768
0.000299955
0.000174798
0.000281656
0.0192759
0.406857
0.485604
0.159686
0.00890861
4.19721e-05
-2.66519e-08
-6.32631e-09
-7.8721e-10
-4.72772e-11
-1.48941e-12
-2.56352e-14
-2.30929e-16
-8.86706e-19
2.89708e-14
1.85895e-05
0.000333523
0.00045774
0.000960612
0.00279823
0.00493068
0.00389186
0.00101547
8.34488e-05
5.47205e-05
6.36341e-05
8.26622e-05
9.37478e-05
9.08578e-05
7.2714e-05
4.18319e-05
4.00313e-05
9.94084e-05
0.000237015
0.000245795
0.000111161
1.59688e-05
4.81362e-05
0.000214886
0.000305046
0.000242125
0.000232626
0.000236799
0.000238022
0.000235222
0.000227494
0.000222982
0.000223494
0.00022929
0.000259875
0.000347025
0.000479186
0.00055603
0.000547272
0.00046018
0.000317233
0.000257896
0.000227319
0.000174967
0.000218354
0.0109609
0.31426
0.498916
0.210202
0.0178805
0.000166825
-4.67748e-08
-7.53239e-09
-8.57507e-10
-5.06383e-11
-1.58857e-12
-2.72618e-14
-2.44669e-16
-9.35238e-19
5.05288e-13
-9.25091e-12
1.70821e-05
0.000112413
0.000429206
0.00120776
0.00161498
0.000859697
8.9547e-05
1.39257e-05
2.58955e-05
3.77463e-05
4.13738e-05
4.33825e-05
4.65392e-05
5.02181e-05
5.50103e-05
6.29912e-05
7.01848e-05
7.69087e-05
9.5702e-05
0.000126799
0.000151354
0.000165249
0.000177608
0.0001899
0.000204627
0.000228388
0.00025175
0.000252748
0.000240515
0.000211667
0.000196328
0.000200066
0.000221574
0.000270936
0.000365459
0.000525216
0.000611094
0.000584003
0.000467279
0.000299506
0.000247581
0.00024043
0.000196348
0.000173776
0.00315705
0.208279
0.722818
0.44943
0.065978
0.00159761
3.16014e-07
-1.38168e-08
-1.93582e-09
-1.07479e-10
-3.16825e-12
-5.21903e-14
-4.57355e-16
-1.72278e-18
1.48878e-07
1.82535e-07
3.99239e-07
5.7747e-07
5.81793e-07
1.6968e-06
1.68979e-06
1.32283e-06
1.74114e-06
8.94956e-06
1.25549e-05
1.61085e-05
1.72299e-05
1.733e-05
1.70934e-05
1.3854e-05
1.35758e-05
1.35657e-05
1.35757e-05
1.35696e-05
1.35845e-05
4.68197e-05
6.15199e-05
6.15187e-05
6.57961e-05
0.000181258
0.000205478
0.000190458
0.000166087
0.000146141
0.000136555
0.000141665
0.000180075
0.00027156
0.000319408
0.00030724
0.00028596
0.000291619
0.000296742
0.000262976
0.000212246
0.000217194
0.000266415
0.000262673
0.000173777
0.00017575
0.00167304
0.101489
0.69644
0.620843
0.140787
0.00549815
1.6228e-05
-1.5778e-08
-2.22043e-09
-1.35913e-10
-3.95551e-12
-6.22545e-14
-5.227e-16
-1.90867e-18
1.34859e-06
3.32163e-06
4.14383e-06
5.77441e-06
7.97347e-06
1.0464e-05
1.16304e-05
1.42558e-05
1.8588e-05
2.23444e-05
2.78527e-05
3.55172e-05
4.22535e-05
4.99665e-05
6.49512e-05
6.98065e-05
6.15973e-05
4.55931e-05
3.05866e-05
2.58571e-05
4.49099e-05
7.26742e-05
0.000105146
0.000123728
0.000197717
0.000298162
0.000273411
0.00019192
0.000173688
0.000341908
0.000659133
0.000449939
0.000202648
0.00019442
0.000259008
0.000295699
0.000235747
0.000179822
0.000159671
0.000168135
0.000210368
0.00027112
0.00028155
0.000242666
0.000206924
0.000173679
0.00134567
0.0417746
0.29856
0.33435
0.123246
0.0072573
2.93944e-05
-1.1669e-08
-9.74912e-10
-4.6302e-11
-1.13057e-12
-1.52535e-14
-1.10552e-16
-3.49913e-19
1.11003e-10
3.55659e-12