/*--------------------------------*- C++ -*----------------------------------*\
| =========                 |                                                 |
| \\      /  F ield         | OpenFOAM: The Open Source CFD Toolbox           |
|  \\    /   O peration     | Version:  2.1.1                                 |
|   \\  /    A nd           | Web:      www.OpenFOAM.org                      |
|    \\/     M anipulation  |                                                 |
\*---------------------------------------------------------------------------*/
FoamFile
{
    version     2.0;
    format      ascii;
    class       volScalarField;
    location    "0.00115";
    object      criterion2;
}
// * * * * * * * * * * * * * * * * * * * * * * * * * * * * * * * * * * * * * //

dimensions      [1 2 -2 0 0 0 0];

internalField   nonuniform List<scalar> 
36520
(
3.60974e-10
4.83318e-09
8.19611e-09
9.46295e-09
1.0603e-08
1.1131e-08
1.12092e-08
1.08822e-08
1.05303e-08
1.0317e-08
1.02049e-08
1.01759e-08
1.01296e-08
1.0072e-08
9.96014e-09
9.80049e-09
9.58327e-09
9.3416e-09
9.06674e-09
8.80746e-09
8.55197e-09
8.34641e-09
8.18783e-09
8.11121e-09
8.11721e-09
8.24155e-09
8.48585e-09
8.86557e-09
9.36608e-09
9.99294e-09
1.07214e-08
1.15579e-08
1.24848e-08
1.3523e-08
1.46982e-08
1.61468e-08
1.80419e-08
2.07053e-08
2.47106e-08
3.08485e-08
4.0338e-08
5.49849e-08
7.64975e-08
1.06886e-07
1.5183e-07
2.2665e-07
3.40284e-07
4.90321e-07
6.40859e-07
8.47199e-07
1.22909e-06
1.44369e-06
7.98106e-07
4.10668e-07
1.43174e-07
1.56724e-08
-7.05434e-08
-1.14079e-07
-1.36118e-07
-1.39684e-07
2.66923e-09
-1.67447e-09
2.26477e-11
7.80218e-10
1.88469e-09
2.80894e-09
2.88383e-09
1.96358e-09
9.70575e-10
3.12697e-10
7.90532e-11
1.7543e-10
4.26172e-10
7.74605e-10
1.13727e-09
1.42237e-09
1.59308e-09
1.67404e-09
1.66016e-09
1.70239e-09
1.76269e-09
1.98023e-09
2.33513e-09
2.9387e-09
3.77045e-09
4.91035e-09
6.30933e-09
7.95345e-09
9.63293e-09
1.1125e-08
1.20661e-08
1.22779e-08
1.18077e-08
1.09686e-08
1.00138e-08
9.16392e-09
8.41173e-09
7.79083e-09
7.3728e-09
7.15279e-09
7.08726e-09
7.14276e-09
7.19481e-09
7.23242e-09
7.57959e-09
8.44253e-09
9.38706e-09
9.94605e-09
9.38446e-09
8.23586e-09
6.13615e-09
4.38585e-09
1.56089e-08
5.16066e-08
3.65421e-09
-2.09355e-08
-3.58797e-08
-4.29228e-08
-4.95639e-08
-2.66411e-07
-7.33533e-09
-4.63377e-09
-2.62986e-09
-7.43619e-10
1.97114e-09
4.55289e-09
4.5612e-09
2.89278e-09
1.06289e-09
-2.02217e-10
-5.37366e-10
-1.89972e-10
5.5969e-10
1.46605e-09
2.30003e-09
2.7571e-09
2.82946e-09
2.69438e-09
2.3628e-09
2.1752e-09
2.00246e-09
2.05726e-09
2.20844e-09
2.51704e-09
2.79641e-09
3.03734e-09
3.12561e-09
3.08535e-09
2.94322e-09
2.77944e-09
2.59647e-09
2.41013e-09
2.21358e-09
2.00877e-09
1.81363e-09
1.6528e-09
1.53779e-09
1.49926e-09
1.57737e-09
1.809e-09
2.20811e-09
2.78489e-09
3.47883e-09
4.1779e-09
4.94287e-09
6.03309e-09
7.00493e-09
7.54654e-09
8.56232e-09
9.14373e-09
8.87565e-09
5.42884e-09
1.53059e-09
1.9981e-09
-2.88555e-09
-1.67864e-08
-2.44277e-08
-2.77726e-08
-3.85744e-08
-2.78267e-07
-1.39284e-08
-6.07523e-09
-3.47628e-09
-5.58976e-10
7.80635e-10
-2.59727e-10
-5.81966e-10
-8.02916e-10
-3.56451e-10
-4.68635e-10
-8.01089e-10
-5.24955e-10
-4.79667e-11
3.26434e-10
4.81909e-10
4.78446e-10
2.97026e-10
9.96122e-11
-1.69738e-10
-3.34319e-10
-4.86947e-10
-5.12249e-10
-4.80833e-10
-3.51621e-10
-1.9955e-10
-1.34036e-11
1.66439e-10
3.35454e-10
4.61632e-10
5.49764e-10
5.97399e-10
6.11285e-10
6.07142e-10
5.85523e-10
5.87008e-10
6.12857e-10
5.86413e-10
5.81228e-10
6.45218e-10
8.18609e-10
1.10216e-09
1.4908e-09
1.91849e-09
2.20377e-09
2.26673e-09
2.29064e-09
1.74091e-09
1.22255e-09
2.13144e-09
5.69336e-09
1.0326e-08
8.63424e-09
2.71713e-09
-1.01174e-09
-4.92876e-09
-1.37205e-08
-1.93134e-08
-2.25854e-08
-4.53595e-08
-2.77983e-07
-1.49973e-08
-5.88961e-09
-2.69768e-09
-1.01202e-09
-5.68603e-10
-4.38264e-10
-4.32222e-10
-5.72891e-10
-9.47534e-10
-1.74093e-09
-1.97274e-09
-1.80023e-09
-1.55358e-09
-1.33346e-09
-1.20649e-09
-1.11837e-09
-1.11283e-09
-1.12754e-09
-1.20338e-09
-1.24279e-09
-1.27773e-09
-1.24668e-09
-1.17504e-09
-1.04746e-09
-9.05121e-10
-7.48799e-10
-5.91273e-10
-4.40002e-10
-3.12424e-10
-2.1181e-10
-1.34931e-10
-7.28506e-11
-2.2804e-11
-6.83463e-11
-1.9141e-10
-3.18759e-10
-3.73493e-10
-3.44612e-10
-2.72653e-10
-1.53635e-10
4.05726e-12
1.93247e-10
3.49572e-10
3.52903e-10
2.23309e-10
1.72916e-10
2.13966e-12
-1.06932e-10
-2.32434e-10
3.74997e-10
6.08677e-09
1.22225e-08
4.93725e-09
-1.93474e-10
-3.16001e-09
-6.98617e-09
-1.64314e-08
-2.3848e-08
-4.87088e-08
-2.74613e-07
1.51777e-08
-1.72505e-09
-1.03371e-09
-6.78442e-10
-3.75753e-10
-1.81262e-10
-6.51328e-11
-2.75142e-10
-6.88947e-10
-1.09815e-09
-1.24143e-09
-1.18944e-09
-1.11425e-09
-1.04607e-09
-1.01446e-09
-1.00874e-09
-1.0315e-09
-1.03168e-09
-1.02598e-09
-9.95415e-10
-9.44388e-10
-8.34357e-10
-6.12988e-10
-2.82208e-10
1.40338e-10
6.57609e-10
1.28264e-09
2.06622e-09
2.94816e-09
3.7695e-09
4.424e-09
4.83203e-09
4.70591e-09
4.08388e-09
3.14766e-09
2.14315e-09
1.25662e-09
5.9871e-10
2.15646e-10
8.02153e-11
1.0213e-10
2.00274e-10
3.83752e-10
7.1966e-10
9.86084e-10
1.02496e-09
6.75502e-10
2.56411e-10
1.03843e-10
4.30737e-11
2.25642e-10
8.42804e-09
8.05839e-09
9.23647e-10
-2.60229e-09
-4.49768e-09
-7.1436e-09
-2.44233e-08
-4.8711e-08
-2.71403e-07
6.32059e-08
-1.11975e-09
-7.91505e-10
-1.69425e-10
6.74845e-10
1.60055e-09
2.30296e-09
1.71133e-09
4.20789e-10
-4.4466e-10
-7.17643e-10
-5.87483e-10
-3.69772e-10
-9.61722e-11
1.71709e-10
4.06753e-10
7.11807e-10
1.0483e-09
1.43641e-09
1.81212e-09
2.15848e-09
2.4679e-09
2.95281e-09
3.94571e-09
5.4647e-09
7.19536e-09
8.79749e-09
1.05406e-08
1.25419e-08
1.44904e-08
1.58858e-08
1.65006e-08
1.65115e-08
1.57372e-08
1.4012e-08
1.16904e-08
9.26564e-09
7.11597e-09
5.40819e-09
4.0315e-09
3.09983e-09
2.62148e-09
2.39502e-09
2.29308e-09
1.77041e-09
5.60454e-10
1.04031e-10
4.475e-11
2.11738e-11
1.74834e-11
5.91155e-11
1.77993e-09
9.87895e-09
2.34445e-09
-2.04064e-09
-4.33564e-09
-5.65474e-09
-2.39105e-08
-4.82746e-08
-2.70199e-07
1.94023e-08
-5.74604e-10
4.31757e-10
2.56505e-09
5.60113e-09
8.4559e-09
1.02554e-08
1.00276e-08
7.43861e-09
4.74951e-09
4.35646e-09
5.65124e-09
7.48007e-09
9.76531e-09
1.16853e-08
1.26859e-08
1.29324e-08
1.30806e-08
1.33847e-08
1.40505e-08
1.48893e-08
1.57164e-08
1.65244e-08
1.74661e-08
1.88362e-08
2.06171e-08
2.24282e-08
2.40464e-08
2.53725e-08
2.61944e-08
2.62131e-08
2.52973e-08
2.37868e-08
2.27621e-08
2.16648e-08
2.02798e-08
1.82496e-08
1.57101e-08
1.3378e-08
1.1475e-08
9.94739e-09
8.41841e-09
7.20437e-09
7.1512e-09
7.21718e-09
5.41739e-09
9.62749e-10
3.11491e-11
1.06376e-11
1.01486e-11
3.75403e-11
2.19133e-09
1.12571e-08
4.46384e-09
-1.35602e-09
-4.31686e-09
-5.76302e-09
-2.22268e-08
-4.80461e-08
-2.75239e-07
3.50062e-07
-1.47674e-10
5.66241e-10
1.89593e-09
2.8358e-09
3.12209e-09
4.01989e-09
6.39718e-09
9.14886e-09
1.12146e-08
1.30658e-08
1.51931e-08
1.75057e-08
1.9999e-08
2.25691e-08
2.49076e-08
2.5991e-08
2.58595e-08
2.56362e-08
2.57305e-08
2.57753e-08
2.54966e-08
2.50044e-08
2.45217e-08
2.41837e-08
2.39191e-08
2.34392e-08
2.26321e-08
2.16563e-08
2.06948e-08
1.97787e-08
1.87617e-08
1.75319e-08
1.61159e-08
1.46506e-08
1.33564e-08
1.22391e-08
1.11119e-08
1.01331e-08
9.76295e-09
1.08452e-08
1.34331e-08
1.33789e-08
1.33396e-08
1.46726e-08
1.60371e-08
5.86969e-09
4.80764e-11
1.40468e-11
1.4024e-11
4.44515e-11
2.70714e-09
1.86123e-08
9.6912e-09
1.36254e-10
-4.35643e-09
-6.35099e-09
-1.8176e-08
-4.7167e-08
-2.65205e-07
4.09913e-07
-4.01556e-10
4.88423e-10
1.58523e-09
3.16686e-09
4.64978e-09
5.82737e-09
7.5419e-09
1.01138e-08
1.18173e-08
1.26599e-08
1.34123e-08
1.44519e-08
1.60141e-08
1.81603e-08
2.04687e-08
2.29696e-08
2.58719e-08
2.92439e-08
3.28454e-08
3.50333e-08
3.47785e-08
3.28465e-08
3.03725e-08
2.84279e-08
2.69862e-08
2.53897e-08
2.32138e-08
2.09433e-08
1.95992e-08
1.91182e-08
1.88525e-08
1.83326e-08
1.76277e-08
1.66955e-08
1.55627e-08
1.42433e-08
1.26906e-08
1.12843e-08
1.03718e-08
9.84454e-09
9.37332e-09
9.55669e-09
1.14184e-08
1.65392e-08
2.33392e-08
6.87443e-09
6.50867e-11
2.66265e-11
3.15243e-11
9.25774e-11
4.63225e-09
2.24276e-08
1.15277e-08
7.3235e-10
-4.33057e-09
-6.52266e-09
-1.73856e-08
-4.65367e-08
-2.52599e-07
1.92677e-07
-8.16819e-10
9.45547e-10
3.3052e-09
5.9269e-09
7.31032e-09
8.09949e-09
1.17696e-08
1.9843e-08
2.51448e-08
2.75642e-08
2.99535e-08
3.24458e-08
3.57582e-08
3.98057e-08
4.38878e-08
4.76539e-08
5.17729e-08
5.64605e-08
6.07115e-08
6.26282e-08
6.00541e-08
5.34381e-08
4.99905e-08
4.84819e-08
4.74408e-08
4.5931e-08
4.62047e-08
4.80431e-08
4.98775e-08
5.08861e-08
5.06818e-08
4.93869e-08
4.72157e-08
4.4373e-08
4.12302e-08
3.76837e-08
3.34815e-08
2.85329e-08
2.30612e-08
1.84357e-08
1.41962e-08
1.24673e-08
1.49054e-08
1.97214e-08
2.21454e-08
7.98829e-09
5.61913e-11
1.8775e-11
1.93419e-11
5.61722e-11
3.73901e-09
1.65503e-08
8.39749e-09
3.46933e-10
-3.92232e-09
-5.87587e-09
-1.59383e-08
-4.60771e-08
-2.4212e-07
3.52106e-08
-7.75964e-10
6.20328e-10
3.24883e-09
7.34513e-09
1.39292e-08
1.88743e-08
2.47257e-08
2.96528e-08
3.37794e-08
3.70408e-08
4.10508e-08
4.7122e-08
5.39788e-08
6.07126e-08
6.65249e-08
7.01603e-08
7.24337e-08
7.52709e-08
7.85385e-08
7.81211e-08
6.72424e-08
6.28097e-08
6.00599e-08
5.91575e-08
5.5243e-08
4.32628e-08
4.08836e-08
4.98548e-08
6.13538e-08
6.58188e-08
6.61068e-08
4.70216e-08
3.75863e-08
3.66088e-08
4.03674e-08
5.01853e-08
4.51591e-08
3.54695e-08
2.68935e-08
1.92316e-08
1.31073e-08
1.05594e-08
1.24722e-08
1.71167e-08
1.91164e-08
1.11477e-08
9.73806e-11
1.7662e-11
1.25201e-11
1.55485e-11
5.94839e-10
8.33042e-09
3.34381e-09
-8.37675e-10
-3.25655e-09
-4.49168e-09
-1.58117e-08
-4.61431e-08
-2.39002e-07
2.44153e-08
-5.15938e-10
3.74267e-10
2.95996e-09
6.43287e-09
5.98054e-09
2.96066e-09
4.09044e-09
1.13569e-08
3.07878e-08
3.97516e-08
4.42516e-08
5.01352e-08
5.75282e-08
6.49207e-08
7.16679e-08
7.67379e-08
7.93207e-08
8.06151e-08
8.12963e-08
8.01355e-08
7.00923e-08
6.20827e-08
5.85616e-08
5.85294e-08
5.60422e-08
5.48497e-08
4.34084e-08
3.31051e-08
3.90754e-08
5.70587e-08
6.47964e-08
6.5452e-08
6.22541e-08
4.42604e-08
3.27538e-08
2.96207e-08
3.46161e-08
3.43862e-08
2.50806e-08
1.63871e-08
9.9653e-09
7.69953e-09
1.14977e-08
1.79436e-08
2.05533e-08
1.09221e-08
1.1332e-10
2.19101e-11
1.4604e-11
1.59879e-11
5.25903e-10
7.68801e-09
3.00927e-09
-8.99027e-10
-3.21299e-09
-4.41764e-09
-1.57802e-08
-4.61566e-08
-2.39393e-07
1.93761e-07
-5.69077e-10
1.37588e-09
3.76302e-09
5.04608e-09
1.75854e-09
4.0369e-10
4.09593e-10
1.12906e-09
1.19608e-08
3.46113e-08
3.78376e-08
4.12337e-08
4.57628e-08
5.00283e-08
5.32059e-08
5.6721e-08
6.02455e-08
6.32675e-08
6.6065e-08
6.70623e-08
6.35296e-08
5.69432e-08
5.28842e-08
4.91383e-08
4.59568e-08
4.57453e-08
4.53844e-08
4.47569e-08
4.56428e-08
4.66788e-08
4.66979e-08
4.58793e-08
4.41063e-08
4.10792e-08
3.65469e-08
3.19657e-08
2.77289e-08
2.32325e-08
1.8384e-08
1.34243e-08
9.74993e-09
8.36279e-09
1.0279e-08
1.56242e-08
1.76902e-08
2.16826e-09
3.85016e-11
2.21048e-11
2.39466e-11
1.0141e-10
6.6641e-09
1.45845e-08
7.12608e-09
4.94073e-11
-3.95252e-09
-5.84459e-09
-1.66588e-08
-4.61672e-08
-2.43417e-07
8.39282e-07
-8.8019e-10
1.75837e-09
3.59785e-09
3.88466e-09
1.29957e-09
2.78886e-10
2.02531e-10
4.31495e-10
4.0509e-09
2.90795e-08
3.22087e-08
3.26342e-08
3.35803e-08
3.5454e-08
3.8395e-08
4.17788e-08
4.57779e-08
4.66583e-08
4.45054e-08
4.22035e-08
4.05707e-08
3.90538e-08
3.66984e-08
3.41418e-08
2.78732e-08
1.94099e-08
1.95828e-08
2.1137e-08
2.61041e-08
3.07942e-08
3.29356e-08
3.27807e-08
2.99887e-08
2.08945e-08
1.26193e-08
1.09154e-08
1.00771e-08
1.13348e-08
9.44615e-09
7.49254e-09
6.32423e-09
6.54712e-09
8.49569e-09
1.4255e-08
1.77255e-08
1.66371e-09
3.71594e-11
2.61741e-11
3.3633e-11
3.11877e-10
1.34071e-08
1.92878e-08
8.42232e-09
1.66481e-10
-4.34568e-09
-6.37904e-09
-1.92654e-08
-4.65563e-08
-2.50659e-07
5.17162e-07
-9.44515e-10
5.4862e-10
3.41206e-09
3.23308e-09
8.33391e-10
6.08255e-10
1.40569e-09
8.06192e-09
2.03559e-08
2.36168e-08
2.48001e-08
2.64707e-08
2.89657e-08
3.18421e-08
3.37138e-08
3.43886e-08
3.42319e-08
3.30648e-08
3.20229e-08
3.20769e-08
3.22912e-08
3.13155e-08
2.69992e-08
1.6803e-08
1.56483e-08
1.54415e-08
1.9299e-08
2.17319e-08
2.09897e-08
1.97044e-08
1.61256e-08
8.22941e-09
5.69972e-09
8.54467e-09
1.37106e-08
1.26918e-08
1.09228e-08
9.22426e-09
8.13556e-09
7.61725e-09
7.60514e-09
9.00981e-09
1.26915e-08
1.76609e-08
1.78324e-08
1.27027e-09
2.58842e-11
1.857e-11
2.48751e-11
2.16903e-10
1.15701e-08
1.74965e-08
7.04584e-09
-3.54917e-10
-4.37527e-09
-6.2213e-09
-2.0097e-08
-4.71327e-08
-2.62559e-07
4.10436e-08
-8.16279e-10
1.53359e-10
1.51926e-09
3.20181e-09
4.99717e-09
6.51536e-09
8.46971e-09
8.45161e-09
6.62082e-09
4.87297e-09
4.78508e-09
6.18798e-09
8.44814e-09
1.15374e-08
1.48683e-08
1.66697e-08
1.73694e-08
1.72368e-08
1.67871e-08
1.67523e-08
1.67191e-08
1.55409e-08
1.49047e-08
1.48701e-08
1.58602e-08
1.7965e-08
2.03013e-08
2.11736e-08
1.7553e-08
1.49618e-08
1.45109e-08
1.36889e-08
1.34453e-08
1.43309e-08
1.41847e-08
1.21297e-08
1.0115e-08
8.51179e-09
7.70795e-09
7.42743e-09
7.81112e-09
8.78902e-09
1.05914e-08
1.25334e-08
1.01586e-08
4.87224e-10
2.15988e-11
1.01861e-11
1.2734e-11
8.06412e-11
4.07526e-09
1.08396e-08
3.30521e-09
-1.59161e-09
-4.23609e-09
-5.57946e-09
-2.26773e-08
-4.81446e-08
-2.76083e-07
1.17244e-07
-1.24789e-09
-9.19143e-10
-3.05715e-10
4.87732e-10
1.48059e-09
2.18868e-09
1.92076e-09
9.62435e-10
-6.14963e-11
-7.02805e-10
-8.37024e-10
-6.24352e-10
-2.78817e-10
2.27566e-10
8.89304e-10
1.63161e-09
2.10923e-09
2.16574e-09
1.94703e-09
1.78201e-09
1.61216e-09
1.33556e-09
1.24697e-09
1.53876e-09
1.98908e-09
2.49952e-09
2.96599e-09
3.32825e-09
3.56899e-09
3.63171e-09
3.46706e-09
3.0965e-09
2.6015e-09
2.08681e-09
1.65234e-09
1.40846e-09
1.2949e-09
1.3548e-09
1.59349e-09
2.11559e-09
3.04031e-09
4.47524e-09
6.02946e-09
5.85555e-09
1.7321e-09
2.45495e-10
6.80636e-11
2.49193e-11
1.62946e-11
5.69855e-11
1.89999e-09
8.11475e-09
1.62796e-09
-2.1416e-09
-4.23021e-09
-5.7532e-09
-2.39556e-08
-4.83032e-08
-2.69734e-07
5.50594e-08
-2.20211e-09
-1.16998e-09
-8.22895e-10
-5.40966e-10
-2.88413e-10
-1.31641e-10
-3.12678e-10
-6.35792e-10
-9.43028e-10
-1.26727e-09
-1.32426e-09
-1.22915e-09
-1.11077e-09
-1.00421e-09
-9.09821e-10
-8.42188e-10
-7.68587e-10
-7.64038e-10
-8.30782e-10
-9.28053e-10
-1.01454e-09
-1.0439e-09
-9.66413e-10
-8.43524e-10
-6.8379e-10
-5.21273e-10
-3.74833e-10
-2.62186e-10
-1.90838e-10
-1.62567e-10
-1.61154e-10
-1.69216e-10
-1.80032e-10
-1.99248e-10
-2.09294e-10
-1.99563e-10
-1.36569e-10
7.13204e-13
2.35737e-10
5.78747e-10
1.02118e-09
1.60887e-09
2.49316e-09
3.16803e-09
3.17578e-09
2.27061e-09
8.53799e-10
2.90108e-10
1.13804e-10
1.14732e-10
4.29708e-09
7.18832e-09
6.16491e-10
-2.56766e-09
-4.45724e-09
-9.81597e-09
-2.4198e-08
-4.85201e-08
-2.66817e-07
5.38732e-09
-4.24337e-09
-2.38434e-09
-1.23719e-09
-8.17391e-10
-6.74471e-10
-6.43245e-10
-7.2975e-10
-9.3535e-10
-1.41445e-09
-1.57773e-09
-1.42518e-09
-1.19163e-09
-9.35563e-10
-7.67268e-10
-6.8022e-10
-7.19303e-10
-7.79405e-10
-8.46507e-10
-8.46229e-10
-9.00146e-10
-9.28245e-10
-9.40589e-10
-8.25258e-10
-6.26021e-10
-3.53205e-10
-7.75358e-11
1.74836e-10
3.56103e-10
4.5646e-10
4.74072e-10
4.35315e-10
3.64963e-10
2.84395e-10
1.91141e-10
1.09866e-10
5.1414e-11
4.83669e-11
1.30825e-10
3.20014e-10
6.18375e-10
9.89412e-10
1.34666e-09
1.54405e-09
1.48976e-09
1.3331e-09
1.23005e-09
9.43677e-10
4.73168e-10
2.38739e-10
1.88652e-09
8.44523e-09
4.70036e-09
-2.7878e-10
-3.03614e-09
-6.65811e-09
-1.6292e-08
-2.35473e-08
-4.84096e-08
-2.69247e-07
5.16758e-09
-4.53943e-09
-2.54012e-09
-8.37386e-10
-9.5797e-11
-8.77376e-10
-9.36566e-10
-1.04718e-09
-8.62563e-10
-1.42743e-10
-2.13449e-10
-1.61948e-10
4.19308e-11
3.18461e-10
4.92787e-10
6.01979e-10
5.34237e-10
4.51557e-10
2.84497e-10
1.62721e-10
-5.94293e-11
-1.85033e-10
-2.35646e-10
-9.86383e-11
1.37416e-10
4.70934e-10
8.01993e-10
1.10546e-09
1.31092e-09
1.40706e-09
1.38861e-09
1.30868e-09
1.18915e-09
1.0625e-09
9.35402e-10
8.31074e-10
7.6659e-10
7.65695e-10
8.55142e-10
1.04933e-09
1.33032e-09
1.63819e-09
1.86206e-09
1.96375e-09
2.08232e-09
2.29765e-09
2.47593e-09
2.69336e-09
3.08022e-09
4.04372e-09
5.92755e-09
6.52639e-09
2.64781e-09
-1.00235e-09
-4.14419e-09
-1.28177e-08
-1.92073e-08
-2.31304e-08
-4.58837e-08
-2.72273e-07
1.16943e-09
-3.73472e-09
-2.3474e-09
-1.43064e-09
2.80594e-10
2.22953e-09
2.83933e-09
2.57582e-09
2.04402e-09
1.58306e-09
1.40409e-09
1.63992e-09
2.05413e-09
2.72891e-09
3.40156e-09
3.86128e-09
3.88813e-09
3.73435e-09
3.34193e-09
2.97165e-09
2.49011e-09
2.20511e-09
2.03534e-09
2.13929e-09
2.34062e-09
2.61508e-09
2.81074e-09
2.93109e-09
2.9153e-09
2.78662e-09
2.55713e-09
2.28356e-09
1.98417e-09
1.6969e-09
1.42825e-09
1.2082e-09
1.05048e-09
9.72591e-10
9.90994e-10
1.10707e-09
1.29563e-09
1.49421e-09
1.68449e-09
1.93111e-09
2.33744e-09
2.99596e-09
3.85065e-09
4.92815e-09
5.50258e-09
5.41477e-09
4.81813e-09
3.7364e-09
9.51695e-10
-1.18378e-09
-4.2426e-09
-1.74177e-08
-2.53981e-08
-2.91849e-08
-4.05056e-08
-2.8198e-07
5.67616e-09
-1.30228e-09
-1.49186e-10
-1.76087e-10
3.42377e-10
8.48861e-10
1.12201e-09
1.01004e-09
7.60525e-10
5.8197e-10
5.08608e-10
6.24554e-10
8.48248e-10
1.22006e-09
1.68322e-09
2.18602e-09
2.58242e-09
2.84649e-09
2.93255e-09
2.9882e-09
2.92457e-09
2.99504e-09
3.19384e-09
3.78881e-09
4.72772e-09
6.081e-09
7.67809e-09
9.37005e-09
1.07914e-08
1.1663e-08
1.18007e-08
1.13525e-08
1.04908e-08
9.41696e-09
8.23476e-09
7.0913e-09
6.05367e-09
5.18365e-09
4.52138e-09
4.01872e-09
3.6222e-09
3.41166e-09
3.4287e-09
3.7746e-09
4.4673e-09
5.22133e-09
5.65009e-09
5.55629e-09
5.03874e-09
4.54908e-09
3.58067e-09
2.78299e-09
9.36456e-09
4.94636e-08
1.89167e-09
-2.30393e-08
-3.82978e-08
-4.55144e-08
-5.20613e-08
-2.76555e-07
2.97535e-09
5.62416e-09
8.82912e-09
9.71706e-09
1.05315e-08
1.09195e-08
1.10947e-08
1.10753e-08
1.09755e-08
1.08839e-08
1.07758e-08
1.07096e-08
1.06102e-08
1.0521e-08
1.03887e-08
1.02271e-08
1.00061e-08
9.74409e-09
9.43195e-09
9.10613e-09
8.75862e-09
8.4649e-09
8.23515e-09
8.14924e-09
8.21741e-09
8.47605e-09
8.91372e-09
9.53448e-09
1.02889e-08
1.11356e-08
1.20223e-08
1.29919e-08
1.40947e-08
1.54447e-08
1.71187e-08
1.93202e-08
2.23717e-08
2.68017e-08
3.35159e-08
4.38652e-08
5.97489e-08
8.35299e-08
1.18351e-07
1.67764e-07
2.39671e-07
3.44438e-07
4.94926e-07
7.22982e-07
1.00079e-06
1.31958e-06
1.56149e-06
1.51494e-06
8.22999e-07
4.14368e-07
1.39501e-07
1.13358e-08
-7.55568e-08
-1.19975e-07
-1.42799e-07
-1.49783e-07
1.3078e-09
4.36993e-09
7.84354e-09
8.75135e-09
9.67399e-09
1.01314e-08
1.05295e-08
1.07707e-08
1.08923e-08
1.09749e-08
1.09434e-08
1.09173e-08
1.07936e-08
1.06786e-08
1.04886e-08
1.02883e-08
1.00384e-08
9.76709e-09
9.46959e-09
9.17482e-09
8.86546e-09
8.60102e-09
8.39714e-09
8.3339e-09
8.42262e-09
8.71037e-09
9.18701e-09
9.86831e-09
1.0708e-08
1.16742e-08
1.27207e-08
1.38408e-08
1.50059e-08
1.62547e-08
1.76544e-08
1.94513e-08
2.20188e-08
2.58694e-08
3.19034e-08
4.14399e-08
5.63292e-08
7.9295e-08
1.13645e-07
1.61372e-07
2.2673e-07
3.18143e-07
4.45036e-07
6.31541e-07
8.72265e-07
1.17204e-06
1.44993e-06
1.6301e-06
9.13873e-07
4.43508e-07
1.44966e-07
1.02247e-08
-7.86061e-08
-1.23576e-07
-1.45943e-07
-1.49451e-07
4.26462e-09
-2.52225e-09
-7.47017e-10
-7.75974e-10
-3.69969e-10
-2.73297e-10
2.13769e-11
2.12099e-10
4.08551e-10
6.24669e-10
7.93381e-10
1.05477e-09
1.28206e-09
1.61953e-09
1.93489e-09
2.2685e-09
2.57442e-09
2.80523e-09
2.9522e-09
3.09612e-09
3.16068e-09
3.35575e-09
3.67488e-09
4.3487e-09
5.33289e-09
6.66084e-09
8.10023e-09
9.47112e-09
1.04121e-08
1.07526e-08
1.04636e-08
9.72809e-09
8.70671e-09
7.59121e-09
6.49896e-09
5.54394e-09
4.75741e-09
4.15013e-09
3.75612e-09
3.56901e-09
3.59378e-09
3.75327e-09
3.95844e-09
4.1996e-09
4.51306e-09
4.85982e-09
5.06142e-09
5.0199e-09
4.42173e-09
3.79777e-09
2.93607e-09
2.28033e-09
4.15648e-09
4.36347e-08
1.20096e-09
-2.32216e-08
-3.80563e-08
-4.49508e-08
-5.17101e-08
-2.84476e-07
-3.14868e-09
-5.20105e-09
-3.16705e-09
-2.6928e-09
-1.95163e-09
-1.45217e-09
-7.86086e-10
-2.35056e-10
3.44503e-10
8.97423e-10
1.38456e-09
2.02818e-09
2.54251e-09
3.13961e-09
3.50955e-09
3.66033e-09
3.58258e-09
3.33771e-09
2.98302e-09
2.64511e-09
2.24093e-09
1.95827e-09
1.72794e-09
1.68219e-09
1.68719e-09
1.75026e-09
1.77368e-09
1.78177e-09
1.72717e-09
1.62482e-09
1.47079e-09
1.28816e-09
1.07834e-09
8.70338e-10
6.77652e-10
5.31781e-10
4.4797e-10
4.34406e-10
5.08318e-10
6.84173e-10
9.46347e-10
1.24292e-09
1.51808e-09
1.79583e-09
2.15504e-09
2.7222e-09
3.36572e-09
4.0767e-09
4.47461e-09
4.22361e-09
3.77136e-09
3.12263e-09
8.7142e-10
-1.57759e-09
-5.15433e-09
-1.73786e-08
-2.49722e-08
-2.85637e-08
-4.065e-08
-2.95756e-07
-4.72755e-09
-5.97478e-09
-3.50003e-09
-2.61083e-09
-1.64052e-09
-1.01447e-09
-3.94132e-10
-1.38134e-10
1.37544e-12
2.7754e-11
1.44471e-13
9.53469e-12
-4.73954e-12
7.43637e-12
-1.3683e-11
-4.8738e-11
-1.18222e-10
-1.93964e-10
-2.96802e-10
-3.73382e-10
-4.84655e-10
-5.4118e-10
-5.6368e-10
-4.76885e-10
-3.31001e-10
-1.32908e-10
5.69363e-11
2.33333e-10
3.60861e-10
4.3425e-10
4.47235e-10
4.07716e-10
3.26074e-10
2.151e-10
1.00666e-10
1.61948e-11
-1.44139e-11
2.40385e-11
1.42645e-10
3.54352e-10
6.56035e-10
1.02651e-09
1.41272e-09
1.70081e-09
1.81268e-09
1.75687e-09
1.76076e-09
1.93491e-09
2.16835e-09
2.67686e-09
3.81688e-09
5.00375e-09
2.52605e-09
-1.15266e-09
-3.64669e-09
-1.19071e-08
-1.8415e-08
-2.28725e-08
-4.71493e-08
-2.9256e-07
-1.33007e-10
-5.66438e-09
-3.266e-09
-2.64609e-09
-2.19881e-09
-1.90539e-09
-1.62804e-09
-1.45288e-09
-1.3216e-09
-1.24061e-09
-1.16953e-09
-1.09591e-09
-1.0297e-09
-9.624e-10
-9.17996e-10
-8.85114e-10
-8.76723e-10
-8.65944e-10
-8.79428e-10
-8.74569e-10
-8.94876e-10
-8.91676e-10
-8.70665e-10
-7.82913e-10
-6.51446e-10
-4.84804e-10
-3.21521e-10
-1.67984e-10
-4.63516e-11
3.44974e-11
6.82356e-11
6.44418e-11
2.99701e-11
-2.47317e-11
-8.24025e-11
-1.19214e-10
-1.08281e-10
-2.8829e-11
1.40181e-10
4.34707e-10
9.02021e-10
1.60131e-09
2.55629e-09
3.60881e-09
3.86869e-09
3.15961e-09
2.14295e-09
1.49812e-09
8.9861e-10
3.07016e-10
3.56492e-10
3.54517e-09
5.16576e-09
-2.26948e-10
-2.76988e-09
-4.4127e-09
-1.11154e-08
-2.40613e-08
-4.92352e-08
-2.82408e-07
3.05467e-08
-3.53696e-09
-2.21413e-09
-1.82596e-09
-1.63919e-09
-1.4874e-09
-1.33629e-09
-1.22798e-09
-1.14359e-09
-1.08284e-09
-1.02174e-09
-9.5874e-10
-8.96211e-10
-8.33238e-10
-7.87743e-10
-7.49175e-10
-7.24543e-10
-7.0521e-10
-7.0011e-10
-6.97178e-10
-7.00984e-10
-6.83612e-10
-6.4559e-10
-5.63389e-10
-4.53951e-10
-3.35243e-10
-2.34074e-10
-1.49611e-10
-8.31561e-11
-4.42489e-11
-3.95367e-11
-5.39232e-11
-7.40497e-11
-9.09736e-11
-9.73838e-11
-7.73219e-11
-8.89089e-12
1.31052e-10
3.72987e-10
7.65418e-10
1.3908e-09
2.38259e-09
3.98685e-09
6.11551e-09
7.20811e-09
6.17276e-09
4.46397e-09
2.85031e-09
1.29602e-09
4.44432e-10
2.12907e-10
4.52593e-10
5.68623e-09
6.7936e-10
-2.23532e-09
-3.81392e-09
-5.48669e-09
-2.44858e-08
-4.88201e-08
-2.71857e-07
9.4061e-08
-1.55921e-09
-1.32517e-09
-1.23241e-09
-1.16854e-09
-1.09159e-09
-1.00692e-09
-9.30845e-10
-8.55663e-10
-7.75144e-10
-6.67149e-10
-5.14652e-10
-3.10621e-10
-4.63523e-11
2.42663e-10
5.15494e-10
7.82516e-10
1.05944e-09
1.33467e-09
1.42354e-09
1.52104e-09
1.73486e-09
2.13793e-09
2.69588e-09
3.37229e-09
4.05556e-09
4.59309e-09
4.95908e-09
5.21871e-09
5.3905e-09
5.30849e-09
4.88098e-09
4.20899e-09
3.49537e-09
2.90922e-09
2.12534e-09
1.43338e-09
1.1724e-09
1.25213e-09
1.58704e-09
2.30404e-09
3.54501e-09
5.69511e-09
8.58409e-09
1.05872e-08
9.64785e-09
6.32897e-09
1.91915e-09
2.76468e-10
5.64522e-11
3.13831e-11
2.3104e-10
4.64373e-09
1.29434e-09
-1.85602e-09
-3.5167e-09
-4.61717e-09
-2.3923e-08
-4.83979e-08
-2.70065e-07
1.10987e-07
-1.13688e-09
-1.01384e-09
-9.12914e-10
-8.52851e-10
-7.29046e-10
-5.40896e-10
-2.58503e-10
1.60209e-10
7.69401e-10
1.65912e-09
2.99248e-09
4.77037e-09
7.05478e-09
9.49797e-09
1.13895e-08
1.30051e-08
1.48641e-08
1.61206e-08
1.66757e-08
1.71942e-08
1.7738e-08
1.90049e-08
2.11378e-08
2.40553e-08
2.74989e-08
3.06975e-08
3.3095e-08
3.48231e-08
3.63835e-08
3.74088e-08
3.72819e-08
3.57667e-08
3.2952e-08
2.86103e-08
2.32482e-08
1.79639e-08
1.32242e-08
9.67455e-09
7.60119e-09
7.24912e-09
7.61543e-09
9.10266e-09
1.19729e-08
1.4583e-08
1.37355e-08
3.22693e-09
2.13707e-10
2.85441e-11
1.04786e-11
1.12813e-11
4.14989e-10
6.64085e-09
2.36246e-09
-1.55212e-09
-3.61203e-09
-4.75294e-09
-2.25161e-08
-4.80329e-08
-2.71307e-07
6.32962e-08
-5.13435e-10
-3.79885e-10
2.54662e-11
5.3855e-10
1.3295e-09
2.37765e-09
3.8931e-09
5.85897e-09
8.19293e-09
1.10638e-08
1.56371e-08
2.07562e-08
2.63758e-08
3.13698e-08
3.45667e-08
3.66846e-08
3.88616e-08
4.0676e-08
4.16076e-08
4.18599e-08
4.18113e-08
4.17861e-08
4.27173e-08
4.46274e-08
4.70862e-08
4.95819e-08
5.17573e-08
5.36999e-08
5.51461e-08
5.57313e-08
5.55125e-08
5.41845e-08
5.12448e-08
4.69283e-08
4.20927e-08
3.72419e-08
3.17543e-08
2.56393e-08
1.99835e-08
1.58551e-08
1.32953e-08
1.21254e-08
1.28662e-08
1.66224e-08
1.62782e-08
2.74614e-09
4.71646e-11
1.08781e-11
6.50069e-12
2.16245e-11
2.19094e-09
1.04438e-08
4.15915e-09
-1.07424e-09
-3.9924e-09
-5.4364e-09
-2.03864e-08
-4.80066e-08
-2.8078e-07
2.16785e-07
4.6575e-10
1.80864e-09
4.1925e-09
6.56441e-09
9.35648e-09
1.20388e-08
1.41266e-08
1.57031e-08
1.74261e-08
1.92448e-08
2.11165e-08
2.30562e-08
2.47598e-08
2.64859e-08
2.82699e-08
3.02812e-08
3.25207e-08
3.42611e-08
3.56868e-08
3.65476e-08
3.65644e-08
3.58966e-08
3.47287e-08
3.28284e-08
3.04822e-08
2.75731e-08
2.40372e-08
2.03953e-08
1.74518e-08
1.53945e-08
1.39809e-08
1.28785e-08
1.17426e-08
1.05014e-08
9.29335e-09
8.25805e-09
7.4885e-09
7.01759e-09
7.09093e-09
7.74658e-09
7.66893e-09
7.34565e-09
7.76465e-09
1.1657e-08
1.66693e-08
2.36602e-09
3.07036e-11
1.68905e-11
1.99933e-11
8.56347e-11
8.08168e-09
1.95023e-08
9.03431e-09
3.72276e-10
-4.27992e-09
-6.35447e-09
-1.76732e-08
-4.72191e-08
-2.7084e-07
3.69219e-07
-2.75953e-10
2.34078e-09
6.81305e-09
9.75359e-09
1.29932e-08
1.5836e-08
1.78793e-08
1.8659e-08
1.90043e-08
1.95259e-08
2.06228e-08
2.20423e-08
2.34997e-08
2.4803e-08
2.57168e-08
2.6106e-08
2.60492e-08
2.56607e-08
2.49941e-08
2.40602e-08
2.27347e-08
2.10996e-08
1.93485e-08
1.78977e-08
1.6895e-08
1.60997e-08
1.54899e-08
1.51528e-08
1.48851e-08
1.45425e-08
1.41092e-08
1.34268e-08
1.21901e-08
1.02437e-08
8.04439e-09
6.50134e-09
5.59292e-09
5.04509e-09
4.98221e-09
5.24645e-09
5.30733e-09
5.59526e-09
7.11563e-09
1.32417e-08
1.78344e-08
1.50783e-09
3.42689e-11
3.18882e-11
4.61301e-11
3.23728e-10
1.69246e-08
2.42898e-08
1.07871e-08
7.75776e-10
-4.45184e-09
-6.72657e-09
-1.82243e-08
-4.69724e-08
-2.64224e-07
4.61228e-07
3.46895e-09
1.39319e-09
5.06818e-09
1.12751e-08
1.37506e-08
1.49391e-08
1.73124e-08
2.3801e-08
2.79747e-08
2.94501e-08
3.07987e-08
3.22221e-08
3.33975e-08
3.37257e-08
3.42224e-08
3.51449e-08
3.44369e-08
2.79909e-08
2.63471e-08
2.51199e-08
2.81922e-08
2.64093e-08
2.13877e-08
1.98763e-08
2.01783e-08
2.08077e-08
2.12443e-08
2.1565e-08
2.17216e-08
2.15542e-08
2.09452e-08
1.97028e-08
1.73705e-08
1.35353e-08
9.79199e-09
7.84286e-09
6.43571e-09
5.63448e-09
5.00168e-09
4.21287e-09
4.17e-09
5.83582e-09
1.02691e-08
1.79322e-08
1.9419e-08
4.80647e-10
3.41134e-11
3.51968e-11
5.93072e-11
1.29862e-09
2.00882e-08
2.58705e-08
1.15404e-08
1.10401e-09
-4.38647e-09
-6.74033e-09
-1.8546e-08
-4.67026e-08
-2.57543e-07
3.78357e-07
-1.20303e-09
1.76073e-09
3.40903e-09
3.96316e-09
2.51778e-09
1.87079e-09
3.14897e-09
1.19361e-08
2.69553e-08
2.80295e-08
2.84658e-08
2.93567e-08
3.08158e-08
3.2729e-08
3.49854e-08
3.73977e-08
3.78803e-08
3.50807e-08
2.95774e-08
2.81979e-08
3.08821e-08
3.25478e-08
2.9884e-08
2.43821e-08
2.25002e-08
2.47655e-08
2.63516e-08
2.78481e-08
2.93828e-08
3.07385e-08
3.17963e-08
3.21925e-08
3.16673e-08
2.98734e-08
2.61472e-08
2.03061e-08
1.40788e-08
9.59998e-09
6.89262e-09
5.56167e-09
5.59402e-09
7.15018e-09
1.14677e-08
1.7966e-08
2.00215e-08
9.4077e-10
3.37372e-11
3.14027e-11
4.72678e-11
5.19661e-10
1.66501e-08
2.33384e-08
1.08607e-08
8.98306e-10
-4.29444e-09
-6.54162e-09
-1.81553e-08
-4.66984e-08
-2.56946e-07
3.42093e-07
2.10433e-10
1.74327e-09
4.37821e-09
5.70109e-09
4.67243e-09
4.44128e-09
7.47242e-09
1.45434e-08
1.6434e-08
1.72062e-08
1.83108e-08
2.0101e-08
2.23986e-08
2.5073e-08
2.79453e-08
3.07852e-08
3.31815e-08
3.49168e-08
3.54493e-08
3.41113e-08
3.14471e-08
2.91734e-08
2.79102e-08
2.75843e-08
2.80761e-08
2.91102e-08
3.02908e-08
3.16235e-08
3.35472e-08
3.55319e-08
3.76049e-08
3.86285e-08
3.82793e-08
3.64641e-08
3.2844e-08
2.72572e-08
2.03308e-08
1.52849e-08
1.19502e-08
1.01235e-08
9.50336e-09
9.06103e-09
9.79448e-09
1.31078e-08
1.68935e-08
3.46914e-09
3.64071e-11
2.35477e-11
2.93646e-11
1.06019e-10
6.75054e-09
1.81749e-08
9.11062e-09
3.18791e-10
-4.13689e-09
-6.13695e-09
-1.69696e-08
-4.68377e-08
-2.58854e-07
6.34706e-08
5.28449e-10
2.40167e-09
5.00576e-09
7.33568e-09
1.04017e-08
1.26853e-08
1.42178e-08
1.56615e-08
1.72972e-08
1.95769e-08
2.25174e-08
2.61668e-08
3.04318e-08
3.51536e-08
4.01846e-08
4.50984e-08
4.94091e-08
5.2792e-08
5.46789e-08
5.4273e-08
5.01467e-08
4.71831e-08
4.60786e-08
4.56501e-08
4.10027e-08
4.1591e-08
4.462e-08
4.85238e-08
5.1928e-08
5.37358e-08
5.34998e-08
5.02267e-08
4.29959e-08
3.59053e-08
2.94629e-08
2.33929e-08
1.7723e-08
1.30509e-08
9.68089e-09
7.39732e-09
5.81127e-09
5.15313e-09
6.14154e-09
9.80645e-09
1.5792e-08
6.3394e-09
5.77443e-11
2.13474e-11
2.09207e-11
3.83981e-11
1.59067e-09
1.26651e-08
5.90136e-09
-4.74639e-10
-3.78021e-09
-5.35435e-09
-1.62048e-08
-4.70613e-08
-2.62719e-07
4.8175e-08
2.69351e-10
7.62206e-10
2.01399e-09
4.11395e-09
6.87222e-09
1.02807e-08
1.32914e-08
1.8107e-08
2.30874e-08
2.8573e-08
3.46636e-08
4.11257e-08
4.76548e-08
5.31265e-08
5.76809e-08
6.12967e-08
6.36522e-08
6.44803e-08
6.28399e-08
5.78552e-08
5.21125e-08
4.73328e-08
4.51858e-08
4.22874e-08
3.99531e-08
4.34683e-08
5.01997e-08
5.36613e-08
4.61664e-08
3.42703e-08
3.77256e-08
4.21626e-08
3.52184e-08
2.49587e-08
1.68818e-08
1.22698e-08
8.96249e-09
6.37609e-09
4.53312e-09
3.5237e-09
3.34906e-09
4.4218e-09
7.49704e-09
1.25621e-08
1.73101e-08
7.33073e-09
1.35244e-10
2.22793e-11
1.47061e-11
2.06017e-11
6.75924e-10
7.03387e-09
2.67889e-09
-1.31407e-09
-3.39603e-09
-4.49396e-09
-1.97678e-08
-4.74414e-08
-2.6266e-07