/*--------------------------------*- C++ -*----------------------------------*\
| =========                 |                                                 |
| \\      /  F ield         | OpenFOAM: The Open Source CFD Toolbox           |
|  \\    /   O peration     | Version:  2.1.1                                 |
|   \\  /    A nd           | Web:      www.OpenFOAM.org                      |
|    \\/     M anipulation  |                                                 |
\*---------------------------------------------------------------------------*/
FoamFile
{
    version     2.0;
    format      ascii;
    class       volScalarField;
    location    "0.00115";
    object      epsilon;
}
// * * * * * * * * * * * * * * * * * * * * * * * * * * * * * * * * * * * * * //

dimensions      [0 2 -3 0 0 0 0];

internalField   nonuniform List<scalar> 
36520
(
78.8132
225.036
468.642
564.21
645.508
659.574
661.436
656.088
659.963
662.62
654.222
636.287
606.639
570.971
530.466
488.76
446.687
406.911
368.425
332.65
297.972
265.096
232.947
202.128
172.615
145.282
120.347
98.2834
79.1735
63.1175
49.9196
39.3609
31.0784
24.7016
19.8556
16.2082
13.4613
11.3729
9.74753
8.42319
7.26966
6.18832
5.15698
4.23
3.45532
2.653
1.87644
1.19229
0.700818
0.314306
0.0724397
0.0165015
0.0114816
0.0094195
0.00868277
0.00768961
0.00780201
0.00727848
0.00771826
0.00933955
14.0532
59.8645
82.8256
72.7934
60.0678
44.8377
40.4159
39.8137
40.0084
39.7052
39.0813
37.6573
34.6547
31.064
27.5774
25.078
23.2431
22.1039
21.2251
20.3805
19.2954
17.9407
16.1437
14.0168
11.7732
9.64136
7.70447
6.03881
4.72756
3.77239
3.13587
2.76822
2.61748
2.63809
2.79931
3.07544
3.45004
3.93008
4.53995
5.31442
6.30698
7.60412
9.3828
11.9898
15.5771
20.1253
25.7929
31.3298
34.6488
26.1425
8.99596
0.649355
0.0189337
0.00492781
0.00516063
0.00536522
0.00556838
0.00562783
0.00616189
0.00234889
4.2536
14.1141
15.018
10.0248
6.18279
3.53907
3.03427
2.84999
2.73555
2.64676
2.59592
2.53262
2.31117
2.06442
1.86289
1.78133
1.77805
1.83531
1.92539
2.00734
2.0624
2.08226
2.04944
1.97992
1.91162
1.87932
1.89794
1.97857
2.13027
2.35032
2.63607
2.99247
3.43023
3.97368
4.65138
5.50926
6.61649
8.0599
9.95236
12.4372
15.7161
20.0377
25.8148
33.7412
44.7704
59.4081
77.925
95.5234
98.9893
75.0638
31.1911
3.81285
0.121897
0.00370715
0.00116403
0.00116002
0.00117343
0.00121095
0.0019622
0.00176216
1.48831
3.56237
3.01118
1.77628
1.45445
2.10978
4.27619
2.49819
0.687111
0.480116
0.495753
0.551654
0.609013
0.683383
0.78248
0.909317
1.06535
1.25432
1.48292
1.75915
2.09092
2.49416
2.98749
3.60374
4.37425
5.33092
6.48018
7.81671
9.25751
10.7075
12.096
13.3871
14.4991
15.5426
16.2272
16.8853
18.8699
21.9569
26.3072
32.2802
40.4993
51.6018
66.3373
85.7237
110.055
140.09
189.569
241.318
232.353
165.906
75.1569
14.4531
0.686268
0.0208848
0.000617544
0.000168853
0.000151858
0.000184141
0.000954765
0.00165872
0.563667
1.2277
1.72246
4.07199
11.7359
31.3669
71.2377
43.0569
7.50643
1.72408
1.48977
1.84867
2.34163
2.98722
3.74769
4.51853
5.30282
6.37046
7.97849
10.0898
13.083
17.2074
22.9242
30.9101
41.9886
57.1535
77.3397
103.74
135.151
169.479
206.005
246.21
289.839
283.374
227.484
156.808
105.844
92.3592
98.0638
109.89
129.255
157.366
197.343
254.265
322.542
372.904
448.667
524.688
467.946
335.92
160.021
39.9397
2.98281
0.123944
0.00376274
0.000106551
2.011e-05
5.63594e-05
0.000812327
0.00163738
0.260666
3.83568
14.6585
54.1275
165.843
420.229
855.49
588.34
141.301
30.931
22.6614
27.7441
34.4969
42.7463
51.0488
57.8264
65.5452
80.4397
98.4506
119.17
144.833
180.66
247.201
348.279
495.076
698.932
972.387
1361.05
1868.69
2432.7
2974.5
3424.27
3513.18
3204.72
2614.7
1943.07
1349.1
933.562
713.526
634.093
634.789
660.291
703.051
835.418
973.182
1052.02
1086.65
1019.27
822.765
594.031
334.709
94.0112
10.4598
0.60113
0.0261993
0.000710221
1.67591e-05
4.36233e-05
0.000792979
0.00162877
0.481446
51.9936
215.829
734.08
1980.68
4358.68
7516.95
5705.28
2130.79
657.83
375.16
454.33
597.161
791.745
995.785
1159.94
1359.06
1504.01
1691.85
1886
2030.49
2089.63
2213.1
2694.03
3627.2
4847.79
6116.52
7589.81
9444.02
11441.7
13026.1
13900.2
14195.1
13647.7
12190.8
10163.2
7982.85
5996.06
4417.98
3157.61
2305.19
1834.59
1587.39
1488.98
1464.67
1425.86
1355.66
1193.87
947.776
695.637
485.616
204.79
31.9569
2.41613
0.125042
0.0040297
8.45218e-05
4.29797e-05
0.000784909
0.00161899
12.313
568.301
1930.26
5886.4
14251.1
25318.7
35269
34221
22177.6
10886.2
7111.03
8624.37
11440
15324.9
19259.9
21766.6
21087
18536.7
16042.2
15509.4
15931.7
16656.1
17584.5
18723.4
20461.8
23015.1
25812.6
28230.3
30097.3
31269.2
31452.7
30777.8
29602.8
27989.8
25741.9
22731
19234
15642.3
12415.1
9648.03
7319.03
5347.08
3841.64
3037.33
2555.1
1970.73
1441.51
1088.61
818.383
601.092
446.541
238.481
57.2452
6.01669
0.388646
0.0153076
0.000372596
4.65883e-05
0.000776193
0.00160584
31.5636
659.185
2097.11
4331.21
7656.39
11218.3
14201.5
17252.2
20395.2
23900.7
27534
32207.6
37813.9
43842.7
50103.6
54378.4
54487.1
50835.4
45914.9
41603
38207.1
35696.8
33955.8
32603.6
31387.2
30549
30005.6
29418
28640.1
27774.1
26826.5
25654.1
24321.5
22890.5
21272.5
19381
17150
14728.4
12445.4
10563.9
9072.94
7815.94
6415.23
4965.4
3904.7
3089.34
2232.62
1471.82
915.413
566.179
371.411
203.591
63.7072
9.95987
0.884731
0.0445846
0.00131798
6.3544e-05
0.000769979
0.00159616
26.1743
525.527
1837.62
3330.96
5347.69
7663.75
10032.8
12189
13452.4
13931
14190.4
14773.4
16223
18321.9
21176.6
24359.3
27125.4
29382.5
31993.5
35323.3
37863.8
37601.6
34648
31101.7
28315.6
26410.8
24865.6
23553.5
22617.8
21971.4
21357.1
20549.9
19428.7
18014.6
16286.1
14386.3
12482.1
10631.7
8759.26
6794.42
4921.51
3391.17
2437.17
1869.2
1426.58
1058.99
807.414
604.021
427.634
315.466
253.46
160.94
55.624
9.587
0.927933
0.050041
0.00155119
6.83533e-05
0.000769536
0.00159698
16.2767
320.569
1825.01
4191.03
7043.37
12862.7
21060.6
28502
33765
36310.3
37012.1
37132
37696.2
40467.3
45032.8
49849.3
54264.1
59169
65617.6
74081.5
82172.6
83560
76148.2
67189.1
61169.2
58077.1
56811.8
56536.9
57116.9
57971.9
58326.5
57549.6
55482.7
52262.4
48037.4
42973.3
37236.7
31019.4
24684.8
17900.8
11499.3
6835.44
3990.24
2540.6
1845.52
1410.7
1092.75
835.164
608.198
451.535
356.801
226.033
78.1107
13.4175
1.28046
0.068182
0.00208085
7.70546e-05
0.000766969
0.0015932
13.259
380.429
1521.1
5504.63
13637.5
29922.8
45500.9
58321
66806.8
69542
71213
75779.2
85317.1
97000.2
108384
117694
123591
127895
131849
133893
129859
117986
101540
85634.9
75801.8
73508.7
76738.8
82662.7
88694
92889.3
94373
93086.4
89967.3
85449.1
79764
72550.7
63501.9
52258.2
39105.1
26241.5
15604.1
8311.95
4518.41
3035.24
2624.52
2403.13
2004.21
1670.27
1303.3
952.801
683.323
427.818
150.167
23.0933
1.7956
0.0799358
0.0020977
7.3011e-05
0.000768522
0.00159706
19.9086
527.063
1312.87
4830.74
12364.5
26329.8
39176.9
54007.4
65165.9
68573.9
72388.8
79161.6
88894.5
102045
115989
128665
137656
141920
142994
140581
133464
119841
102342
87584
79312.4
76722.3
77138.3
79972.5
84496.5
88068.6
89454.8
89065.8
87321.3
83667.9
77318
68396.3
57776.8
45772.4
33280.6
21657.6
12604.1
6853.7
3965.03
2949.08
3104.74
3425.12
3064.53
2410.15
1738.19
1175.79
788.265
474.021
163.509
24.1651
1.83474
0.0806778
0.0021049
7.30332e-05
0.000768509
0.00159642
18.6219
608.568
2730.17
5999.79
11032.9
15733.1
21161.2
30726.8
44881.1
52420.8
48929.2
46042.9
46991
51201.8
57031.7
62799
67699.2
71159.3
73857.5
77262.9
80860
78552.6
68004.7
56768.1
49414.3
45783.6
44653.7
44639.3
45334.2
46491
47378.7
47055
45349.1
42477.1
38598
34112.2
29454.7
24700.2
19587.8
14032.9
8864.76
5187.22
3104.77
2166.2
1872.02
1700.41
1389.69
1045.47
760.024
570.139
456.199
264.662
76.1924
11.8967
1.08993
0.0572485
0.00174098
7.09716e-05
0.000767953
0.00159518
22.385
374.236
2453.26
4534.81
5954.56
8168.93
12591.1
22839.3
43575.8
61527.4
58148.3
49525.8
47272
48380.2
51460.4
55476.9
58998.6
61408.6
61743.3
58621.6
53303
47409.6
42203.4
38410.7
35259.2
32579.1
31046.7
30482.9
30091.6
29682.9
29359.7
28674.7
27093.2
24351.3
20719.4
17040.2
13837.4
11179.8
8833.45
6605.68
4560.02
2958.61
1917.73
1330.54
1017.14
805.922
641.36
511.924
411.87
353.292
304.744
157.936
38.6569
5.85395
0.538925
0.0286343
0.000880667
5.60993e-05
0.00077049
0.00159991
16.2362
261.428
1452.85
3453.16
7875.27
16477.3
30127.8
46508.1
52028
44285.6
38401.2
38861.8
41392.7
45353.9
49897.7
52646.5
53522
52608.3
50258.4
46817.5
42906.1
40000.4
38095.4
35791.1
32935.4
30082.2
27855.6
26172.7
24573.1
22837.9
20911.5
18816.1
16661
14536.6
12478.9
10505.1
8694.43
7088.3
5683.15
4443.84
3319.75
2390.57
1753.21
1404.84
1295.22
1210.86
1005.52
752.406
543.853
416.802
337.62
171.366
40.3709
5.6844
0.48309
0.0241043
0.000710127
5.28846e-05
0.000771355
0.00159897
5.96615
276.366
1199.55
3138.64
7155.41
14531
19501.5
19462.3
15439.2
9952.11
6221.7
5166.96
6134.7
8236.89
11465.5
15465.6
17900.6
19125
19186
17904.6
16551.1
15927.8
15776.8
15364.6
15139.7
15694.2
17268.6
19317.5
20995.9
21887.4
21905
21251.4
20199.2
18491.9
15879.9
12772
9860.46
7508.8
5846.07
4720.64
3860.75
3255.44
2938.12
2807.01
2639.2
2259.04
1715.58
1191.24
813.531
572.555
423.89
206.629
43.8599
4.53654
0.286975
0.0111964
0.000272244
4.5165e-05
0.000774697
0.00160152
0.406597
23.4234
98.7326
356.647
1124.63
2857.37
4523.96
3916.83
2311.19
969.061
365.022
258.431
348.354
511.195
787.81
1212.21
1796.21
2250.77
2337.64
2118.22
1926.55
1766.8
1524.81
1408.56
1590.11
1903.87
2302.22
2718.94
3098.64
3414.13
3572.52
3490.21
3183.85
2739.77
2259.13
1855.29
1636.74
1534.34
1565.32
1685.22
1968
2473.19
3193.69
3872.46
4133.8
3807.36
3087.16
2262.96
1509.59
942.108
570.018
214.047
29.8392
2.0958
0.102175
0.00316756
6.64286e-05
4.35791e-05
0.000785304
0.00161814
0.477161
1.79883
6.77382
28.8582
105.94
298.709
560.794
439.262
191.064
51.42
15.9274
14.1778
18.2166
24.6083
34.7448
50.1984
72.2114
104.079
118.59
104.452
88.4064
75.3695
71.7991
81.2932
94.7229
111.77
130.66
148.547
162.672
170.992
170.748
164.318
157.784
155.186
159.982
175.142
204.925
252.978
327.079
440.527
624.589
928.732
1469.59
2328.18
2933.25
2834.92
2495.78
2113.61
1542.03
957.445
493.288
127.024
11.177
0.598428
0.02452
0.000639439
1.91349e-05
4.69978e-05
0.000795658
0.00162895
1.09851
0.993616
0.683778
1.46162
5.43523
17.2923
39.1087
29.322
9.90108
2.31352
1.27028
1.43982
1.81889
2.33259
3.03949
4.01373
5.35469
7.22671
8.45882
8.54984
8.70176
9.29196
10.6002
12.4149
14.6374
17.3701
20.5667
24.1288
27.9013
31.7835
35.7619
40.1664
45.4456
52.1697
61.1707
73.5459
91.3682
117.454
156.611
217.812
317.858
486.373
773.517
1048.96
1117.77
1034.77
968.318
895.833
743.523
511.12
249.242
60.9008
4.08366
0.159367
0.00448653
0.000121989
2.65557e-05
6.31064e-05
0.000819612
0.00164009
2.7909
3.42585
1.82678
0.654897
0.434321
0.72749
1.59838
1.27722
0.55802
0.393073
0.440793
0.533359
0.655121
0.80257
0.985744
1.21014
1.47819
1.78888
2.07967
2.36446
2.6882
3.08949
3.59222
4.20724
4.94734
5.84268
6.89467
8.09878
9.42625
10.8736
12.4582
14.2838
16.5278
19.4476
23.4016
28.914
36.9047
48.8628
67.2661
95.9941
140.677
208.033
300.587
396.974
442.759
441.895
435.638
405.368
342.413
245.976
122.295
27.4253
1.28788
0.0384665
0.000915807
0.000123221
0.000118754
0.000161533
0.000933297
0.00165251
6.12929
13.2364
10.0249
4.7532
2.4861
1.3206
1.13119
1.05428
1.02813
1.03366
1.0491
1.05407
1.06498
1.04242
0.998863
1.00079
1.05869
1.1588
1.27033
1.39605
1.53823
1.70871
1.90816
2.10534
2.29624
2.50654
2.76572
3.10239
3.5303
4.06862
4.74094
5.59385
6.70124
8.18527
10.2352
13.1433
17.4163
23.9448
34.3329
51.4131
80.1897
130.004
193.556
236.528
235.836
206.021
170.111
130.18
102.836
79.3471
39.1582
6.50663
0.200461
0.00469346
0.000773086
0.00080468
0.00087985
0.00095479
0.00173358
0.00173087
15.5881
56.1353
63.4064
46.8599
36.7551
27.3851
25.054
23.928
23.2976
22.6813
21.9833
20.8772
19.6973
18.061
15.9653
14.1898
12.8763
12.0909
11.4593
10.9675
10.5757
10.3115
9.99177
9.36072
8.4201
7.32239
6.25073
5.34103
4.64442
4.18217
3.9522
3.92661
4.07191
4.37897
4.86832
5.58576
6.60407
8.04875
10.1453
13.295
18.2033
24.3534
29.8688
31.6981
30.0596
27.6812
25.2511
22.9679
20.6535
16.2668
7.04564
0.77871
0.0191478
0.0038765
0.00409941
0.00435595
0.00461036
0.0047343
0.0052994
0.00218314
119.508
223.759
423.744
482.634
537.562
551.911
557.129
553.287
548.662
541.474
527.489
508.841
481.599
450.812
415.703
379.257
342.072
307.423
275.29
246.635
219.753
194.81
170.756
148.24
126.806
106.978
88.9948
73.2937
59.8387
48.6181
39.4689
32.1979
26.4605
21.9571
18.412
15.6264
13.4162
11.6169
10.0959
8.71215
7.34916
5.90136
4.36767
3.06059
2.06811
1.32584
0.778374
0.408449
0.19912
0.0934166
0.035139
0.0135446
0.0101252
0.00877342
0.00822975
0.0074195
0.00748953
0.00698026
0.00732167
0.00818487
79.0544
166.125
335.266
400.292
473.073
511.486
543.222
556.577
556.891
548.725
528.722
505.152
472.996
439.947
403.247
367.36
331.697
298.124
266.309
237.113
209.395
183.747
159.334
136.527
115.171
95.9107
78.8668
64.2735
52.0111
41.9755
33.8985
27.5097
22.4921
18.6027
15.6186
13.3546
11.6205
10.2495
9.10448
8.04647
6.9741
5.75513
4.38043
3.15015
2.19985
1.49064
0.953177
0.549293
0.282268
0.134256
0.0491468
0.0146508
0.00978058
0.00846724
0.00799475
0.00724913
0.00734995
0.00687941
0.00727104
0.00877188
12.433
39.3949
51.3939
45.3057
44.5173
39.9534
38.3795
35.266
32.7582
29.9932
27.6955
24.5854
22.1063
19.3522
17.0597
15.1846
13.573
12.4839
11.6911
11.0452
10.4529
9.84584
9.10026
8.17453
7.10755
6.06794
5.16781
4.46873
3.97668
3.69383
3.60215
3.6739
3.89161
4.26181
4.80474
5.5562
6.57767
7.96541
9.86662
12.5089
15.8204
19.4208
22.8279
25.5301
27.6348
29.4473
30.749
30.3464
27.7004
22.1361
10.6858
1.46933
0.0364811
0.00431633
0.00428628
0.00450807
0.00472204
0.00482097
0.00538307
0.00225697
3.49277
8.36565
7.80453
5.06156
4.18506
3.10425
2.71178
2.23864
1.95645
1.71985
1.56168
1.37059
1.25412
1.13854
1.07635
1.06267
1.08346
1.1493
1.24962
1.37132
1.51033
1.66432
1.82538
1.99727
2.19057
2.43827
2.76549
3.19613
3.74619
4.43816
5.30109
6.38441
7.75549
9.53639
11.9279
15.2502
20.0399
27.2062
38.1994
55.1232
81.5947
123.204
176.283
215.226
220.632
196.409
173.476
147.378
117.408
93.7823
50.7259
10.0607
0.352961
0.00692602
0.000807852
0.000783061
0.000841022
0.000903997
0.00168605
0.00173645
1.31574
1.98367
1.3331
0.662069
0.503966
0.374486
0.368232
0.375562
0.429583
0.510695
0.626267
0.77107
0.953615
1.17343
1.43279
1.73281
2.0779
2.46573
2.89781
3.39559
3.98983
4.69252
5.51931
6.50495
7.67206
9.0471
10.6262
12.4222
14.4365
16.6992
19.2988
22.4788
26.6583
32.5202
41.1356
54.387
75.8664
112.299
175.782
288.316
492.854
865.538
1524.25
2279.92
2504.32
1982.88
1337.32
877.115
547.821
335.538
169.195
42.677
2.5007
0.0610846
0.00134908
0.000100385
8.89586e-05
0.000131998
0.00090343
0.00164688
0.583709
0.595471
0.371236
0.281338
0.352798
0.489031
0.719583
1.04801
1.51671
2.14301
2.97921
4.0569
5.40671
7.02128
8.86296
10.86
13.029
15.4115
17.6889
20.0559
22.8622
26.3983
30.6272
35.486
40.9543
46.9255
53.1078
59.4538
66.0392
72.6448
79.2503
86.7046
96.5546
110.885
132.434
165.525
218.452
307.924
468.789
773.743
1384.03
2580.85
4775.54
8060.87
9552.94
7407.42
4099.76
2321.27
1592.6
1022.29
498.608
129.603
12.1975
0.422699
0.0125897
0.00027851
1.41046e-05
5.00953e-05
0.000806195
0.00163424
0.31763
0.539085
0.693302
1.04194
1.62091
2.54049
3.99681
6.20678
9.56297
14.2993
21.0006
30.2166
42.2364
57.1105
73.7399
90.1344
105.074
117.521
127.189
131.942
137.888
150.402
170.149
195.737
224.96
252.917
272.994
284.335
290.255
291.703
285.558
272.92
261.937
262.497
279.922
317.568
392.939
531.595
782.374
1252.52
2199.09
4112.95
8183.63
15411
19658.9
15664.5
9276.82
4905.86
2882.7
1773.01
946.011
317.699
41.7349
1.96919
0.0756477
0.00174883
2.99303e-05
4.33479e-05
0.000792192
0.00162685
0.249904
3.17531
6.15425
10.6203
16.1236
24.6461
38.3822
59.8329
93.5092
143.077
216.212
324.029
475.132
681.637
923.628
1155.4
1379.27
1608.97
1843.27
1855.32
1842.82
1933.31
2236.18
2708.7
3345.8
4074.52
4717.44
5189.12
5541.13
5843.13
5912.99
5598.17
4986.58
4344.76
3959.23
3061.24
2128.72
1831.17
2014.65
2532.96
3694.77
5813.04
9969.7
15558.7
18388.6
15928.7
11082.9
6925.93
4139.99
2249.96
1100.73
428.323
85.492
6.13291
0.255415
0.00657244
0.000111197
4.32679e-05
0.00078633
0.00161931
0.641066
30.5642
70.3307
127.98
181.571
266.482
409.223
645.68
1036.29
1637.87
2552.75
4002.67
6043.73
8853.25
12108.1
14838
16888.8
19338.8
20971.2
21228.6
21276.9
21449.2
23312.7
27121.7
32869.3
40565.7
48782.4
55850
61423.9
66830.8
71214.6
72617.6
70122.6
64147.7
54895.9
43592.4
32712.8
23331.5
16529.5
12474.3
11349.6
10917.9
11267.5
12600.9
13354.5
11276.6
8042.33
5008.42
2886.64
1576.69
834.927
369.92
92.2105
9.56438
0.523719
0.0170135
0.000345714
4.57203e-05
0.000778427
0.0016073
11.9254
435.133
783.028
1209.23
1839.09
2800.74
4233
6593.28
9965.68
14152.7
19513.3
28681.6
39628.1
51723.5
63247.5
70488.8
73117.3
75374.2
78151.9
78627
77063.6
75329.6
74782.4
77932.7
84569.9
93272.1
102030
109263
113888
114758
111948
106641
99149.7
89559.8
79391.1
70125.7
61159.5
51253.9
39846.1
28780.3
20137.5
14291.6
10062.6
7504.58
6768.67
6216.46
4724.34
2987.93
1746.67
997.012
591.025
284.872
75.2739
9.52248
0.681087
0.0289834
0.00074908
5.22992e-05
0.000770002
0.00159449
37.6864
1639.61
4664.84
9938.47
15487.3
21824.1
27860
32691.2
36522.9
41375.6
45668.6
48789.7
52140.5
55135
58081.4
61513.7
64939.7
67490.3
69484.2
70906.3
70903.8
68446.8
64059.7
59996
57268.3
55573.6
54035.3
51751
48262.6
43688.1
38973.6
34340.3
29866.1
25581.9
21605.9
18102.8
14971
12128.6
9565.63
7279.42
5346.27
3920.22
2902.61
2214.46
1865.1
1701.75
1417.06
1021.43
681.926
454.612
326.178
181.196
55.8979
9.04797
0.843147
0.0453289
0.00142548
6.63289e-05
0.000765911
0.00158982
28.2983
657.686
5002.66
13675.3
18453.4
23345.6
27346.5
29739.8
29306.5
27276.2
25587.2
25267.8
25883.9
26890.4
27888.5
28341.8
28051.4
27374.9
26637.9
25828.6
24860.8
23417.6
21397.6
19060.9
16928.4
15463.9
14556.8
13924.6
13474.1
13319.7
13306.1
13295.8
13178.3
12865.7
12293.1
11312
9885.05
8115.12
6300.07
4667.47
3293.04
2229.67
1498.21
1041.5
785.236
643.63
527.949
402.918
311.291
263.77
235.693
137.833
40.5809
6.78317
0.668079
0.0377428
0.00122931
6.31763e-05
0.000766825
0.00159247
22.3554
340.063
5204.57
20874.6
26732.6
29181.2
37258.8
46812.2
50398.5
50614.6
52011.2
53861
55586.2
56548
56044.6
53825.1
50428
46867.9
43367.4
39708
36070.7
32437.6
28791.2
25538.7
23114.4
21611.6
20794.2
20540.7
20742.4
21123
21396.8
21429.5
21221.7
20681.9
19486.6
17416.3
14476.1
11033
7701.17
4999.02
3060.38
1822.12
1136.03
782.542
599.359
487.818
415.652
354.156
307.557
295.236
252.339
121.801
31.2353
5.44588
0.561102
0.0326199
0.00107767
6.03088e-05
0.000764779
0.00158944
22.1878
285.52
3212.24
9561.54
13855.7
20523.8
32408.4
49392.1
60924.9
57348.8
50591.5
48047.9
48675
50682.5
52706.8
54019.8
54084.4
52341.9
49088.3
45230
41613.8
38301.7
34709.9
31012
27981.2
25982.5
24847.4
24489.4
24752.5
25269.1
25705.8
25939
25892.8
25484.2
24528.2
22701.8
19572.3
15216.7
10517.1
6591.47
3858.02
2188.12
1318.08
897.623
678.701
553.66
475.029
399.83
332.602
301.294
268.718
143.039
37.8312
6.37726
0.643783
0.0368089
0.00119912
6.2332e-05
0.000764282
0.00158799
24.9598
485.165
3245.7
9642.15
14998.8
20999.3
25920.2
27116.1
23894.6
21142.8
20438.7
20592.9
21378.4
22689.8
24239
26007.3
27851.1
29641.1
31250.9
31945.5
30915.4
28274.4
25193.5
22633.9
20844.2
19937.9
19741.7
20168.2
21124
22388.9
23680.5
24802.1
25650.7
25938.2
25238.1
23651.4
21389
18327.4
14484.7
10401.5
6959.68
4482
2852.79
1859.74
1344.55
1056.04
821.668
621.068
463.338
361.781
307.009
198.319
65.9568
10.6464
0.99971
0.0536422
0.00166579
7.01505e-05
0.000764967
0.00158806
47.096
958.684
2764.06
7442.18
10458.1
15006
17692.8
18317.8
18011.2
18252.6
19394.3
21450.7
24232.9
27673.1
31805.9
36266.4
41153.2
46378.1
51863.1
56647
57858.7
54808.2
50637.3
47913.7
46619.6
46511.1
47865.7
51019.8
56182.6
62553
68437.1
73325.8
77360.6
77531.4
68737.1
52181.4
35454.7
22881
14349
8707.74
5092.75
2895.99
1635.27
1001.68
803.515
883.755
891.321
748.515
596.528
473.474
387.561
271.748
105.704
17.3398
1.48614
0.0718736
0.0020382
7.47271e-05
0.000771098
0.00159659
63.4712
557.415
907.475
1718.49
3250.15
5894.56
9349
11898
16103.6
21687.8
29321.1
38700.3
49065.8
60072.7
70318.4
77631
81491.5
82187.7
79820.7
73711
64233.2
54954.3
49692.9
48512.4
50467.2
55051.5
61668.6
69050.9
75465.1
78214.6
75817.4
69609.2
60809.4
48766.9
34751.1
22498.9
14032.3
8702.75
5378.05
3291.14
2010.65
1272.2
925.703
920.843
1384.47
2036.96
2057.67
1667.52
1233.32
880.357
639.257
404.243
132.642
16.176
1.03765
0.0393749
0.000911742
5.38441e-05
0.0007768
0.00160697
15.0049
365.274
943.046
2313.58
4896.31
9542.57
14803.6
19929.5
25196.4
31460.8
41155.6
53608.1
68922.9
86103.5
101301
111862
116938
115854
110427
101416
90069.6
78945.4
71922.8
71569.4
74872.8
79653.8
84504.5
89075.8
92778.1
92420.3
86881.4
78183
67948.4
56413.4
43032.5
27175.7
13468.3
6071.15
3393.21
2437.51
2087.02
2109.84
2380.22
2933.37
3494.92
3448.28
2881.25
2205.77
1622.98
1165.94
833.385
488.871
142.927
15.8142
0.947195
0.0335704
0.000735788
5.13133e-05
0.00078027
0.00161104
2.83154
70.7195
176.373
385.727
758.684
1407.99
2530.71
3727.23
4860.32
7026.71
10306.9
11837.1
12031.9
13236.7
15172.4
17155.1
19508
21978.3
22711.1
22130
20981.4
20333.9
20859.7
22412.5
24749.8
28153.9
32142.2
36283.9
37527.4
35042.6
30527.8
25642.3
20861.2
16132.6
11325.3
7050.07
4319.7
3035.04
2520.89
2293.37
2329.11
2476.05
2727.12
3116.49
3309.58
3033.69
2476.88
1905.07
1434.48
1047.87
677.266
250.264
39.9321
3.34846
0.1857
0.00635724
0.000139957
4.35663e-05
0.000781398
0.00160902
0.912288
4.15095
8.89893
17.8274
32.5496
55.4728
88.1688
128.502
168.04
213.525
264.668
274.361
298.866
367.228
472.827
626.083
849.665
1161.71
1352.05
1343.88
1242.82
1149.52
1165.56
1391.36
1746.07
2250.42
2935.42
3820.01
4671.22
4827.08
4519.64
3991.12
3324.39
2579.45
1865.18
1380.54
1177.35
1200.11
1407.01
1788.92
2492.7
3382.36
4756.1
6419.05
7087.42
6508.67
5201.09
3675.75
2194.86
1080.7
400.846
110.084
12.4305
0.736779
0.0340712
0.00100037
2.28654e-05
4.35686e-05
0.000793353
0.00162826
1.81088
1.38032
1.15218
1.4067
2.14199
3.21422
4.56344
5.90907
7.01369
7.57215
7.61314
7.48055
8.00152
9.38953
11.5094
14.4493
18.2488
22.4347
26.192
28.1975
28.9341
33.1566
40.1655
49.8335
63.0063
80.8726
103.543
129.076
150.127
165.404
188.066
199.71
184.338
160.326
143.457
148.355
178.603
227.177
303.829
427.512
639.254
974.82
1552.66
2380.88
2552.64
2165.7
1816.09
1420.25
921.797
485.988
191.941
50.2694
3.77891
0.162402
0.0052149
0.000137667
1.58606e-05
5.30718e-05
0.000809873
0.00163633
3.30706
3.58488
2.16883
1.04309
0.7483
0.583134
0.578817
0.599363
0.642002
0.673644
0.71333
0.770161
0.869341
1.00483
1.174
1.38006
1.62403
1.90534
2.21925
2.58512
3.02654
3.56685
4.21659
5.0132
6.00293
7.23037
8.69199
10.3524
12.0828
13.8709
15.8042
17.8282
20.1139
23.0559
27.0854
32.7541
40.8785
52.8074
71.012
99.7855
146.711
222.334
340.705
483.606
518.523
489.981
470.984
445.49
347.985
208.326
91.6614
19.7968
0.967603
0.0301487
0.00076521
0.000114796
0.000111393
0.000153024
0.000927076
0.00165335
6.68919
13.7304
11.3085
6.80346
5.08167
3.51679
2.86847
2.34546
2.08171
1.88821
1.76342
1.65197
1.57023
1.47259
1.40153
1.3822
1.38635
1.44059
1.52758
1.63357
1.7443
1.85744
1.96856
2.08403
2.21396
2.39054
2.63846
2.97294
3.39088
3.8879
4.46957
5.15393
5.97787
7.00557
8.32956
10.0868
12.49
15.8511
20.682
27.8429
38.7927
55.5549
81.9877
107.731
119.259
119.552
123.41
126.919
111.745
77.143
34.0242
5.27066
0.170052
0.00440092
0.000857567
0.000881844
0.000942349
0.00100756
0.00178192
0.00174305
17.3269
55.6903
66.3656
54.9023
50.577
43.455
40.0293
36.1161
33.6149
31.1438
29.1551
26.9368
24.9672
22.6392
20.4303
18.6947
17.0422
15.8934
15.0041
14.2463
13.4174
12.4684
11.3191
9.98055
8.4654
6.94869
5.59853
4.53175
3.79421
3.35375
3.15026
3.11755
3.21388
3.40723
3.69592
4.09099
4.61995
5.31952
6.24629
7.50466
9.28428
11.9037
15.2965
18.6571
21.2091
23.4659
26.462
29.0794
28.1632
19.8291
7.75923
0.805049
0.0211253
0.00427999
0.00446294
0.0047012
0.00494492
0.00504093
0.00561876
0.00230295
100.24
211.053
399.456
464.612
532.576
565.412
586.034
588.518
580.794
565.655
543.538
519.171
489.561
458.782
424.433
390.649
356.407
324.103
292.916
263.991
235.596
208.472
182.005
156.921
132.915
110.683
90.6396
73.3394
58.8222
47.0535
37.6837
30.3358
24.5943
20.1113
16.5969
13.8462
11.6954
9.97835
8.54435
7.26419
6.04448
4.83799
3.70686
2.65323
1.83323
1.22974
0.79161
0.473992
0.265269
0.121732
0.0414299
0.0141611
0.0101489
0.00872054
0.00817265
0.00739265
0.00750125
0.00702861
0.00744894
0.00914532
98.3781
169.249
347.036
415.055
468.923
484.069
487.774
482.591
475.813
466.974
451.965
433.168
408.073
380.686
350.296
319.518
288.667
260.145
233.608
210.448
188.93
169.266
150.368
132.487
115.239
99.1345
84.4925
71.723
60.7828
51.6212
44.1136
38.1189
33.3419
29.5345
26.4536
23.928
21.8014
19.9301
18.1689
16.1914
13.7725
10.9525
8.18222
5.84011
4.05109
2.67865
1.62047
0.865844
0.418556
0.182953
0.0579254
0.0130355
0.00861666
0.00768827
0.00756027
0.00682506
0.00704204
0.00650764
0.00692074
0.00802375
57.2387
124.797
253.443
299.154
336.27
348.71
349.789
343.082
334.574
324.635
310.731
294.859
276.326
257.367
237.432
218.002
198.986
181.988
166.424
153.154
141.314
130.778
120.496
110.604
100.763
91.2539
82.2659
74.0947
66.6646
59.9914
54.0784
48.9723
44.6025
40.839
37.4923
34.4393
31.6951
29.2828
26.7356
23.7873
20.4405
16.7334
13.0476
9.80186
7.19312
5.1103
3.3806
2.00925
1.08841
0.50196
0.145748
0.0168799
0.007037
0.00641418
0.00659846
0.00602731
0.00631537
0.00582157
0.00621826
0.00716208
44.911
79.126
150.157
175.488
195.324
202.997
203.233
198.342
191.197
183.523
174.202
165.125
155.777
147.072
138.21
130.028
122.001
114.897
108.369
102.926
98.2381
94.0674
89.7553
85.2176
80.0363
74.3284
68.3927
62.5813
57.0002
52.0561
47.7543
43.9523
40.5321
37.5714
35.106
32.9912
31.0916
29.3501
27.7081
26.0786
24.2656
21.9728
19.0697
15.7883
12.3726
9.52451
7.03299
4.80619
3.09237
1.61891
0.493507
0.041315
0.00602385
0.00513436
0.00549839
0.00513588
0.00546735
0.00507817
0.00545331
0.00621578
37.5751
50.9156
81.4928
89.4371
97.9653
101.721
101.653
99.2071
95.5704
92.031
88.328
85.0552
81.9923
79.3263
76.5506
73.8706
70.9701
68.0078
64.9031
62.04
59.3274
56.6642
53.9156
51.2099
48.5676
46.3744
45.136
45.3103
47.6665
53.6889
58.9521
59.8034
54.4546
47.4316
42.2093
38.3254
36.0591
34.3374
34.0367
35.4277
38.5089
41.028
40.867
40.875
33.825
25.6607
18.056
12.2526
8.54708
5.07264
1.70037
0.15536
0.00746446
0.00427038
0.00464672
0.00444035
0.00479941
0.004502
0.00486596
0.00555349
32.2396
27.2948
36.6824
41.5202
45.8441
48.1439
48.5349
47.8464
46.5759
45.2982
43.8411
42.4143
41.1669
40.0919
38.9791
37.8527
36.8053
35.8632
34.8371
33.6489
32.3111
31.3713
31.7331
34.0711
38.2929
45.1614
55.9557
72.2778
97.1658
123.177
144.478
159.005
169.041
176.377
179.14
170.535
145.194
118.296
103.142
101.136
120.839
139.153
125.395
88.2673
53.9049
32.1764
22.5127
18.6629
15.4206
11.2367
4.44566
0.533018
0.0166854
0.00417505
0.00428286
0.00414225
0.00453303
0.00427147
0.00464384
0.00535208
26.412
15.7409
21.7074
25.3345
29.6411
32.1485
34.3106
35.7218
36.9223
37.8565
38.4216
38.6039
38.7363
38.8507
38.8345
38.6692
38.5039
38.4231
38.4804
38.2016
37.5261
36.7788
36.7357
38.1018
40.1446
42.8419
46.8078
52.7697
61.7394
74.0957
86.503
98.8868
111.924
125.827
136.721
149.638
155.754
155.421
151.905
154.676
164.047
173.804
169.905
143.513
109.689
77.3603
54.4181
36.9385
24.8548
14.1355
4.85306
0.563274
0.0180297
0.00430429
0.00441536
0.00428206
0.00472429
0.00444097
0.00485027
0.00560437
35.0443
29.8333
40.3372
40.9064
45.9178
48.7246
53.042
56.0768
59.4952
62.5094
65.2906
67.3057
68.8193
69.7864
70.1599
69.5701
68.3703
66.7399
65.1176
63.5829
62.1958
60.938
60.0684
58.996
57.5708
55.8396
53.9863
52.2609
50.9599
49.9486
49.2224
48.9579
50.13
51.9066
52.2033
47.696
39.9154
34.3085
30.9043
28.122
25.5617
22.9715
21.1373
20.5566
21.4225
23.9905
27.7226
33.3584
29.6942
20.0235
7.88842
1.02547
0.0248012
0.00485715
0.00491557
0.00473262
0.00524201
0.00489265
0.0053657
0.00621357
30.0506
49.1508
100.562
116.507
131.245
133.449
138.694
141.779
144.839
146.546
147.505
146.297
143.172
138.438
132.86
125.867
118.068
110.065
103.219
97.9757
95.5824
96.302
100.719
109.922
125.07
147.748
180.729
230.471
308.419
411.54
516.072
618.293
730.298
854.929
996.73
1131.63
1208.89
1194.48
1074.74
897.48
734.51
587.534
457.587
330.555
210.622
123.683
72.1129
40.2799
25.1553
14.0933
4.5794
0.406261
0.0114934
0.00527602
0.00591988
0.00560197
0.00618044
0.00567997
0.00624304
0.00723947
27.8605
60.3369
152.625
205.204
261.1
287.723
312.759
326.842
337.237
342.454
345.69
345.84
343.215
339.062
333.756
324.857
314.006
301.192
288.13
275.249
263.976
252.675
239.974
225.092
208.551
192.529
179.028
170.271
168.134
173.356
188.79
199.783
207.692
212.375
216.819
219.452
206.994
181.383
153.797
132.134
118.724
106.34
96.9724
82.8852
56.1341
33.6991
22.6211
15.0064
9.60046
5.04362
1.58117
0.123118
0.00762989
0.00615766
0.00707629
0.00655785
0.0072193
0.00653601
0.00721316
0.00839259
27.8843
74.2294
197.567
254.872
321.678
359.326
394.008
415.171
429.259
435.157
436.968
434.209
428.289
420.839
412.16
401.079
387.513
372.406
356.457
341.005
326.918
313.75
298.968
280.873
259.793
237.429
214.553
191.91
170.434
151.284
134.499
120.006
107.899
98.3837
91.2373
85.9925
81.421
76.6949
71.3025
64.876
57.436
49.2703
41.2137
33.243
25.8954
18.6771
12.9977
8.89904
6.19733
3.65915
1.2687
0.111187
0.0080762
0.00659337
0.00749436
0.00689022
0.00758077
0.00685834
0.00758266
0.00894707
33.7996
90.1398
229.006
285.191
351.95
390.194
423.301
442.504
453.746
456.845
453.22
444.425
432.477
417.808
401.209
383.616
364.135
345.542
326.729
309.886
293.287
278.057
261.733
243.964
224.204
203.822
183.135
163.061
144.204
127.357
112.68
100.172
89.7155
81.3145
74.5653
69.1612
64.6839
60.4186
55.6121
49.664
42.4654
34.4855
26.7776
20.2012
14.9961
10.916
8.13347
6.35296
5.28121
3.66132
1.56992
0.20898
0.0111792
0.006669
0.00731857
0.00671438
0.00733365