/*--------------------------------*- C++ -*----------------------------------*\
| =========                 |                                                 |
| \\      /  F ield         | OpenFOAM: The Open Source CFD Toolbox           |
|  \\    /   O peration     | Version:  2.1.1                                 |
|   \\  /    A nd           | Web:      www.OpenFOAM.org                      |
|    \\/     M anipulation  |                                                 |
\*---------------------------------------------------------------------------*/
FoamFile
{
    version     2.0;
    format      ascii;
    class       volVectorField;
    location    "0.00115";
    object      fluctuation1;
}
// * * * * * * * * * * * * * * * * * * * * * * * * * * * * * * * * * * * * * //

dimensions      [0 1 -1 0 0 0 0];

internalField   nonuniform List<vector> 
36520
(
(-1.84159e-05 6.19546e-06 4.28964e-05)
(-2.50068e-05 1.32847e-05 6.39978e-05)
(3.89574e-06 2.57809e-05 0.000103894)
(5.73828e-06 3.89241e-05 0.000143471)
(8.94073e-06 5.89636e-05 0.000192788)
(1.06714e-05 8.2524e-05 0.000234306)
(8.42993e-06 0.000102498 0.000263514)
(3.27385e-06 0.000109737 0.000271356)
(9.69934e-08 0.00010867 0.000274208)
(7.7209e-07 0.000107259 0.000277596)
(3.08781e-06 0.000110298 0.000288636)
(5.03776e-06 0.000116716 0.000303626)
(6.48158e-06 0.000124769 0.000323672)
(7.93673e-06 0.000133637 0.00034708)
(9.67988e-06 0.00014385 0.000375476)
(1.1956e-05 0.000155628 0.000409752)
(1.52142e-05 0.000170554 0.000452927)
(1.97962e-05 0.000190819 0.000507732)
(2.58393e-05 0.00021851 0.000573471)
(3.3243e-05 0.000255378 0.000650883)
(4.1623e-05 0.000301556 0.000734524)
(5.03968e-05 0.000356662 0.000820203)
(5.8336e-05 0.000418407 0.000898133)
(6.38298e-05 0.000483156 0.000958372)
(6.51645e-05 0.000545166 0.000986595)
(6.12416e-05 0.000598062 0.000972314)
(5.21691e-05 0.000634257 0.000906958)
(4.00362e-05 0.000647982 0.00079022)
(2.92458e-05 0.000637416 0.000629123)
(2.56389e-05 0.000609151 0.000444835)
(3.4186e-05 0.000578923 0.000265779)
(5.64138e-05 0.000569242 0.000118582)
(8.88701e-05 0.000600129 1.44081e-05)
(0.000123938 0.000680173 -5.78127e-05)
(0.000152815 0.000803331 -0.000118678)
(0.000169276 0.000953297 -0.0001816)
(0.000169303 0.00111133 -0.000245985)
(0.000149916 0.00125516 -0.000302986)
(0.000110307 0.00135645 -0.000345057)
(5.65276e-05 0.00138199 -0.000370831)
(4.36644e-06 0.00131683 -0.000382941)
(-3.84517e-05 0.00117939 -0.00038612)
(-0.000102702 0.000962752 -0.000385907)
(-0.000223414 0.000552888 -0.000332607)
(-0.000271129 0.0002106 -0.000215945)
(-0.000141542 -0.000997769 -0.00909653)
(-2.37376e-05 -0.00404149 -0.0379505)
(-1.13503e-05 -0.00444916 -0.043107)
(1.43692e-06 -0.00390578 -0.0394944)
(9.76495e-06 -0.00269142 -0.0282338)
(5.48754e-07 -0.000502123 -0.00529201)
(-7.44939e-07 5.14129e-06 2.11898e-05)
(-8.67957e-07 4.98254e-07 2.05089e-06)
(-5.71059e-08 1.40462e-08 7.03907e-08)
(-1.10673e-09 1.51135e-10 8.01344e-10)
(-8.42676e-12 1.26502e-12 6.42864e-12)
(-5.3488e-14 9.72603e-15 4.26697e-14)
(-2.80642e-16 6.00885e-17 2.25553e-16)
(-1.34604e-18 2.54027e-19 8.90071e-19)
(-5.08968e-21 5.5141e-22 1.77219e-21)
(-9.6718e-06 5.08281e-05 9.63515e-05)
(-1.99185e-06 8.01919e-05 0.000109466)
(2.09918e-05 0.000117735 0.000143483)
(2.52231e-05 0.000149229 0.000161866)
(2.52589e-05 0.000178826 0.000175131)
(1.95983e-05 0.00019538 0.000170185)
(1.12147e-05 0.000209057 0.000164485)
(3.83483e-06 0.0002095 0.000147845)
(1.81705e-06 0.000206693 0.000132945)
(4.29418e-06 0.000205187 0.000117126)
(8.30128e-06 0.000210617 0.000105007)
(1.17211e-05 0.000218845 9.37554e-05)
(1.48258e-05 0.000229213 8.34488e-05)
(1.78236e-05 0.000240551 7.43819e-05)
(2.15324e-05 0.00025564 6.77425e-05)
(2.65664e-05 0.000278029 6.46226e-05)
(3.35114e-05 0.000310538 6.48865e-05)
(4.19993e-05 0.000356028 6.82693e-05)
(5.1633e-05 0.000414828 7.31038e-05)
(6.13256e-05 0.000486284 7.8186e-05)
(6.95248e-05 0.000566739 8.18516e-05)
(7.46701e-05 0.000652441 8.30702e-05)
(7.42824e-05 0.000735004 7.99879e-05)
(6.63104e-05 0.000806173 7.14354e-05)
(5.00665e-05 0.000857633 5.64157e-05)
(2.67375e-05 0.000882687 3.46693e-05)
(-8.94548e-07 0.000874048 1.07484e-05)
(-2.82127e-05 0.000827908 -2.52552e-05)
(-4.90434e-05 0.000755405 -5.72426e-05)
(-5.77102e-05 0.000673872 -7.97532e-05)
(-5.21755e-05 0.000606769 -8.83135e-05)
(-3.53214e-05 0.000571527 -8.94857e-05)
(-1.46806e-05 0.000569892 -9.79304e-05)
(1.86041e-06 0.000590843 -0.000115426)
(1.07826e-05 0.000615451 -0.000142621)
(1.38671e-05 0.000627933 -0.00017869)
(1.47094e-05 0.000630181 -0.000221416)
(1.39982e-05 0.000632489 -0.000267008)
(8.2471e-06 0.000630459 -0.000309804)
(-5.29332e-06 0.000595393 -0.000342298)
(-2.3528e-05 0.000505421 -0.000359312)
(-4.4915e-05 0.000361253 -0.000362242)
(-5.71199e-05 9.63904e-05 -0.000561991)
(-2.11031e-05 -0.00743847 -0.0360648)
(-0.00036609 -0.0106493 -0.0509367)
(-0.000929883 -0.0125263 -0.0577795)
(-0.000855382 -0.0138043 -0.0641078)
(-0.000581449 -0.0149753 -0.0696291)
(0.000140998 -0.0157138 -0.0716027)
(0.00127251 -0.0152044 -0.0613723)
(0.00323292 -0.0124274 -0.0367496)
(0.00252426 3.28197e-05 0.000113407)
(-4.11334e-06 2.2039e-06 5.80727e-06)
(-3.6924e-07 1.34233e-07 4.03943e-07)
(-1.4152e-08 2.4229e-09 7.24389e-09)
(-1.67244e-10 2.996e-11 8.22041e-11)
(-1.43663e-12 2.97767e-13 6.88015e-13)
(-9.44394e-15 2.13824e-15 4.36176e-15)
(-5.53747e-17 1.02283e-17 1.85717e-17)
(-3.73336e-19 3.81847e-20 6.12169e-20)
(-8.57492e-06 8.90005e-05 7.85837e-05)
(2.17592e-06 0.000108937 5.49216e-05)
(2.01249e-05 0.000137725 5.21122e-05)
(1.90175e-05 0.000147323 4.08703e-05)
(1.25912e-05 0.000146877 2.95795e-05)
(4.73091e-06 0.000136007 1.79422e-05)
(-2.25358e-06 0.00013877 1.27381e-05)
(-6.45749e-06 0.000117683 -2.28387e-06)
(-6.87017e-06 0.000109223 -1.1935e-05)
(-6.01729e-06 0.00010557 -2.12162e-05)
(-4.50785e-06 0.000106109 -3.06853e-05)
(-3.47627e-06 0.000108753 -3.82816e-05)
(-2.45226e-06 0.000113421 -4.11747e-05)
(-1.35617e-06 0.000119333 -4.34141e-05)
(9.96116e-08 0.000127582 -4.65155e-05)
(1.8388e-06 0.000140027 -5.1297e-05)
(3.76344e-06 0.00015693 -5.81399e-05)
(5.56332e-06 0.000177305 -6.75e-05)
(7.05308e-06 0.000199638 -7.95406e-05)
(8.13069e-06 0.000221232 -9.37499e-05)
(8.69865e-06 0.000240958 -0.000109778)
(8.53271e-06 0.000259347 -0.000126896)
(7.24072e-06 0.000273542 -0.000143395)
(4.49981e-06 0.000282482 -0.000157747)
(8.10341e-08 0.000284535 -0.000168533)
(-4.52196e-06 0.000276472 -0.000174583)
(-1.2502e-05 -0.000114553 -0.00149849)
(-1.646e-05 -0.0015346 -0.00646233)
(-1.39748e-05 -0.00264231 -0.0104695)
(-8.25437e-06 -0.00365754 -0.0142299)
(-2.56241e-06 -0.00448492 -0.0173633)
(-3.8109e-07 -0.00514766 -0.0199159)
(-4.19964e-07 -0.00564881 -0.0218784)
(-4.52297e-07 -0.00602456 -0.0233774)
(-4.80015e-07 -0.006309 -0.0245167)
(-5.0539e-07 -0.00654323 -0.0254437)
(-5.37411e-07 -0.00686448 -0.0266587)
(-5.91682e-07 -0.0075004 -0.0289655)
(-6.78611e-07 -0.00857777 -0.0328283)
(-8.07323e-07 -0.0102179 -0.038643)
(-9.83325e-07 -0.0124183 -0.0463451)
(-1.75122e-05 -0.0148684 -0.0549638)
(-0.00441065 -0.0172093 -0.0636084)
(-0.011908 -0.0224627 -0.0714369)
(-0.019206 -0.0323824 -0.0780628)
(-0.0197301 -0.042391 -0.0856425)
(-0.0118891 -0.0510411 -0.0950626)
(-0.00476369 -0.0600754 -0.101184)
(0.00360474 -0.0677596 -0.0965957)
(0.0125141 -0.0742928 -0.0670796)
(0.0190586 -0.0626706 -0.0210775)
(0.0428772 -0.00295431 0.000497406)
(-4.50801e-05 1.73983e-05 2.42476e-05)
(-1.23619e-06 6.93864e-07 1.40911e-06)
(-7.19257e-08 1.68313e-08 3.5163e-08)
(-1.24633e-09 2.82302e-10 5.5118e-10)
(-1.427e-11 3.41739e-12 6.16602e-12)
(-1.17806e-13 2.66298e-14 4.44871e-14)
(-1.11082e-15 1.80602e-16 2.79898e-16)
(-1.41681e-17 1.27053e-18 1.8291e-18)
(-1.58511e-05 8.31626e-05 1.75332e-05)
(-7.82291e-06 8.44996e-05 -4.14118e-06)
(4.23874e-06 9.36709e-05 -1.56101e-05)
(3.47056e-06 9.63247e-05 -2.16864e-05)
(1.27114e-06 0.000116235 -1.99594e-05)
(1.24138e-07 0.00016391 -8.15293e-06)
(-5.66689e-06 0.0002527 5.11814e-06)
(-8.91874e-06 0.000100571 -3.52223e-05)
(-6.17916e-06 4.23814e-05 -2.42053e-05)
(-5.62821e-06 3.91676e-05 -2.36125e-05)
(-4.61332e-06 3.03857e-05 -6.53927e-05)
(-2.26897e-06 -1.48743e-05 -0.00023306)
(-3.27309e-07 -0.000120803 -0.000606694)
(-1.48535e-08 -0.000302303 -0.00124627)
(-2.40704e-08 -0.000574264 -0.00221538)
(-3.72783e-08 -0.00096429 -0.00360637)
(-5.50454e-08 -0.00149433 -0.00548842)
(-1.10134e-07 -0.00214714 -0.00779518)
(-1.01642e-07 -0.00290468 -0.0104552)
(-1.01859e-07 -0.0037586 -0.0134245)
(-1.5891e-07 -0.00469111 -0.0166313)
(-1.90682e-07 -0.0057114 -0.0200875)
(-2.24714e-07 -0.00682456 -0.0238284)
(-2.60232e-07 -0.0079994 -0.0277795)
(-2.95767e-07 -0.00917563 -0.0317644)
(-9.03878e-05 -0.0103319 -0.0356996)
(-0.000369256 -0.0114299 -0.0395327)
(-0.000473252 -0.0124347 -0.0433057)
(-0.000450061 -0.0133524 -0.046844)
(-0.000438037 -0.0141363 -0.0500403)
(-0.000387291 -0.0147908 -0.0528509)
(-0.000291524 -0.0153228 -0.0553029)
(-0.000160222 -0.0157334 -0.0573585)
(-2.34779e-05 -0.0161365 -0.0591994)
(8.63941e-05 -0.0163973 -0.0604815)
(0.000127669 -0.0166215 -0.0615326)
(1.00407e-05 -0.0171961 -0.0637361)
(-0.000364678 -0.0181048 -0.0668775)
(-0.00121434 -0.0195799 -0.0710257)
(-0.00304159 -0.0224279 -0.076106)
(-0.00643131 -0.0284589 -0.0816794)
(-0.0117841 -0.0389653 -0.0866249)
(-0.0204394 -0.0524541 -0.0904005)
(-0.0333306 -0.0656741 -0.0943338)
(-0.0507873 -0.0806048 -0.0959057)
(-0.0620724 -0.100781 -0.0926684)
(-0.0387318 -0.129055 -0.0910627)
(-0.0106334 -0.140679 -0.104617)
(0.00920296 -0.149746 -0.0810526)
(0.0170787 -0.1394 -0.0473633)
(0.0218963 -0.0990819 -0.0331551)
(0.0467559 -0.0252768 -0.0366918)
(-0.00177304 0.000184356 6.06518e-05)
(-8.57571e-06 6.5711e-06 9.05242e-06)
(-2.98642e-07 8.28374e-08 1.3461e-07)
(-5.58473e-09 1.63839e-09 2.58666e-09)
(-8.37186e-11 2.2066e-11 3.30677e-11)
(-1.04112e-12 2.17859e-13 3.06277e-13)
(-2.44604e-14 3.62178e-15 4.77679e-15)
(-4.33166e-16 3.55355e-17 4.40861e-17)
(-1.78431e-05 6.33489e-05 -3.23842e-05)
(-1.10954e-05 6.25817e-05 -3.21898e-05)
(-3.16802e-06 0.000113879 -5.70747e-05)
(2.25985e-06 0.000312194 -0.000100944)
(2.12518e-05 0.00100844 -0.000212957)
(5.23791e-05 0.00254627 -0.000328171)
(-7.12902e-05 0.004748 -0.000497912)
(-9.13578e-05 0.00278453 -0.0024849)
(-2.33306e-06 0.000113972 -0.00358019)
(-2.76599e-05 -5.0884e-05 -0.00368893)
(-0.000118554 -0.000288048 -0.00530569)
(-0.000281414 -0.000934196 -0.00830357)
(-0.000447106 -0.00211237 -0.0127401)
(-0.000551608 -0.00374699 -0.0181721)
(-0.000609487 -0.00552441 -0.023591)
(-0.000654141 -0.00720202 -0.0284956)
(-0.000679602 -0.00876195 -0.0330369)
(-0.000711094 -0.0102248 -0.0375387)
(-0.000757216 -0.0117493 -0.0423804)
(-0.000824302 -0.0133324 -0.0474534)
(-0.000944392 -0.0151263 -0.0531704)
(-0.00118231 -0.0171649 -0.0596168)
(-0.00151683 -0.0195735 -0.0670599)
(-0.00177094 -0.022457 -0.0758443)
(-0.00196806 -0.0257388 -0.0860731)
(-0.00224428 -0.0293829 -0.0977364)
(-0.00274494 -0.0333383 -0.11063)
(-0.00323899 -0.0375759 -0.12478)
(-0.00347505 -0.0417423 -0.139039)
(-0.00350586 -0.0455186 -0.152337)
(-0.00335232 -0.0488477 -0.164439)
(-0.00252347 -0.051987 -0.175831)
(-0.00142158 -0.0550285 -0.186091)
(0.000367885 -0.0541049 -0.183313)
(0.00216271 -0.049331 -0.168)
(0.00244556 -0.0426401 -0.147143)
(0.00187285 -0.0370316 -0.129971)
(0.00107493 -0.0355802 -0.124935)
(-1.89271e-05 -0.0368504 -0.127373)
(-0.0017854 -0.0394487 -0.13225)
(-0.00472564 -0.0445762 -0.139321)
(-0.00961789 -0.0547078 -0.147256)
(-0.0173046 -0.072686 -0.154443)
(-0.0242309 -0.0962628 -0.161698)
(-0.0342086 -0.12218 -0.166478)
(-0.054312 -0.147639 -0.159858)
(-0.0496604 -0.179663 -0.152654)
(-0.016126 -0.193606 -0.161207)
(0.00587232 -0.187016 -0.146319)
(0.0136439 -0.154692 -0.136554)
(0.0164691 -0.086564 -0.126024)
(0.0356263 -0.0282015 -0.0779782)
(0.04506 -0.000298702 -0.000983188)
(-3.47129e-05 7.39057e-05 5.72153e-05)
(-3.29012e-06 1.05949e-06 1.32419e-06)
(-3.08653e-08 8.26043e-09 1.08826e-08)
(-4.07014e-10 1.02027e-10 1.29928e-10)
(-1.04732e-11 2.04154e-12 2.44092e-12)
(-4.81025e-13 6.55087e-14 7.38373e-14)
(-9.8827e-15 7.46317e-16 7.93051e-16)
(-2.25396e-05 6.20691e-05 -5.2177e-05)
(-2.51025e-05 3.31562e-05 -0.000625913)
(-3.83568e-05 0.00015575 -0.00328573)
(-2.74337e-05 -0.00358318 -0.0241826)
(5.31128e-05 -0.00821141 -0.0564423)
(5.39151e-05 -0.0258192 -0.12037)
(-0.000676472 -0.0448661 -0.18321)
(-0.00516852 0.0139769 -0.129585)
(-0.0019953 -0.00614079 -0.0821463)
(-0.000760258 -0.00664382 -0.0487691)
(-0.000819124 -0.00770113 -0.0462606)
(-0.00111387 -0.0106338 -0.0525274)
(-0.00143531 -0.0139761 -0.0596875)
(-0.00170747 -0.0174568 -0.0676136)
(-0.00199092 -0.0206645 -0.0755441)
(-0.00235709 -0.0235662 -0.0832679)
(-0.00278818 -0.0264046 -0.0924306)
(-0.00339291 -0.0296858 -0.104858)
(-0.00417064 -0.0328532 -0.117815)
(-0.00507351 -0.0363268 -0.130985)
(-0.00621159 -0.0408824 -0.144899)
(-0.00867831 -0.0467005 -0.160839)
(-0.0155328 -0.0555621 -0.183239)
(-0.0274542 -0.0670444 -0.210627)
(-0.0396418 -0.0807853 -0.243435)
(-0.0469584 -0.0961266 -0.281957)
(-0.0456476 -0.113569 -0.325388)
(-0.037584 -0.134934 -0.375471)
(-0.0282648 -0.162446 -0.426397)
(-0.0101317 -0.19054 -0.471622)
(0.00617073 -0.209639 -0.508997)
(0.00567105 -0.223788 -0.534013)
(-0.00416788 -0.229928 -0.530858)
(-0.0140686 -0.226146 -0.500568)
(-0.0169566 -0.208557 -0.452215)
(-0.0144671 -0.17683 -0.398455)
(-0.0121987 -0.146138 -0.343868)
(-0.0123749 -0.123287 -0.297835)
(-0.0114306 -0.107395 -0.270417)
(-0.0166701 -0.0961616 -0.261949)
(-0.0263391 -0.0925817 -0.264575)
(-0.0405762 -0.092678 -0.270963)
(-0.0721929 -0.100131 -0.276534)
(-0.103333 -0.128814 -0.28753)
(-0.1046 -0.164421 -0.2951)
(-0.0862572 -0.202478 -0.286285)
(-0.0584675 -0.238531 -0.265893)
(-0.0307059 -0.251153 -0.240617)
(-0.00712641 -0.198206 -0.251103)
(0.0128331 -0.152943 -0.229148)
(0.0438727 -0.0948651 -0.188208)
(0.159087 -0.0321657 -0.0853822)
(0.0847539 -0.000337167 -0.00113533)
(0.0156116 0.000156159 5.03084e-05)
(-2.67589e-05 1.65205e-05 1.59464e-05)
(-5.14958e-07 1.16264e-07 1.22958e-07)
(-2.69023e-09 5.09545e-10 5.33767e-10)
(-1.15513e-10 2.15381e-11 2.13232e-11)
(-6.94755e-12 8.90992e-13 8.29593e-13)
(-1.65054e-13 1.16893e-14 1.01588e-14)
(-0.000668087 -0.00338486 -0.0162307)
(-0.00167221 -0.00863095 -0.0412573)
(-0.0387632 -0.0154219 -0.020814)
(-0.00877367 -0.204944 0.0330493)
(-0.00135419 -0.230593 -0.253999)
(-0.00103035 -0.464778 -0.172255)
(0.000191602 -0.575361 -0.230091)
(0.00124894 -0.418543 -0.347226)
(-0.0149785 -0.0393883 -0.345888)
(-0.0121366 -0.0215075 -0.215583)
(-0.00942599 -0.0260497 -0.175105)
(-0.012803 -0.0326561 -0.19414)
(-0.0171055 -0.0417906 -0.221872)
(-0.0197019 -0.0524247 -0.254828)
(-0.0205138 -0.0625785 -0.285843)
(-0.0200291 -0.0716486 -0.310237)
(-0.0206891 -0.0830503 -0.338505)
(-0.0235841 -0.095456 -0.363051)
(-0.0282543 -0.111467 -0.389792)
(-0.0331873 -0.130075 -0.413294)
(-0.0345684 -0.144994 -0.431572)
(-0.0345091 -0.153248 -0.443658)
(-0.0404665 -0.163008 -0.462093)
(-0.0574643 -0.189706 -0.503947)
(-0.0731351 -0.241477 -0.56296)
(-0.0924604 -0.331885 -0.605777)
(-0.138566 -0.395133 -0.648204)
(-0.130613 -0.375777 -0.74729)
(-0.0520073 -0.298067 -0.874305)
(-0.0219451 -0.302724 -0.952894)
(-0.0466105 -0.529163 -0.905775)
(-0.0206337 -0.817623 -0.68748)
(0.0228744 -0.730705 -0.784466)
(0.027927 -0.696616 -0.78006)
(-0.00306394 -0.554579 -0.82024)
(-0.0262779 -0.285466 -0.865161)
(-0.0262411 -0.229903 -0.78445)
(-0.034553 -0.300758 -0.65605)
(-0.0885255 -0.283096 -0.565301)
(-0.228038 -0.240946 -0.472725)
(-0.409484 -0.191817 -0.345789)
(-0.45814 -0.130389 -0.286542)
(-0.484097 -0.0462879 -0.26249)
(-0.577128 0.0483597 -0.134276)
(-0.614402 0.0420953 -0.0264379)
(-0.621792 0.0089418 -0.0255825)
(-0.555472 -0.159557 -0.105406)
(-0.105945 -0.295089 -0.258913)
(-0.018309 -0.221566 -0.285256)
(0.0293558 -0.180295 -0.25324)
(0.167043 -0.13833 -0.197031)
(0.321548 -0.0218776 -0.0322123)
(0.145796 -0.000255006 -0.000484026)
(0.0429329 3.46815e-05 5.05856e-05)
(-0.000114844 0.000161583 0.000144818)
(-6.4392e-06 1.64296e-06 1.41483e-06)
(-4.20864e-08 6.51887e-09 5.34052e-09)
(-1.00598e-09 1.80699e-10 1.37646e-10)
(-7.2279e-11 8.8431e-12 6.19574e-12)
(-2.00167e-12 1.35135e-13 8.62849e-14)
(-0.0768415 0.00214203 -0.00318823)
(0.0272733 0.0397857 -0.015362)
(0.119748 0.193441 0.0106735)
(-0.236852 -0.548536 0.135825)
(-0.0333967 -0.790703 -0.362144)
(-0.0080346 -1.11861 -0.0445679)
(0.00242609 -1.28096 0.102655)
(0.0133816 -1.26549 0.137386)
(0.0340764 -1.06982 -0.109576)
(-0.0149938 -0.117027 -0.779114)
(-0.0389061 -0.0433007 -0.689302)
(-0.0430006 -0.0817908 -0.757794)
(-0.0467326 -0.119719 -0.85903)
(-0.0459126 -0.106158 -0.983878)
(-0.0458534 -0.0834671 -1.08855)
(-0.0600445 -0.063983 -1.14616)
(-0.073887 -0.0393913 -1.14104)
(-0.0726251 -0.0285363 -1.1068)
(-0.0657051 -0.0235675 -1.07566)
(-0.0674532 -0.0502856 -1.08393)
(-0.0813963 -0.145058 -1.10234)
(-0.0885755 -0.24214 -1.11402)
(-0.0894305 -0.294972 -1.1304)
(-0.0952243 -0.318153 -1.15841)
(-0.106611 -0.329296 -1.20611)
(-0.114226 -0.33965 -1.26965)
(-0.113097 -0.346848 -1.33286)
(-0.103723 -0.330776 -1.39064)
(-0.0944573 -0.279329 -1.44223)
(-0.101964 -0.218645 -1.47521)
(-0.14405 -0.189936 -1.47865)
(-0.18401 -0.165562 -1.46234)
(-0.10846 -0.150799 -1.43795)
(0.00155765 -0.139819 -1.40045)
(0.0541361 -0.126329 -1.34541)
(0.0603678 -0.107811 -1.27134)
(0.0283367 -0.0657719 -1.1829)
(0.0105702 -0.0338565 -1.08291)
(0.0246878 -0.0115149 -0.982318)
(0.0391562 0.0229793 -0.884933)
(0.00579321 0.129038 -0.78288)
(-0.264258 0.645437 -0.224499)
(-0.229599 0.549045 0.242481)
(-0.11947 0.415409 0.380208)
(-0.166666 0.352952 0.392155)
(-0.412764 0.234211 0.330869)
(-0.613612 0.0470694 0.0995358)
(-0.501203 -0.168925 -0.116951)
(-0.0691313 -0.265081 -0.233903)
(0.116309 -0.236944 -0.185527)
(0.358052 -0.139978 -0.0886705)
(0.363753 -0.0185483 -0.00933457)
(0.19976 -0.000614901 -0.000356857)
(0.0701772 0.000159197 8.79224e-05)
(-0.00165525 0.000935111 0.000728146)
(-6.21921e-05 1.35649e-05 1.104e-05)
(-5.10146e-07 6.85816e-08 5.2673e-08)
(-6.6391e-09 1.07881e-09 7.4176e-10)
(-5.44671e-10 6.23094e-11 3.72161e-11)
(-1.74614e-11 1.12254e-12 5.76478e-13)
(0.000192861 -0.201171 -0.0663218)
(0.000248776 -0.206573 -0.086268)
(0.000401173 -0.352944 -0.146821)
(-0.0349326 -0.493696 -0.205921)
(-0.0209117 -0.6414 -0.269501)
(-0.0034286 -0.756073 -0.319461)
(0.00442061 -0.834945 -0.358426)
(0.00816784 -0.915713 -0.396307)
(0.00839114 -0.996287 -0.428148)
(0.00463754 -1.07746 -0.458878)
(0.00125046 -1.15643 -0.490642)
(-0.000208074 -1.24783 -0.529019)
(-0.000555271 -1.34637 -0.570612)
(0.000416245 -1.44361 -0.610079)
(0.00243136 -1.53368 -0.644058)
(0.00336489 -1.59233 -0.665097)
(0.00255703 -1.60211 -0.665408)
(0.00163613 -1.57217 -0.649833)
(0.00133099 -1.52932 -0.630468)
(0.00112168 -1.49366 -0.615595)
(0.000295322 -1.4644 -0.608583)
(-0.00364407 -1.43344 -0.618095)
(-0.00972344 -1.40436 -0.632842)
(-0.0152442 -1.38198 -0.639593)
(-0.0229279 -1.36428 -0.642578)
(-0.029461 -1.35604 -0.641839)
(-0.0271765 -1.35803 -0.629299)
(-0.0180439 -1.36065 -0.60961)
(-0.00898881 -1.35882 -0.586856)
(-0.00351595 -1.35161 -0.565834)
(-0.0014257 -1.33701 -0.551244)
(-0.00119736 -1.31405 -0.539895)
(-0.00152418 -1.28553 -0.527641)
(-0.00163879 -1.25215 -0.51363)
(-0.00106772 -1.21155 -0.496215)
(-6.39608e-06 -1.16231 -0.474847)
(0.000625547 -1.10331 -0.449171)
(0.000924705 -1.03657 -0.42059)
(0.00262658 -0.969161 -0.391455)
(0.00735932 -0.908723 -0.364024)
(0.0120153 -0.856184 -0.340162)
(0.00827645 -0.80801 -0.319742)
(0.00195085 -0.75009 -0.295694)
(0.000714709 -0.681161 -0.267937)
(0.000656962 -0.621417 -0.240932)
(-0.070554 -0.570519 -0.195733)
(-0.729517 -0.0750997 -0.0130453)
(-0.547779 -0.211427 -0.0885087)
(-0.172563 -0.293679 -0.192457)
(0.193157 -0.249675 -0.134107)
(0.35441 -0.143935 -0.0596531)
(0.366968 -0.0304823 -0.0118749)
(0.234986 -0.00202703 -0.0008209)
(0.100068 0.000495054 0.000246692)
(-0.0065657 0.00357795 0.00232047)
(-0.000401611 8.69045e-05 5.51393e-05)
(-4.67589e-06 6.31744e-07 3.75674e-07)
(-3.92402e-08 6.21173e-09 3.43624e-09)
(-3.41669e-09 4.10477e-10 2.15124e-10)
(-1.25836e-10 8.58305e-12 4.2837e-12)
(0.000162842 -0.201791 -0.0380588)
(0.000215 -0.193505 -0.0451611)
(0.000357031 -0.356824 -0.0811637)
(-0.0365285 -0.476289 -0.108844)
(-0.0240809 -0.616142 -0.104259)
(-0.00664895 -0.729334 -0.166511)
(-0.00049071 -0.824381 -0.203835)
(0.00264285 -0.900326 -0.225697)
(0.00336895 -0.949676 -0.236134)
(0.00141659 -0.976792 -0.240261)
(-1.15013e-05 -0.99654 -0.241825)
(-0.000572741 -1.02528 -0.245192)
(-0.000549058 -1.07732 -0.255565)
(0.000205639 -1.14449 -0.271305)
(0.000874045 -1.2234 -0.291462)
(0.00135645 -1.30314 -0.312405)
(0.00193397 -1.37117 -0.329777)
(0.00246854 -1.43007 -0.34312)
(0.00308198 -1.49485 -0.356093)
(0.00318723 -1.56854 -0.370563)
(0.00219106 -1.62823 -0.383135)
(0.000530882 -1.64273 -0.388006)
(-0.00359808 -1.60902 -0.388185)
(-0.0128101 -1.55869 -0.384005)
(-0.0160518 -1.51959 -0.370199)
(-0.0191994 -1.49363 -0.359246)
(-0.0213796 -1.46975 -0.35184)
(-0.0161074 -1.44637 -0.341833)
(-0.00679499 -1.42615 -0.335857)
(-0.0012422 -1.40908 -0.333598)
(0.000499339 -1.39114 -0.331233)
(0.000811689 -1.36698 -0.327138)
(0.000804015 -1.33277 -0.320708)
(0.000835098 -1.28769 -0.311903)
(0.000855533 -1.23022 -0.299991)
(0.000850435 -1.16327 -0.285214)
(0.000775031 -1.09076 -0.26801)
(0.00104167 -1.01447 -0.248147)
(0.00183005 -0.931924 -0.22531)
(0.00250249 -0.838717 -0.199628)
(0.00217118 -0.739619 -0.174155)
(0.000873408 -0.645984 -0.153035)
(0.000431256 -0.576674 -0.136238)
(0.00170142 -0.525069 -0.123473)
(0.0037927 -0.471971 -0.111096)
(-0.0237688 -0.414122 -0.0986109)
(-0.460193 -0.151214 -0.0409994)
(-0.334419 -0.227979 -0.0526208)
(-0.115538 -0.277382 -0.0436761)
(0.162601 -0.236978 -0.0353175)
(0.319818 -0.145651 -0.0207972)
(0.353233 -0.0332933 -0.00307965)
(0.232598 -0.00213732 -2.30019e-05)
(0.102348 0.000710239 0.000162075)
(-0.00580454 0.00414141 0.00144824)
(-0.00047501 0.000104588 3.24344e-05)
(-5.88428e-06 7.8488e-07 2.3299e-07)
(-4.68185e-08 6.95598e-09 2.03352e-09)
(-4.0359e-09 4.52251e-10 1.3021e-10)
(-1.50146e-10 9.37915e-12 2.6396e-12)
(4.94781e-05 -0.165921 -0.0286432)
(6.32675e-05 -0.160658 -0.0334598)
(0.000132066 -0.393669 -0.0741475)
(-0.00471134 -0.57857 -0.107441)
(-0.00796232 -0.736595 -0.139528)
(-0.00442694 -0.940734 -0.186377)
(-0.000320268 -1.14236 -0.2326)
(0.00552371 -1.29924 -0.266631)
(0.007355 -1.42039 -0.292324)
(0.00335117 -1.50576 -0.305238)
(0.000553996 -1.55908 -0.309219)
(3.03566e-05 -1.59058 -0.311709)
(-0.000631461 -1.62061 -0.317406)
(-0.000460392 -1.68223 -0.333228)
(-1.15054e-05 -1.76609 -0.355819)
(0.000285549 -1.84719 -0.377365)
(0.000637903 -1.91821 -0.396675)
(0.00113379 -1.99261 -0.415542)
(0.00137214 -2.08086 -0.434963)
(0.000953077 -2.18331 -0.454841)
(-0.000542898 -2.27455 -0.470843)
(-0.00491606 -2.30419 -0.482279)
(-0.0105411 -2.25663 -0.475014)
(-0.00953586 -2.20225 -0.386376)
(-0.0557282 -2.1636 0.315589)
(-0.126089 -2.16532 0.0169363)
(-0.0440315 -2.10854 -0.450309)
(-0.0047982 -2.10946 -0.445316)
(0.000564261 -2.1207 -0.420129)
(0.000633751 -2.12406 -0.430184)
(0.000435077 -2.11857 -0.440119)
(0.00019019 -2.09877 -0.440779)
(-2.98999e-05 -2.058 -0.44548)
(-0.000212152 -1.9989 -0.4443)
(-0.000115336 -1.92318 -0.431475)
(0.000290855 -1.83021 -0.407879)
(0.000667147 -1.71821 -0.374205)
(0.000997629 -1.58318 -0.341132)
(0.00169968 -1.4291 -0.303294)
(0.00320395 -1.24391 -0.256076)
(0.0031905 -1.03888 -0.202463)
(-8.94718e-06 -0.855725 -0.141199)
(-0.0013483 -0.708298 -0.0999371)
(0.00301167 -0.604233 -0.0809884)
(0.00560715 -0.530236 -0.0802931)
(-0.0807198 -0.455819 -0.096457)
(-0.536085 -0.110461 -0.0203147)
(-0.39919 -0.235024 -0.00216723)
(-0.149924 -0.294922 -0.0975833)
(0.187163 -0.199857 -0.174116)
(0.358565 -0.0631245 -0.130503)
(0.371827 -0.00606526 -0.0307856)
(0.24628 0.00016094 -0.00204165)
(0.109432 0.000698126 0.00109854)
(-0.00709939 0.00454913 0.00143881)
(-0.000650494 0.000116066 2.49908e-05)
(-7.4786e-06 8.5649e-07 1.62608e-07)
(-5.4065e-08 6.81497e-09 1.24631e-09)
(-4.50066e-09 4.3182e-10 7.86775e-11)
(-1.65691e-10 8.7753e-12 1.61008e-12)
(-0.000137649 0.121126 -0.0363633)
(0.00827348 -0.147316 -0.132469)
(0.00144962 -0.336993 -0.170948)
(8.97271e-05 -0.561438 -0.273617)
(1.38162e-05 -0.834557 -0.396384)
(-0.00215519 -1.15224 -0.583236)
(-4.47072e-05 -1.35864 -0.737873)
(0.000938759 -1.52636 -0.835818)
(-8.44203e-05 -1.66419 -0.901034)
(-0.00556906 -1.76526 -0.924467)
(-0.170511 -1.85899 -0.912314)
(-0.0929893 -1.92037 -0.997873)
(-0.0224886 -2.10861 -0.930286)
(-0.00765069 -2.24649 -0.963533)
(-0.00533225 -2.3541 -1.01984)
(-0.0127578 -2.44055 -1.05022)
(-0.0261347 -2.49194 -1.06497)
(-0.0164675 -2.5233 -1.08493)
(0.0421657 -2.54643 -1.10541)
(0.034061 -2.58523 -1.04437)
(-1.57615 -2.49059 -0.578123)
(-3.79334 -0.43087 -0.786677)
(1.90309 -1.91769 1.15381)
(2.15549 -1.32178 1.37629)
(0.168414 -2.1032 1.0769)
(-1.60337 -2.07144 0.0251202)
(-1.88269 -1.98142 0.129972)
(0.252764 -2.04709 -1.28882)
(0.690598 -1.59052 -1.79559)
(0.41721 -1.95644 -1.55226)
(0.0824834 -2.43237 -0.789886)
(-0.925168 -2.42636 -0.424931)
(-1.93285 -2.11538 -0.197213)
(-1.26463 -2.2967 -0.0383586)
(0.765994 -1.95694 -1.23331)
(1.25664 -1.46263 -1.51082)
(0.735825 -1.60405 -1.32795)
(-0.0300846 -1.89395 -0.57076)
(-0.061032 -1.75653 0.0657528)
(0.122139 -1.48947 -0.118415)
(0.100251 -1.14946 -0.352114)
(0.0266017 -0.823384 -0.404423)
(0.00368033 -0.603704 -0.373121)
(0.0228613 -0.596069 -0.213668)
(0.188658 -0.551738 0.169936)
(-0.688647 0.228348 -0.0180382)
(-0.718511 -0.0320364 -0.0150655)
(-0.592461 -0.239639 -0.0258447)
(-0.310781 -0.37677 -0.0711366)
(0.207469 -0.298928 -0.198851)
(0.446627 -0.0821768 -0.127594)
(0.425069 -0.0029377 -0.0202541)
(0.276434 0.000391766 -0.00113487)
(0.117307 0.000103835 0.000142565)
(-0.0169704 0.00236029 0.000591111)
(-0.000613631 6.64505e-05 1.24799e-05)
(-5.72599e-06 4.11225e-07 7.65283e-08)
(-4.1824e-08 3.23003e-09 5.92677e-10)
(-3.2585e-09 1.80483e-10 3.19412e-11)
(-1.05278e-10 3.15133e-12 5.33496e-13)
(-0.0945399 0.108892 0.0861878)
(-0.0447499 -0.201118 -0.106056)
(-0.0270963 -0.3528 0.0702094)
(-0.15409 -0.575763 0.129166)
(-0.276431 -0.872031 0.148807)
(-0.194516 -1.23345 0.128053)
(-0.0505759 -1.46285 -0.0529615)
(0.0566905 -1.66351 -0.217737)
(0.178769 -1.82837 -0.269015)
(0.552281 -1.93732 -0.0956128)
(1.14464 -1.78509 0.763835)
(-0.0402641 -1.90006 1.14743)
(0.0154946 -2.08577 1.10163)
(0.00914362 -2.26003 1.09383)
(0.000678624 -2.40848 1.10907)
(-0.000382509 -2.53936 1.0966)
(-0.0090316 -2.61518 1.10377)
(-0.0236704 -2.63783 1.12679)
(-0.0212509 -2.64335 1.1187)
(-0.0187203 -2.63615 1.06979)
(-1.09004 -2.45159 1.13442)
(-2.19666 -0.300345 2.26288)
(-0.663973 0.512729 2.45453)
(2.08826 0.487586 1.86125)
(1.21995 -2.08626 0.801608)
(-0.0693899 -2.22167 0.830599)
(-0.832513 -1.59772 1.55274)
(-1.67773 -1.23005 1.57804)
(-1.022 -1.68764 1.55067)
(1.762 -2.0408 0.70155)
(1.28696 -2.28383 0.514119)
(0.296061 -2.44456 0.481559)
(-0.034558 -2.11415 1.25117)
(-0.624413 -1.73558 1.59393)
(-1.22613 -1.46673 1.57687)
(-0.899502 -1.63611 1.3371)
(1.41186 -1.83491 -0.08331)
(1.37957 -1.6296 -0.00792033)
(0.439739 -1.60947 0.234498)
(-0.0338305 -1.34014 0.338932)
(-0.189312 -1.06631 0.26811)
(-0.274532 -0.837155 0.146032)
(0.0437802 -0.721717 0.0105639)
(0.368098 -0.566953 -0.069388)
(0.604565 0.40955 -0.153397)
(-0.741374 0.360644 -0.0724952)
(-0.855987 -0.063279 -0.0643711)
(-0.635635 -0.332053 -0.102517)
(-0.312308 -0.414622 0.177667)
(0.171574 -0.261934 0.311469)
(0.438972 -0.0793554 0.178905)
(0.438302 -0.000747568 0.0246224)
(0.282198 0.000599483 0.00101554)
(0.117744 0.000102972 -7.12425e-05)
(-0.0169872 0.00228661 -0.00115254)
(-0.000581084 6.43429e-05 -2.95859e-05)
(-5.37003e-06 3.99968e-07 -1.60625e-07)
(-3.98962e-08 3.18355e-09 -1.16073e-09)
(-3.14121e-09 1.79024e-10 -5.94332e-11)
(-1.02077e-10 3.13933e-12 -9.60399e-13)
(-5.06005e-05 -0.171653 0.0318655)
(-0.000344395 -0.225987 0.0440295)
(-0.126353 -0.279872 -0.340211)
(-0.566787 -0.0939625 -0.47992)
(-0.923481 -0.472674 -0.26983)
(-0.285498 -0.971073 0.0766828)
(-0.0560086 -1.1291 0.11489)
(0.0200161 -1.33527 0.107422)
(0.10022 -1.57341 0.138416)
(0.182228 -1.72289 0.226417)
(0.0971851 -1.76337 0.309791)
(0.00122249 -1.79092 0.326308)
(-0.00112508 -1.84097 0.337326)
(-0.00214748 -1.92312 0.355378)
(-0.00229676 -2.01553 0.376796)
(-0.00168605 -2.09745 0.395833)
(-0.000710266 -2.16156 0.410946)
(7.99255e-06 -2.20287 0.422027)
(0.000566686 -2.23089 0.42763)
(0.000860617 -2.26144 0.429569)
(-6.39733e-05 -2.29183 0.429999)
(-0.00231758 -2.26939 0.429666)
(-0.00217126 -2.1658 0.432762)
(-0.00533929 -2.01508 0.546001)
(-1.29433 1.38634 1.06649)
(-0.409254 -1.00973 -1.57154)
(-0.0422043 -1.91333 -0.427113)
(-0.0235781 -1.95459 0.247583)
(-0.00770909 -1.94184 0.382636)
(-0.00182341 -1.95629 0.381024)
(-0.000990933 -1.96506 0.370276)
(-0.00100168 -1.95247 0.368317)
(-0.000969493 -1.9182 0.363815)
(-0.00121006 -1.86369 0.354072)
(-0.00203403 -1.78735 0.340469)
(-0.00211606 -1.69362 0.313265)
(-0.000599524 -1.58464 0.289734)
(0.0011146 -1.46377 0.254287)
(0.00264973 -1.31799 0.228253)
(0.00287278 -1.14137 0.191655)
(0.000101822 -0.945375 0.150901)
(-0.00523453 -0.766878 0.118719)
(-0.0030951 -0.633637 0.105799)
(0.0101919 -0.560268 0.083209)
(0.0103678 -0.526587 0.0923496)
(-0.338398 -0.431732 0.0892789)
(-0.599093 -0.121414 0.00175366)
(-0.324249 -0.33105 -0.101699)
(-0.0585668 -0.341974 0.137596)
(0.186342 -0.155754 0.258521)
(0.302373 -0.0109471 0.220341)
(0.365791 0.0113081 0.0807552)
(0.236991 0.00241848 0.00741241)
(-0.0602076 0.0171782 -0.0217991)
(-0.0118223 0.00291341 -0.00166571)
(-0.000446104 7.86015e-05 -3.55809e-05)
(-4.53544e-06 5.73778e-07 -2.06356e-07)
(-3.57363e-08 5.06998e-09 -1.5072e-09)
(-3.12466e-09 3.28123e-10 -8.43794e-11)
(-1.16537e-10 6.68826e-12 -1.54321e-12)
(-0.000372986 -0.190586 0.0373416)
(-0.000334446 -0.172522 0.0497625)
(-0.00137566 -0.433574 0.0997746)