/*--------------------------------*- C++ -*----------------------------------*\
| =========                 |                                                 |
| \\      /  F ield         | OpenFOAM: The Open Source CFD Toolbox           |
|  \\    /   O peration     | Version:  2.1.1                                 |
|   \\  /    A nd           | Web:      www.OpenFOAM.org                      |
|    \\/     M anipulation  |                                                 |
\*---------------------------------------------------------------------------*/
FoamFile
{
    version     2.0;
    format      ascii;
    class       volVectorField;
    location    "0.00115";
    object      fluctuation2;
}
// * * * * * * * * * * * * * * * * * * * * * * * * * * * * * * * * * * * * * //

dimensions      [0 1 -1 0 0 0 0];

internalField   nonuniform List<vector> 
36520
(
(0.309797 0.170025 0.197914)
(0.445186 0.262923 0.25121)
(0.563977 0.338775 0.326706)
(0.593994 0.364511 0.354957)
(0.618977 0.380865 0.376146)
(0.620326 0.384439 0.383655)
(0.619633 0.384768 0.385635)
(0.617275 0.383706 0.384406)
(0.619305 0.383989 0.383534)
(0.621225 0.38411 0.382488)
(0.619602 0.382266 0.37973)
(0.614598 0.378459 0.375689)
(0.605296 0.372316 0.369493)
(0.593517 0.364709 0.361928)
(0.579409 0.355792 0.352938)
(0.564216 0.346098 0.34295)
(0.548015 0.335771 0.332168)
(0.531882 0.325297 0.321138)
(0.515269 0.314488 0.309705)
(0.49884 0.303632 0.298313)
(0.481703 0.292323 0.286569)
(0.464148 0.280717 0.274686)
(0.445336 0.268454 0.262341)
(0.425406 0.25565 0.249673)
(0.404123 0.242211 0.236498)
(0.381964 0.228419 0.223044)
(0.359014 0.214336 0.209351)
(0.33576 0.200217 0.195669)
(0.312529 0.186223 0.182084)
(0.289872 0.172636 0.168848)
(0.268144 0.159648 0.156114)
(0.247807 0.147529 0.144107)
(0.229149 0.136445 0.132959)
(0.212401 0.126539 0.122797)
(0.197653 0.117886 0.113668)
(0.184904 0.110483 0.105606)
(0.173987 0.104223 0.0985716)
(0.164647 0.0989347 0.0924794)
(0.156537 0.0943988 0.087184)
(0.149177 0.0903495 0.0825001)
(0.142002 0.086477 0.0782046)
(0.13442 0.0824472 0.0740288)
(0.126194 0.0781208 0.0698569)
(0.117728 0.0736413 0.0658881)
(0.109555 0.0693243 0.0624508)
(0.0995207 0.0639611 0.0585899)
(0.0873221 0.0574096 0.0542492)
(0.0733942 0.0496604 0.0490026)
(0.0601531 0.0415065 0.0429725)
(0.0451513 0.0323364 0.0341399)
(0.025877 0.0219836 0.0217012)
(0.0122623 0.0157489 0.0137842)
(0.0105763 0.0139269 0.0122395)
(0.0104243 0.0126124 0.0114395)
(0.0106842 0.0118152 0.0110978)
(0.0103996 0.0111445 0.0107158)
(0.0107795 0.0109265 0.0107118)
(0.0104794 0.0106622 0.0105241)
(0.0108824 0.0107371 0.0106711)
(0.011536 0.0114833 0.0114001)
(0.233669 0.123388 0.124642)
(0.250181 0.147713 0.140338)
(0.26858 0.161887 0.15665)
(0.246351 0.151822 0.148463)
(0.223869 0.139282 0.137606)
(0.198943 0.125159 0.124476)
(0.190425 0.120158 0.119506)
(0.188493 0.118766 0.117916)
(0.189001 0.118394 0.11728)
(0.188678 0.117695 0.116334)
(0.187598 0.116689 0.115202)
(0.184856 0.114814 0.113282)
(0.179574 0.111504 0.109911)
(0.173205 0.107542 0.105885)
(0.166797 0.103561 0.101763)
(0.161964 0.100469 0.0984929)
(0.158188 0.0979768 0.0957895)
(0.155665 0.0961645 0.0937877)
(0.153506 0.0945599 0.0919829)
(0.151262 0.0928609 0.0901432)
(0.148217 0.0907032 0.0878686)
(0.144224 0.0879927 0.085098)
(0.13858 0.0843608 0.0814758)
(0.13133 0.079833 0.0770341)
(0.122863 0.0746621 0.0719856)
(0.11376 0.0691874 0.0666535)
(0.104225 0.0635227 0.0611469)
(0.0946026 0.0578621 0.0556528)
(0.0856057 0.052612 0.050536)
(0.0777352 0.0480476 0.0460628)
(0.0713682 0.044382 0.0424378)
(0.0667695 0.0417637 0.039793)
(0.0640257 0.0402354 0.0381576)
(0.0630154 0.0397136 0.0374415)
(0.0635001 0.0400677 0.0374973)
(0.0650405 0.0410563 0.03809)
(0.0670766 0.0423714 0.0389457)
(0.0692964 0.0438324 0.0399326)
(0.0715713 0.0453588 0.0410235)
(0.0737478 0.0468606 0.0422)
(0.0757614 0.0482657 0.0434884)
(0.0777468 0.0495854 0.0449945)
(0.080278 0.0510662 0.0470362)
(0.0844406 0.0532305 0.0501869)
(0.0903429 0.0560019 0.054486)
(0.0973748 0.058973 0.0596618)
(0.105566 0.062225 0.0659068)
(0.11281 0.0648128 0.0716505)
(0.116 0.0653742 0.0738401)
(0.0996435 0.0560898 0.0639225)
(0.0615897 0.035772 0.0402862)
(0.0189156 0.0115821 0.0128771)
(0.00506475 0.00447871 0.00504538)
(0.00432636 0.00436728 0.00475973)
(0.00465921 0.00458157 0.00486662)
(0.00474608 0.00469677 0.0048921)
(0.00493708 0.00480249 0.00495122)
(0.00490398 0.00483914 0.00494611)
(0.00535555 0.00521252 0.00530976)
(0.00930472 0.00920999 0.00931076)
(0.160072 0.0802119 0.0803228)
(0.131669 0.077695 0.0739351)
(0.126073 0.0759879 0.0738562)
(0.102309 0.0632939 0.0619697)
(0.0822111 0.0516381 0.0507589)
(0.0654036 0.041733 0.0409233)
(0.0604989 0.0388179 0.0378367)
(0.0590673 0.0377364 0.0367247)
(0.0588334 0.0372768 0.0362313)
(0.0585211 0.0368715 0.035842)
(0.0582165 0.0365924 0.0355793)
(0.0576263 0.0362327 0.0352142)
(0.0558195 0.0351737 0.0341388)
(0.0537097 0.0339439 0.0328763)
(0.0518511 0.0328594 0.0317521)
(0.0509739 0.032347 0.0312032)
(0.0507738 0.0322218 0.0310661)
(0.0511144 0.0323993 0.0312504)
(0.0517142 0.0327297 0.0315927)
(0.0521536 0.0329637 0.0318482)
(0.0522349 0.0330018 0.0319132)
(0.051855 0.0327878 0.031748)
(0.0507663 0.0321984 0.0312435)
(0.0490505 0.0312919 0.0304665)
(0.0470632 0.0302852 0.0296195)
(0.0451829 0.0293908 0.0289087)
(0.0436217 0.0287165 0.0284399)
(0.0425722 0.0283507 0.0283017)
(0.04229 0.0284091 0.0285772)
(0.0427755 0.0288696 0.0292277)
(0.0439323 0.0296776 0.0301864)
(0.0456926 0.0307977 0.0314169)
(0.048006 0.032213 0.0328833)
(0.0508688 0.0339339 0.0345892)
(0.0543051 0.0359878 0.0365305)
(0.0583512 0.0384046 0.0387349)
(0.0630708 0.0412254 0.041268)
(0.0685359 0.0444825 0.0441963)
(0.0748597 0.0482228 0.0475811)
(0.0821481 0.0524825 0.0514958)
(0.0905678 0.0573157 0.0560857)
(0.100322 0.0627658 0.0614924)
(0.111795 0.0689955 0.0679967)
(0.125668 0.0762451 0.0759503)
(0.142681 0.0847758 0.0856388)
(0.162894 0.0943872 0.0968244)
(0.185544 0.104742 0.109183)
(0.204671 0.112835 0.119594)
(0.208231 0.11293 0.12079)
(0.179408 0.0974049 0.104368)
(0.118156 0.0666471 0.070995)
(0.0453932 0.0265583 0.0283558)
(0.00929711 0.0055134 0.00592293)
(0.00222761 0.00185678 0.00203724)
(0.0017729 0.00170913 0.00182843)
(0.00175428 0.00171617 0.001795)
(0.0017788 0.00172173 0.00177772)
(0.00177258 0.00174242 0.00178308)
(0.00262967 0.00256125 0.00260796)
(0.00845767 0.00836893 0.00845442)
(0.113352 0.0553988 0.0566362)
(0.0711055 0.0418122 0.0402015)
(0.0609737 0.0367039 0.0358779)
(0.044881 0.0279913 0.0273923)
(0.0339994 0.0220469 0.0214136)
(0.0285803 0.0196169 0.0188329)
(0.0312979 0.0221387 0.0212465)
(0.0284828 0.0198678 0.0190411)
(0.0249753 0.0168958 0.016222)
(0.024631 0.016509 0.0159766)
(0.0250857 0.0168496 0.0164187)
(0.0258212 0.0174636 0.0171181)
(0.0263555 0.0180115 0.017763)
(0.0270534 0.0186749 0.0185355)
(0.0280814 0.0195198 0.0194981)
(0.0295005 0.0205642 0.0206595)
(0.0312046 0.02174 0.021963)
(0.0331371 0.0230295 0.0233807)
(0.0352564 0.0244138 0.0249031)
(0.0375473 0.0258976 0.0265347)
(0.0399971 0.0274836 0.0282703)
(0.0426475 0.0292052 0.0301364)
(0.0455015 0.0310779 0.0321805)
(0.0486581 0.0331637 0.0344914)
(0.0521899 0.0355018 0.0371152)
(0.05615 0.0381125 0.0400563)
(0.0604588 0.0409345 0.0432398)
(0.0650158 0.0438874 0.0466156)
(0.0695261 0.0467704 0.0499676)
(0.0737676 0.0494092 0.053095)
(0.0776241 0.0517211 0.0558976)
(0.0810973 0.0537087 0.0583748)
(0.0841794 0.0553615 0.060478)
(0.0872151 0.0569205 0.062383)
(0.0898352 0.0581564 0.0637455)
(0.0925803 0.0594683 0.0649088)
(0.0974522 0.0621706 0.0673299)
(0.104046 0.0659249 0.0707838)
(0.112468 0.070728 0.0753365)
(0.122981 0.076702 0.0810262)
(0.136024 0.0840376 0.0880857)
(0.151801 0.0926983 0.0966123)
(0.170425 0.102659 0.106646)
(0.192007 0.113962 0.118328)
(0.216379 0.126049 0.13109)
(0.244412 0.139013 0.144781)
(0.283818 0.157358 0.163899)
(0.319677 0.17289 0.180274)
(0.318709 0.16883 0.175851)
(0.276958 0.147026 0.151905)
(0.190946 0.104957 0.107248)
(0.0892815 0.0512629 0.0530885)
(0.0218402 0.0125494 0.0131369)
(0.00410892 0.00239089 0.00250408)
(0.000886072 0.000701797 0.000748961)
(0.000600289 0.000576218 0.000604859)
(0.000563536 0.000541741 0.000560326)
(0.000619206 0.000605774 0.000620253)
(0.00201709 0.00196453 0.00199986)
(0.00829476 0.00819674 0.0082829)
(0.0818818 0.0395186 0.0419096)
(0.0398348 0.0235215 0.0231017)
(0.0324402 0.0202845 0.0200118)
(0.0295159 0.0206185 0.0201775)
(0.0399481 0.0295134 0.0285944)
(0.0606088 0.0453318 0.043615)
(0.0891277 0.0657263 0.063185)
(0.0725448 0.0535372 0.05142)
(0.0370146 0.0276766 0.0269234)
(0.0261795 0.0195447 0.0192712)
(0.0270884 0.020065 0.0199266)
(0.0300183 0.0221575 0.0221299)
(0.0334347 0.02464 0.0247516)
(0.037315 0.0274638 0.0277603)
(0.0415693 0.0304836 0.0310106)
(0.0459895 0.0335325 0.0343401)
(0.0506468 0.036647 0.037837)
(0.0559085 0.0401003 0.0417498)
(0.0620501 0.0440901 0.046257)
(0.0688814 0.0484744 0.0511551)
(0.0769187 0.0536601 0.0568469)
(0.0862831 0.0597241 0.0633926)
(0.0972257 0.0668502 0.0710255)
(0.110064 0.0752624 0.0800894)
(0.124982 0.0850811 0.0907301)
(0.14215 0.0963741 0.102932)
(0.161407 0.10902 0.116451)
(0.182601 0.122893 0.131285)
(0.203874 0.136809 0.146215)
(0.223743 0.149743 0.160115)
(0.241984 0.161601 0.172733)
(0.259367 0.17286 0.184604)
(0.275594 0.183154 0.195352)
(0.272172 0.180004 0.192431)
(0.249353 0.163641 0.176404)
(0.217572 0.141033 0.154542)
(0.191592 0.122162 0.136533)
(0.18507 0.116746 0.131301)
(0.190717 0.119618 0.134002)
(0.201078 0.125438 0.139438)
(0.216741 0.134524 0.147801)
(0.237561 0.146792 0.158914)
(0.263924 0.162798 0.173115)
(0.296519 0.182685 0.191165)
(0.331943 0.203065 0.210197)
(0.362307 0.21672 0.223102)
(0.405914 0.23502 0.241179)
(0.447936 0.249342 0.256239)
(0.436726 0.234655 0.24231)
(0.385427 0.204564 0.208998)
(0.283082 0.153314 0.153073)
(0.15115 0.084581 0.0854307)
(0.0454183 0.0258085 0.0265264)
(0.00993187 0.00561972 0.00577767)
(0.00178207 0.0010213 0.00105381)
(0.000344672 0.000254125 0.000265878)
(0.000191567 0.000180533 0.000187091)
(0.00035673 0.00034753 0.000354739)
(0.00195138 0.00189656 0.00192804)
(0.00827224 0.00815861 0.00823563)
(0.0626155 0.0304248 0.0339732)
(0.0309146 0.0210298 0.0209778)
(0.0467267 0.0337752 0.0336209)
(0.0836577 0.0609451 0.0600243)
(0.141477 0.103709 0.100493)
(0.217668 0.160259 0.152829)
(0.303944 0.220126 0.208881)
(0.258395 0.187785 0.178296)
(0.137357 0.101481 0.0977174)
(0.074103 0.0554575 0.0546945)
(0.0675483 0.050448 0.0503268)
(0.0753257 0.0558673 0.0559944)
(0.0846806 0.0625671 0.0629298)
(0.0952331 0.0702464 0.0709727)
(0.105844 0.0780032 0.0792187)
(0.116038 0.0854328 0.0873378)
(0.127937 0.0940587 0.0969219)
(0.144586 0.10582 0.109811)
(0.162067 0.117815 0.123201)
(0.180253 0.129961 0.1369)
(0.200471 0.143286 0.151635)
(0.224873 0.159336 0.168708)
(0.260437 0.183015 0.193026)
(0.304946 0.212656 0.223268)
(0.357897 0.247911 0.259568)
(0.418266 0.28803 0.301528)
(0.485562 0.332494 0.348208)
(0.565159 0.384279 0.402236)
(0.650582 0.439345 0.459639)
(0.729354 0.489706 0.512265)
(0.793919 0.530858 0.554298)
(0.840381 0.560174 0.582769)
(0.84498 0.561789 0.582066)
(0.806413 0.53535 0.552633)
(0.732677 0.486172 0.50104)
(0.639555 0.424579 0.438618)
(0.544286 0.361098 0.376313)
(0.465776 0.307698 0.325336)
(0.418106 0.273883 0.294191)
(0.400282 0.26017 0.282266)
(0.403489 0.260733 0.283753)
(0.415407 0.26722 0.2905)
(0.434305 0.278914 0.301117)
(0.473661 0.30495 0.32684)
(0.514001 0.328509 0.350699)
(0.545548 0.342537 0.361958)
(0.572843 0.349533 0.367361)
(0.577702 0.339039 0.359322)
(0.546669 0.308958 0.327389)
(0.492082 0.27057 0.277924)
(0.393957 0.214402 0.211507)
(0.231682 0.126475 0.125372)
(0.0847924 0.0474021 0.0478746)
(0.0218011 0.0122356 0.0124198)
(0.00467378 0.00262325 0.00267006)
(0.000783304 0.000442603 0.000451852)
(0.00012704 9.1199e-05 9.35311e-05)
(0.000321324 0.000312091 0.000317607)
(0.00194295 0.00188343 0.00191281)
(0.00827113 0.00813984 0.00821108)
(0.0711873 0.0423106 0.0470682)
(0.0886714 0.0643099 0.0657355)
(0.17276 0.123358 0.125443)
(0.309494 0.218042 0.219138)
(0.493159 0.347121 0.340827)
(0.705387 0.498466 0.478116)
(0.893018 0.624427 0.59321)
(0.786992 0.557466 0.526761)
(0.508722 0.368641 0.351401)
(0.307403 0.224311 0.218896)
(0.246977 0.180427 0.178153)
(0.275132 0.199426 0.19781)
(0.316637 0.228508 0.226648)
(0.365428 0.263251 0.260942)
(0.410649 0.296056 0.29328)
(0.445893 0.322119 0.31895)
(0.486961 0.352047 0.34905)
(0.521111 0.376946 0.37606)
(0.558709 0.40335 0.406503)
(0.593665 0.426801 0.435035)
(0.622176 0.444711 0.457639)
(0.641389 0.455332 0.472219)
(0.67089 0.4736 0.493469)
(0.74234 0.52217 0.543073)
(0.853699 0.598701 0.618241)
(0.976395 0.680989 0.698186)
(1.08523 0.754171 0.770039)
(1.19763 0.829648 0.84482)
(1.32212 0.91157 0.926198)
(1.44129 0.986794 1.00151)
(1.52912 1.03862 1.05351)
(1.5765 1.06225 1.07733)
(1.5915 1.06414 1.07943)
(1.56064 1.03814 1.05252)
(1.4777 0.981724 0.994156)
(1.35369 0.901933 0.912339)
(1.20591 0.80837 0.818553)
(1.05367 0.711716 0.724435)
(0.915984 0.622181 0.638693)
(0.791373 0.538438 0.558496)
(0.696804 0.473045 0.494024)
(0.642472 0.433266 0.452667)
(0.616635 0.414254 0.430918)
(0.612503 0.411449 0.428291)
(0.618746 0.414924 0.435694)
(0.623002 0.415861 0.437963)
(0.624818 0.412038 0.431408)
(0.609919 0.390978 0.409282)
(0.572669 0.351653 0.367654)
(0.52341 0.304505 0.315008)
(0.465384 0.255912 0.258941)
(0.329616 0.177815 0.176759)
(0.145802 0.0799704 0.0797864)
(0.0434647 0.0241173 0.0242176)
(0.0102955 0.00573034 0.00577736)
(0.00189391 0.00105612 0.00106825)
(0.000279156 0.000162417 0.000164812)
(0.00031885 0.000307559 0.000312421)
(0.00193799 0.00187274 0.00189995)
(0.00827042 0.00811793 0.00818311)
(0.195895 0.136328 0.146635)
(0.285128 0.208976 0.213354)
(0.505174 0.361949 0.36328)
(0.848281 0.589074 0.590831)
(1.27294 0.871989 0.860829)
(1.65268 1.11955 1.09948)
(1.90255 1.28525 1.25939)
(1.86356 1.27342 1.23624)
(1.53063 1.07619 1.03571)
(1.13928 0.81705 0.78761)
(0.995862 0.710742 0.691456)
(1.10598 0.779444 0.762871)
(1.26664 0.88469 0.867837)
(1.45392 1.00801 0.990075)
(1.6125 1.11213 1.09227)
(1.69997 1.17038 1.14887)
(1.68941 1.16636 1.14315)
(1.6242 1.1305 1.10861)
(1.55489 1.09264 1.07719)
(1.54652 1.09303 1.08642)
(1.57137 1.11428 1.11363)
(1.60719 1.141 1.14211)
(1.65051 1.17048 1.17022)
(1.70158 1.20452 1.20335)
(1.77472 1.25342 1.25267)
(1.87485 1.31935 1.31673)
(1.97959 1.38662 1.37916)
(2.06968 1.44263 1.4307)
(2.14082 1.48439 1.47002)
(2.18954 1.50921 1.49265)
(2.2078 1.51269 1.49373)
(2.19939 1.49865 1.47664)
(2.1729 1.47277 1.44741)
(2.12768 1.4352 1.40717)
(2.05436 1.38135 1.35157)
(1.9441 1.30773 1.27632)
(1.80075 1.2169 1.1848)
(1.63634 1.11387 1.08345)
(1.46907 1.00908 0.982539)
(1.30634 0.905834 0.885635)
(1.15195 0.806617 0.793132)
(1.00672 0.709284 0.700024)
(0.887074 0.62276 0.614675)
(0.822642 0.573576 0.564084)
(0.777484 0.545513 0.535943)
(0.704259 0.503017 0.498981)
(0.632815 0.449895 0.450475)
(0.582437 0.403866 0.402222)
(0.537421 0.358254 0.354251)
(0.495488 0.31057 0.308003)
(0.458812 0.264348 0.266625)
(0.365752 0.198263 0.201346)
(0.199767 0.108124 0.108513)
(0.0705821 0.038581 0.0387033)
(0.0188082 0.0103397 0.0103956)
(0.00384114 0.00211835 0.0021356)
(0.000610182 0.000340262 0.00034392)
(0.000323998 0.000306538 0.000310385)
(0.00193235 0.00186162 0.00188392)
(0.00826617 0.00809372 0.00814265)
(0.263902 0.21849 0.169977)
(0.340382 0.224337 0.221225)
(0.548805 0.383272 0.376638)
(0.75631 0.536634 0.529084)
(0.988386 0.696763 0.690908)
(1.19301 0.821187 0.818618)
(1.33419 0.907242 0.916287)
(1.46237 0.995298 1.01153)
(1.57884 1.08263 1.09419)
(1.69614 1.17084 1.17264)
(1.81439 1.257 1.25182)
(1.96002 1.357 1.34622)
(2.12463 1.46484 1.44835)
(2.29445 1.57069 1.54827)
(2.45914 1.66796 1.6384)
(2.5708 1.73137 1.69393)
(2.59312 1.7417 1.69632)
(2.53881 1.70889 1.65799)
(2.45683 1.66215 1.60951)
(2.38013 1.62298 1.57375)
(2.30786 1.59216 1.55061)
(2.24217 1.56675 1.53131)
(2.19089 1.54669 1.51047)
(2.15269 1.53034 1.48933)
(2.12366 1.51652 1.47195)
(2.10936 1.50907 1.46357)
(2.10673 1.50555 1.45838)
(2.10596 1.49998 1.44872)
(2.10134 1.48929 1.43388)
(2.09348 1.47427 1.41692)
(2.0799 1.45483 1.39836)
(2.05454 1.42885 1.37471)
(2.01901 1.3975 1.34534)
(1.97542 1.36118 1.30979)
(1.92027 1.31713 1.26494)
(1.8488 1.26388 1.20896)
(1.75564 1.20017 1.1413)
(1.64338 1.12817 1.06559)
(1.52311 1.05522 0.989641)
(1.40813 0.989369 0.920611)
(1.3028 0.931872 0.8619)
(1.20315 0.879329 0.810612)
(1.0923 0.816097 0.750539)
(0.977788 0.740876 0.681219)
(0.893893 0.674101 0.621671)
(0.826164 0.610032 0.569673)
(0.737159 0.531549 0.505863)
(0.638433 0.448879 0.43201)
(0.54883 0.373464 0.361924)
(0.483299 0.310257 0.305525)
(0.442957 0.258952 0.264443)
(0.371912 0.19995 0.210869)
(0.235023 0.125048 0.129821)
(0.100401 0.0538208 0.0552361)
(0.0310991 0.0167812 0.0171559)
(0.00714974 0.00387277 0.00395866)
(0.00124821 0.000679529 0.000695245)
(0.000355327 0.000314351 0.000318108)
(0.00192829 0.00185253 0.00187233)
(0.00826301 0.00807538 0.00811319)
(0.241271 0.207261 0.166774)
(0.318565 0.198777 0.197411)
(0.529019 0.366596 0.353912)
(0.692281 0.49014 0.473391)
(0.86878 0.625141 0.625262)
(1.03607 0.747337 0.763574)
(1.1853 0.847675 0.875517)
(1.30362 0.926196 0.961701)
(1.36806 0.97652 1.01412)
(1.39903 1.0043 1.03361)
(1.42568 1.02477 1.03747)
(1.47156 1.05439 1.05085)
(1.55744 1.10803 1.09315)
(1.67115 1.17733 1.15678)
(1.80914 1.25878 1.23794)
(1.94997 1.34115 1.32158)
(2.06983 1.41146 1.39017)
(2.17278 1.4723 1.44304)
(2.28311 1.53914 1.49512)
(2.39843 1.61521 1.55284)
(2.47269 1.67692 1.60151)
(2.45597 1.69235 1.61417)
(2.35618 1.65941 1.58727)
(2.23798 1.60931 1.54376)
(2.14645 1.56785 1.50439)
(2.08821 1.54004 1.47553)
(2.04717 1.51518 1.44901)
(2.01881 1.4901 1.42222)
(2.0066 1.46907 1.39975)
(2.00372 1.45193 1.38329)
(1.99736 1.43373 1.3692)
(1.97797 1.40885 1.35184)
(1.94078 1.37355 1.32596)
(1.88594 1.32705 1.2902)
(1.81123 1.26783 1.24083)
(1.72021 1.19891 1.17863)
(1.6182 1.12431 1.10532)
(1.50515 1.04577 1.02182)
(1.37332 0.960737 0.926959)
(1.21491 0.864683 0.820801)
(1.03896 0.762784 0.712096)
(0.86619 0.667069 0.613534)
(0.735147 0.595781 0.542298)
(0.649959 0.542558 0.490296)
(0.587545 0.487673 0.441512)
(0.538649 0.428454 0.390309)
(0.506631 0.376788 0.348275)
(0.473522 0.331337 0.315577)
(0.437895 0.291293 0.284181)
(0.418436 0.260007 0.261102)
(0.410865 0.23417 0.244711)
(0.358765 0.19104 0.20501)
(0.232634 0.124256 0.129075)
(0.102876 0.0555456 0.0563933)
(0.032986 0.0179372 0.0180681)
(0.00780278 0.00425963 0.00428413)
(0.00138982 0.000762148 0.00076701)
(0.000365643 0.000317997 0.00032089)
(0.00192803 0.00185254 0.00187116)
(0.00826329 0.00808042 0.00811194)
(0.205788 0.168964 0.151615)
(0.262987 0.16364 0.176098)
(0.548639 0.401058 0.388128)
(0.802857 0.589554 0.559492)
(1.029 0.750441 0.730333)
(1.35165 0.958571 0.970787)
(1.68217 1.16413 1.20832)
(1.9279 1.32423 1.37919)
(2.09076 1.44835 1.49502)
(2.17702 1.53575 1.55214)
(2.21865 1.59023 1.56989)
(2.25209 1.62238 1.58223)
(2.30603 1.65303 1.61041)
(2.42168 1.71636 1.67939)
(2.57951 1.80257 1.77744)
(2.73428 1.88579 1.87469)
(2.8687 1.95879 1.95889)
(3.00508 2.03535 2.03844)
(3.16645 2.1261 2.11963)
(3.35446 2.23147 2.20113)
(3.51 2.32546 2.26251)
(3.51881 2.35802 2.27007)
(3.3511 2.31046 2.21386)
(3.1478 2.23907 2.14043)
(3.00698 2.18926 2.08566)
(2.93527 2.16743 2.05815)
(2.91282 2.16137 2.05435)
(2.9223 2.16031 2.06469)
(2.95959 2.16524 2.08215)
(3.00675 2.17024 2.09649)
(3.04056 2.1667 2.09993)
(3.04396 2.14718 2.08744)
(3.01224 2.10796 2.05834)
(2.94716 2.04942 2.01352)
(2.85052 1.97205 1.95032)
(2.72321 1.87577 1.86206)
(2.56417 1.75926 1.74239)
(2.37036 1.62104 1.58772)
(2.13542 1.46363 1.40459)
(1.82813 1.27358 1.19332)
(1.47067 1.0622 0.97169)
(1.1355 0.870264 0.77573)
(0.873281 0.717524 0.625278)
(0.713773 0.611503 0.52703)
(0.636452 0.538207 0.468945)
(0.592048 0.472603 0.426391)
(0.556955 0.415105 0.388901)
(0.517704 0.369122 0.356322)
(0.47366 0.328091 0.322102)
(0.443795 0.293364 0.290991)
(0.429127 0.264362 0.263758)
(0.375803 0.216062 0.21629)
(0.246311 0.137733 0.136606)
(0.110633 0.0615342 0.060637)
(0.0357932 0.0199022 0.0196146)
(0.00850927 0.00473215 0.00467594)
(0.00151648 0.000844904 0.000837572)
(0.000374236 0.000321483 0.000323329)
(0.00192675 0.00185213 0.00186823)
(0.0082569 0.00807887 0.00810096)
(0.196757 0.125098 0.166444)
(0.278701 0.187049 0.2166)
(0.502836 0.381097 0.366412)
(0.882532 0.63383 0.589694)
(1.32383 0.935055 0.878917)
(1.88887 1.29695 1.2706)
(2.28584 1.54454 1.55134)
(2.5742 1.73756 1.74918)
(2.76951 1.89166 1.89517)
(2.85856 2.00012 1.96631)
(2.92515 2.09256 2.00428)
(3.03767 2.19 2.08095)
(3.23719 2.32263 2.21952)
(3.46664 2.45843 2.37241)
(3.68144 2.57495 2.51712)
(3.8558 2.66053 2.63798)
(3.97185 2.70849 2.71863)
(4.05952 2.74139 2.77601)
(4.14089 2.7676 2.82321)
(4.19559 2.77886 2.84902)
(4.16862 2.75926 2.81652)
(4.02141 2.70285 2.70806)
(3.77542 2.61184 2.54332)
(3.49733 2.49253 2.36534)
(3.30199 2.40246 2.24159)
(3.24429 2.38311 2.20384)
(3.29768 2.4196 2.23749)
(3.40703 2.47721 2.30906)
(3.5218 2.52965 2.38631)
(3.61022 2.56141 2.44458)
(3.65643 2.56782 2.47115)
(3.65841 2.54865 2.46691)
(3.62977 2.5107 2.44342)
(3.5746 2.45596 2.40217)
(3.48782 2.38302 2.34191)
(3.3562 2.28471 2.25236)
(3.17041 2.15406 2.12215)
(2.91119 1.98189 1.93928)
(2.55482 1.75841 1.69397)
(2.11962 1.49738 1.39943)
(1.64995 1.2172 1.08945)
(1.21395 0.950362 0.810719)
(0.908296 0.754751 0.621742)
(0.769446 0.650503 0.535163)
(0.74959 0.606194 0.518062)
(0.752454 0.568906 0.516353)
(0.720215 0.519413 0.495981)
(0.682569 0.485516 0.473484)
(0.626375 0.441807 0.436402)
(0.561784 0.387033 0.384778)
(0.504252 0.329085 0.326053)
(0.42646 0.261159 0.253404)
(0.276443 0.162399 0.155252)
(0.117434 0.0681345 0.0649339)
(0.0347668 0.0200806 0.0192045)
(0.0076615 0.00441351 0.0042431)
(0.0012809 0.000738036 0.000713382)
(0.000353894 0.000316777 0.000316914)
(0.00192755 0.00186011 0.00187005)
(0.00825454 0.00810397 0.00810007)
(0.223964 0.140323 0.194522)
(0.315623 0.22626 0.24621)
(0.468225 0.362193 0.322374)
(0.827594 0.603322 0.553212)
(1.26801 0.908121 0.853944)
(1.81129 1.24781 1.20181)
(2.1942 1.46427 1.41571)
(2.56113 1.679 1.62848)
(2.82393 1.85261 1.81441)
(2.90724 1.97574 1.94674)
(2.97887 2.11309 2.05228)
(3.11091 2.24542 2.15461)
(3.29954 2.3793 2.28995)
(3.54075 2.52614 2.44864)
(3.78191 2.66092 2.60888)
(3.99243 2.76846 2.75322)
(4.14337 2.83553 2.85603)
(4.22827 2.86102 2.91047)
(4.27386 2.85955 2.93343)
(4.27639 2.83333 2.91957)
(4.2137 2.7853 2.85224)
(4.0448 2.70808 2.71918)
(3.78223 2.60291 2.54517)
(3.5184 2.49499 2.3847)
(3.34215 2.42089 2.27814)
(3.27198 2.3955 2.22531)
(3.27402 2.39842 2.21474)
(3.33769 2.42691 2.25342)
(3.43938 2.472 2.3231)
(3.52669 2.50499 2.38394)
(3.5763 2.5141 2.41663)
(3.59299 2.50323 2.42301)
(3.57945 2.47503 2.40687)
(3.5271 2.42343 2.36109)
(3.4213 2.3399 2.27932)
(3.25523 2.22371 2.16266)
(3.02958 2.07624 2.00968)
(2.73076 1.88836 1.80975)
(2.35844 1.65779 1.55844)
(1.92625 1.39142 1.26312)
(1.48824 1.11943 0.969805)
(1.11315 0.882873 0.730072)
(0.864576 0.722791 0.580166)
(0.772349 0.652305 0.526971)
(0.820067 0.662542 0.563623)
(0.884723 0.676772 0.61776)
(0.865038 0.639835 0.612731)
(0.795664 0.578877 0.566331)
(0.7042 0.503859 0.5002)
(0.609622 0.424036 0.424165)
(0.530999 0.349863 0.347448)
(0.440233 0.273143 0.263295)
(0.282206 0.167482 0.159571)
(0.117848 0.0688628 0.0655685)
(0.034593 0.0200797 0.019202)
(0.00759676 0.00439217 0.00422358)
(0.00126881 0.000733132 0.000708914)
(0.000353164 0.000316516 0.000316778)
(0.00192721 0.0018596 0.00187021)
(0.00825338 0.00810178 0.00810015)
(0.207125 0.174699 0.171375)
(0.363459 0.229595 0.249376)
(0.628107 0.483027 0.430822)
(0.89878 0.664734 0.628937)
(1.19584 0.852944 0.86848)
(1.45543 0.993299 1.00935)
(1.70837 1.13585 1.10704)
(2.04637 1.34014 1.27043)
(2.45455 1.58164 1.48308)
(2.67558 1.74392 1.62847)
(2.62144 1.79499 1.69147)
(2.55114 1.82286 1.75072)
(2.57977 1.87323 1.82554)
(2.70072 1.95684 1.92262)
(2.86683 2.05135 2.02529)
(3.03213 2.13507 2.118)
(3.1743 2.20057 2.19237)
(3.2804 2.24307 2.23913)
(3.3652 2.27182 2.263)
(3.45328 2.30287 2.27469)
(3.52545 2.33384 2.27659)
(3.47004 2.31264 2.23206)
(3.24306 2.21223 2.12358)
(2.98393 2.09443 2.00288)
(2.80162 2.01241 1.91086)
(2.70516 1.97416 1.85812)
(2.67458 1.96713 1.84342)
(2.68089 1.97233 1.85436)
(2.7144 1.98347 1.87771)
(2.76518 1.9967 1.90346)
(2.80959 2.00263 1.92058)
(2.82093 1.98955 1.91651)
(2.79307 1.95485 1.88764)
(2.72847 1.89946 1.83312)
(2.62849 1.82215 1.75048)
(2.49838 1.72524 1.64374)
(2.34204 1.61422 1.52028)
(2.15423 1.48916 1.38292)
(1.91901 1.34155 1.2235)
(1.62078 1.16148 1.03459)
(1.29022 0.961279 0.833037)
(0.995242 0.779702 0.657615)
(0.785746 0.646313 0.536973)
(0.681687 0.56894 0.480221)
(0.663283 0.536878 0.475499)
(0.658157 0.515538 0.481852)
(0.619749 0.474283 0.460013)
(0.567001 0.422608 0.417514)
(0.518357 0.371188 0.369793)
(0.486878 0.327087 0.326545)
(0.469347 0.291397 0.288443)
(0.392427 0.228507 0.225109)
(0.237406 0.13377 0.132649)
(0.102591 0.0572913 0.0567817)
(0.032696 0.0182134 0.0180701)
(0.007738 0.00430552 0.00428307)
(0.00137777 0.000767663 0.00076599)
(0.000364414 0.000318372 0.000320351)
(0.00192667 0.00185424 0.00186956)
(0.00825744 0.00808619 0.0081043)
(0.220876 0.195318 0.17069)
(0.292271 0.176784 0.22798)
(0.574476 0.444237 0.458179)
(0.766521 0.579899 0.591068)
(0.906801 0.651933 0.656829)
(1.09906 0.739983 0.721225)
(1.36054 0.895298 0.843502)
(1.77042 1.15498 1.06434)
(2.36184 1.50951 1.37597)
(2.79717 1.77745 1.62761)
(2.77679 1.82178 1.72354)
(2.60832 1.78517 1.73829)
(2.57061 1.79205 1.75749)
(2.61812 1.83414 1.80157)
(2.71777 1.89428 1.86001)
(2.83821 1.9575 1.92048)
(2.94317 2.00789 1.96826)
(3.01706 2.03929 1.99595)
(3.03773 2.04191 1.99329)
(2.97746 2.00337 1.9473)
(2.86023 1.93615 1.87357)
(2.71546 1.85527 1.7878)
(2.57235 1.77669 1.70182)
(2.45924 1.71656 1.62715)
(2.36744 1.66835 1.56553)
(2.29281 1.63131 1.52529)
(2.25456 1.61356 1.51183)
(2.24804 1.60727 1.50996)
(2.24847 1.60024 1.5051)
(2.25023 1.58965 1.49712)
(2.25409 1.57719 1.49034)
(2.24201 1.55479 1.47604)
(2.1937 1.51099 1.43922)
(2.09644 1.44015 1.37299)
(1.95355 1.34568 1.27935)
(1.79127 1.24211 1.17137)
(1.63025 1.14081 1.06152)
(1.47489 1.04443 0.955365)
(1.31508 0.94654 0.847635)
(1.13886 0.839575 0.735635)
(0.950716 0.724141 0.621524)
(0.775153 0.614244 0.518339)
(0.640104 0.525149 0.440869)
(0.555568 0.460425 0.394587)
(0.512102 0.414525 0.37105)
(0.484751 0.37588 0.352102)
(0.462612 0.341933 0.331505)
(0.445516 0.313142 0.310107)
(0.434813 0.287821 0.288776)
(0.437291 0.267122 0.271981)
(0.433017 0.242467 0.253711)
(0.342049 0.183014 0.194428)
(0.188869 0.101442 0.106573)
(0.078676 0.0425401 0.0440215)
(0.0246809 0.0133966 0.0137665)
(0.00579647 0.00315399 0.00323415)
(0.00102773 0.000562145 0.000576208)
(0.000342828 0.000310952 0.000313784)
(0.00192787 0.00185634 0.00187297)
(0.00826434 0.00809355 0.00811524)
(0.198557 0.184033 0.144352)
(0.21937 0.161866 0.182468)
(0.446888 0.332611 0.372417)
(0.684513 0.480849 0.506463)
(1.02875 0.674287 0.663636)
(1.44906 0.913122 0.857258)
(1.89947 1.19301 1.0887)
(2.33101 1.47214 1.3365)
(2.52577 1.59595 1.48744)
(2.41556 1.55487 1.52258)
(2.28567 1.52538 1.53536)
(2.30083 1.5702 1.57103)
(2.37515 1.63748 1.62702)
(2.48902 1.71885 1.70477)
(2.61773 1.80055 1.78341)
(2.7037 1.84935 1.82579)
(2.74471 1.86763 1.8379)
(2.74201 1.8591 1.82688)
(2.69811 1.82865 1.79523)
(2.61686 1.78127 1.74772)
(2.51753 1.72534 1.69086)
(2.44074 1.68063 1.63684)
(2.38842 1.64858 1.58515)
(2.32555 1.6108 1.52889)
(2.24683 1.56408 1.47627)
(2.16666 1.51621 1.43296)
(2.1061 1.47636 1.40109)
(2.06416 1.44235 1.37368)
(2.02344 1.40677 1.34463)
(1.97475 1.36607 1.31127)
(1.91443 1.31805 1.27165)
(1.84059 1.26236 1.22342)
(1.7539 1.20063 1.16638)
(1.65621 1.13425 1.10195)
(1.54869 1.06449 1.03099)
(1.43245 0.992786 0.954139)
(1.31295 0.92116 0.87321)
(1.19379 0.850791 0.790629)
(1.07496 0.780805 0.71132)
(0.954898 0.709236 0.637072)
(0.831815 0.633005 0.566572)
(0.716718 0.558418 0.50493)
(0.629554 0.496169 0.460663)
(0.585043 0.450265 0.439801)
(0.583931 0.426239 0.441358)
(0.586106 0.411498 0.438217)
(0.558562 0.384709 0.410533)
(0.513719 0.347953 0.367643)
(0.473088 0.310268 0.32343)
(0.453042 0.278879 0.288375)
(0.439702 0.247962 0.260661)
(0.345695 0.184427 0.196507)
(0.186977 0.09999 0.105254)
(0.0750071 0.0404568 0.042073)
(0.0226614 0.0122763 0.0127101)
(0.00517187 0.00280864 0.00290481)
(0.000899579 0.000491544 0.000508288)
(0.000335843 0.000308609 0.000312018)
(0.00192828 0.00185573 0.00187408)
(0.00826465 0.00808638 0.00811746)
(0.152261 0.110817 0.113891)
(0.211254 0.155585 0.149247)
(0.414845 0.301513 0.282382)
(0.655931 0.460653 0.426701)
(0.978848 0.662305 0.613886)
(1.36279 0.885647 0.827625)
(1.5595 0.999924 0.948993)
(1.58013 1.01654 0.989346)
(1.44208 0.940858 0.948334)
(1.19082 0.803778 0.826542)
(0.976073 0.683716 0.692363)
(0.921307 0.657714 0.652043)
(1.01311 0.723328 0.711841)
(1.17017 0.829497 0.816335)
(1.36965 0.963199 0.951292)
(1.57455 1.09758 1.08862)
(1.68426 1.16779 1.1611)
(1.73196 1.19958 1.19307)
(1.72921 1.20076 1.19137)
(1.6792 1.17361 1.16196)
(1.63414 1.14926 1.13743)
(1.61989 1.13951 1.12951)
(1.61644 1.13271 1.12606)
(1.59903 1.11683 1.11548)
(1.58994 1.10808 1.11183)
(1.6197 1.12402 1.13247)
(1.69659 1.16856 1.18131)
(1.7912 1.22371 1.2417)
(1.86725 1.2683 1.29142)
(1.90872 1.29185 1.3184)
(1.91265 1.28943 1.3174)
(1.88744 1.26602 1.29237)
(1.84252 1.22966 1.25187)
(1.76551 1.17582 1.1915)
(1.64222 1.09857 1.10662)
(1.48266 1.00457 1.00553)
(1.31494 0.906154 0.905243)
(1.1607 0.808929 0.817123)
(1.03322 0.722703 0.750094)
(0.933189 0.652602 0.702113)
(0.849691 0.593822 0.664202)
(0.790702 0.550195 0.638128)
(0.765654 0.524089 0.629657)
(0.766662 0.510143 0.631361)
(0.764932 0.500184 0.619392)
(0.733978 0.481619 0.576559)
(0.671451 0.441818 0.511586)
(0.596171 0.389094 0.437468)
(0.531979 0.337895 0.368437)