/*--------------------------------*- C++ -*----------------------------------*\
| =========                 |                                                 |
| \\      /  F ield         | OpenFOAM: The Open Source CFD Toolbox           |
|  \\    /   O peration     | Version:  2.1.1                                 |
|   \\  /    A nd           | Web:      www.OpenFOAM.org                      |
|    \\/     M anipulation  |                                                 |
\*---------------------------------------------------------------------------*/
FoamFile
{
    version     2.0;
    format      ascii;
    class       volVectorField;
    location    "0.00115";
    object      gradAlphaUSE;
}
// * * * * * * * * * * * * * * * * * * * * * * * * * * * * * * * * * * * * * //

dimensions      [0 0 0 0 0 0 0];

internalField   nonuniform List<vector> 
36520
(
(-5.94451e-05 3.64384e-05 0.000216743)
(-5.61716e-05 5.05268e-05 0.000254759)
(6.90762e-06 7.61005e-05 0.000318005)
(9.66051e-06 0.000106784 0.000404194)
(1.44444e-05 0.000154815 0.000512534)
(1.72029e-05 0.000214661 0.000610722)
(1.36047e-05 0.00026639 0.000683326)
(5.30371e-06 0.000285994 0.000705911)
(1.56617e-07 0.000283002 0.000714951)
(1.24285e-06 0.00027924 0.000725764)
(4.98353e-06 0.000288538 0.000760109)
(8.19684e-06 0.000308399 0.000808185)
(1.07081e-05 0.000335115 0.000875989)
(1.33724e-05 0.000366422 0.000958974)
(1.67065e-05 0.000404308 0.00106386)
(2.11905e-05 0.000449664 0.00119478)
(2.77623e-05 0.000507946 0.00136355)
(3.72191e-05 0.0005866 0.00158104)
(5.01473e-05 0.00069481 0.00185167)
(6.66405e-05 0.000841078 0.00218188)
(8.64079e-05 0.00103159 0.00256317)
(0.000108579 0.00127054 0.00298596)
(0.000130993 0.00155858 0.00342353)
(0.000150044 0.00188992 0.00383851)
(0.000161249 0.00225079 0.00417168)
(0.000160333 0.00261827 0.0043593)
(0.000145312 0.00295918 0.00433225)
(0.00011924 0.0032364 0.00403855)
(9.35777e-05 0.00342286 0.00345513)
(8.84491e-05 0.00352854 0.00263453)
(0.000127491 0.00362625 0.00170247)
(0.000227652 0.00385851 0.000822878)
(0.000387827 0.00439833 0.000108365)
(0.00058351 0.0053752 -0.000470801)
(0.000773145 0.00681446 -0.00104408)
(0.000915481 0.00862843 -0.0017196)
(0.000973081 0.0106629 -0.0024955)
(0.000910529 0.0126867 -0.00327625)
(0.000704666 0.0143694 -0.0039578)
(0.000378931 0.0152961 -0.00449491)
(3.07491e-05 0.0152275 -0.00489666)
(-0.000286056 0.0143048 -0.00521581)
(-0.000813844 0.0123239 -0.00552425)
(-0.00189771 0.00750784 -0.00504807)
(-0.00247482 0.0030379 -0.00345784)
(-0.00142224 -0.0155996 -0.155258)
(-0.00027184 -0.0703974 -0.699559)
(-0.000154649 -0.0895917 -0.879687)
(2.38876e-05 -0.0941006 -0.919062)
(0.000216272 -0.0832317 -0.827002)
(2.12063e-05 -0.0228408 -0.243858)
(-6.07501e-05 0.000326455 0.00153725)
(-8.20658e-05 3.57764e-05 0.000167563)
(-5.47813e-06 1.11368e-06 6.15329e-06)
(-1.03585e-07 1.27916e-08 7.22074e-08)
(-8.10295e-10 1.1351e-10 5.99921e-10)
(-4.96201e-12 8.90132e-13 3.98342e-12)
(-2.67804e-14 5.63567e-15 2.1432e-14)
(-1.2369e-16 2.36588e-17 8.34094e-17)
(-4.41198e-19 4.80184e-20 1.55453e-19)
(-4.1391e-05 0.000411939 0.000773028)
(-7.96162e-06 0.000542889 0.000780014)
(7.81584e-05 0.000727265 0.00091595)
(0.000102387 0.00098292 0.00109028)
(0.000112829 0.00128391 0.0012727)
(9.85121e-05 0.00156106 0.00136721)
(5.88932e-05 0.00173986 0.00137638)
(2.03447e-05 0.00176397 0.00125381)
(9.61397e-06 0.00174581 0.00113357)
(2.27594e-05 0.00174337 0.00100681)
(4.42503e-05 0.00180494 0.000911504)
(6.34069e-05 0.00190608 0.00082763)
(8.25611e-05 0.00205565 0.000759241)
(0.000102904 0.00223681 0.000702476)
(0.000129094 0.00246851 0.000665689)
(0.000164027 0.00276732 0.000656114)
(0.000211846 0.0031695 0.000677387)
(0.000269805 0.00370228 0.000727914)
(0.000336358 0.00438693 0.000794754)
(0.000405426 0.0052367 0.000867353)
(0.000469075 0.00624828 0.000931522)
(0.000517738 0.00741472 0.000976171)
(0.000536026 0.00871263 0.000981738)
(0.000504913 0.0100982 0.000927322)
(0.000407498 0.0114869 0.000783707)
(0.000235033 0.0127579 0.000520142)
(-8.58288e-06 0.0137596 0.00017578)
(-0.000298223 0.0143083 -0.0004538)
(-0.000572899 0.014358 -0.00113271)
(-0.000742394 0.0140251 -0.0017314)
(-0.000731075 0.0136715 -0.00208101)
(-0.000529005 0.0136848 -0.00224878)
(-0.000229291 0.0141639 -0.00256647)
(2.95231e-05 0.0148776 -0.00308284)
(0.000169805 0.0153603 -0.00380352)
(0.000213207 0.0152944 -0.00469127)
(0.000219292 0.0148728 -0.00568524)
(0.000202005 0.0144297 -0.00668645)
(0.000115229 0.0138994 -0.00755186)
(-7.17759e-05 0.0127056 -0.00811133)
(-0.000310554 0.0104716 -0.00826226)
(-0.000577708 0.00728546 -0.0080508)
(-0.000711526 0.00188756 -0.0119481)
(-0.000249916 -0.139741 -0.71861)
(-0.00405223 -0.190159 -0.934859)
(-0.00954953 -0.212407 -0.968451)
(-0.0081028 -0.221845 -0.972703)
(-0.00515424 -0.231055 -0.971787)
(0.00121549 -0.240367 -0.969698)
(0.0127707 -0.271072 -0.960105)
(0.0524912 -0.347406 -0.912213)
(0.133449 0.00283366 0.00880685)
(-0.000812151 0.000492083 0.00115101)
(-8.53467e-05 3.07359e-05 8.48667e-05)
(-3.03742e-06 5.28837e-07 1.48848e-06)
(-3.52383e-08 6.37884e-09 1.68034e-08)
(-2.90988e-10 6.20026e-11 1.38959e-10)
(-1.92577e-12 4.41863e-13 8.81857e-13)
(-1.03397e-14 1.96226e-15 3.49764e-15)
(-4.01233e-17 4.14601e-18 6.57486e-18)
(-5.35691e-05 0.00110957 0.000978349)
(1.65257e-05 0.00140211 0.000742835)
(0.000159629 0.00181246 0.00070559)
(0.000185882 0.00232761 0.000659521)
(0.000153157 0.00284435 0.000582744)
(7.23342e-05 0.00325899 0.000438434)
(-3.72499e-05 0.00357489 0.00033666)
(-0.000109324 0.00311856 -6.2189e-05)
(-0.000116773 0.00293006 -0.000329411)
(-0.000102823 0.00286317 -0.000591937)
(-7.74325e-05 0.00289976 -0.000862449)
(-6.03244e-05 0.00300152 -0.00108711)
(-4.3932e-05 0.0032246 -0.0012061)
(-2.525e-05 0.00351558 -0.00132053)
(1.92111e-06 0.00388267 -0.00146496)
(3.60734e-05 0.00432889 -0.00164397)
(7.41216e-05 0.00487032 -0.00187149)
(0.000108841 0.00547249 -0.00215997)
(0.000136386 0.00609962 -0.00251769)
(0.000155899 0.00671138 -0.00294365)
(0.00016653 0.00730136 -0.00343991)
(0.000164549 0.00790986 -0.00399697)
(0.000142628 0.00849554 -0.00458959)
(9.17383e-05 0.00902734 -0.00517772)
(1.72182e-06 0.0093952 -0.00568994)
(-0.000100081 0.00940673 -0.00603914)
(-0.0002866 -0.0039891 -0.0526896)
(-0.000386636 -0.0541291 -0.228337)
(-0.000330451 -0.0930094 -0.366358)
(-0.000192969 -0.126692 -0.486865)
(-5.83263e-05 -0.151121 -0.575202)
(-8.3403e-06 -0.167144 -0.633922)
(-8.74815e-06 -0.175358 -0.665336)
(-8.89143e-06 -0.177538 -0.67586)
(-8.83922e-06 -0.175309 -0.67113)
(-8.66117e-06 -0.170376 -0.656867)
(-8.52076e-06 -0.166511 -0.64599)
(-8.63316e-06 -0.168615 -0.655383)
(-9.0651e-06 -0.177878 -0.689945)
(-9.82766e-06 -0.194692 -0.750411)
(-1.08573e-05 -0.216664 -0.826326)
(-0.000174561 -0.236887 -0.89383)
(-0.0394529 -0.249426 -0.935463)
(-0.0947572 -0.294611 -0.940575)
(-0.134608 -0.381977 -0.911535)
(-0.121122 -0.449118 -0.884514)
(-0.064077 -0.487305 -0.870675)
(-0.0232749 -0.532418 -0.846063)
(0.0173113 -0.600017 -0.7997)
(0.0697521 -0.762722 -0.64272)
(0.161301 -0.940335 -0.296887)
(0.944572 -0.111239 0.0175416)
(-0.00484883 0.00315565 0.00409384)
(-0.000554941 0.000373693 0.000691673)
(-4.05694e-05 9.84787e-06 1.92312e-05)
(-7.10448e-07 1.64495e-07 3.07065e-07)
(-8.02227e-09 1.98486e-09 3.4685e-09)
(-6.64605e-11 1.52832e-11 2.49495e-11)
(-4.22419e-13 7.05133e-14 1.07324e-13)
(-1.67518e-15 1.51815e-16 2.16348e-16)
(-0.000139839 0.00150116 0.000309576)
(-0.000110018 0.00202093 -0.00010301)
(6.95174e-05 0.00255207 -0.00043509)
(7.7328e-05 0.00344124 -0.000791696)
(3.73871e-05 0.00527217 -0.000932089)
(4.34348e-06 0.00835554 -0.000432908)
(-0.000181063 0.0114144 0.000240893)
(-0.000313127 0.00506201 -0.0018498)
(-0.000247411 0.0025084 -0.00149212)
(-0.000228501 0.00237251 -0.00147794)
(-0.000183902 0.00180334 -0.00398282)
(-8.78722e-05 -0.000851732 -0.0136149)
(-1.2419e-05 -0.00670699 -0.034155)
(-5.49043e-07 -0.0161877 -0.0672373)
(-8.57164e-07 -0.0294195 -0.11362)
(-1.26365e-06 -0.0468917 -0.174563)
(-1.76402e-06 -0.0687365 -0.249894)
(-3.32358e-06 -0.0932345 -0.333402)
(-2.88294e-06 -0.118977 -0.419836)
(-2.71282e-06 -0.145133 -0.505923)
(-3.97304e-06 -0.170688 -0.588296)
(-4.47111e-06 -0.195561 -0.666552)
(-4.93861e-06 -0.219596 -0.74046)
(-5.34817e-06 -0.24121 -0.805404)
(-5.66713e-06 -0.258455 -0.855835)
(-0.00160976 -0.27109 -0.891236)
(-0.00610757 -0.279223 -0.914265)
(-0.00727902 -0.283332 -0.928997)
(-0.00647327 -0.285489 -0.937487)
(-0.00593806 -0.286107 -0.942468)
(-0.00498932 -0.285972 -0.945496)
(-0.00359474 -0.285294 -0.947376)
(-0.00190334 -0.284194 -0.94842)
(-0.000269195 -0.283491 -0.948967)
(0.000961696 -0.281951 -0.948795)
(0.00137901 -0.279502 -0.947985)
(0.000103032 -0.276595 -0.946623)
(-0.00350497 -0.274627 -0.944813)
(-0.0107973 -0.276833 -0.942779)
(-0.0247323 -0.292403 -0.939276)
(-0.0472807 -0.338644 -0.927273)
(-0.0776286 -0.420345 -0.896624)
(-0.119931 -0.510954 -0.847668)
(-0.17359 -0.57628 -0.797223)
(-0.234715 -0.639473 -0.731602)
(-0.253966 -0.724979 -0.64006)
(-0.136467 -0.820134 -0.555602)
(-0.0332632 -0.81369 -0.580323)
(0.0288758 -0.886962 -0.460916)
(0.0616653 -0.948132 -0.311796)
(0.114673 -0.94402 -0.309144)
(0.523691 -0.493082 -0.691143)
(-0.0811825 0.0146904 0.00461691)
(-0.0020871 0.00274839 0.00361507)
(-0.00033704 0.000118036 0.000179729)
(-9.30339e-06 2.84334e-06 4.27647e-06)
(-1.4856e-07 4.07316e-08 5.90151e-08)
(-1.68138e-09 3.59637e-10 4.93794e-10)
(-1.21266e-11 1.84358e-12 2.38856e-12)
(-5.22217e-14 4.33532e-15 5.32254e-15)
(-0.000217912 0.00160301 -0.000772715)
(-0.000278535 0.00266062 -0.00139339)
(-9.7657e-05 0.00561408 -0.00285205)
(7.65639e-05 0.0151415 -0.00500281)
(0.000531985 0.0341688 -0.00744751)
(0.000864216 0.0561695 -0.00752426)
(-0.000799866 0.072239 -0.00788023)
(-0.00125933 0.0520111 -0.0483256)
(-6.30309e-05 0.004118 -0.132977)
(-0.00105655 -0.00260347 -0.191422)
(-0.00437658 -0.0143558 -0.266261)
(-0.00937475 -0.0421616 -0.37522)
(-0.0133725 -0.0857294 -0.514718)
(-0.0147825 -0.136434 -0.654607)
(-0.0146619 -0.181226 -0.76074)
(-0.0142237 -0.214778 -0.829807)
(-0.0134185 -0.23909 -0.873138)
(-0.0127189 -0.254979 -0.899135)
(-0.0122033 -0.266485 -0.916194)
(-0.011967 -0.275041 -0.927637)
(-0.0122778 -0.281892 -0.935326)
(-0.0137027 -0.287404 -0.940438)
(-0.0156011 -0.292797 -0.944167)
(-0.01609 -0.298382 -0.946995)
(-0.0157467 -0.302521 -0.948672)
(-0.0157881 -0.304884 -0.949526)
(-0.0170063 -0.3058 -0.950008)
(-0.0177381 -0.305762 -0.950451)
(-0.0170451 -0.305113 -0.950927)
(-0.0156691 -0.303978 -0.951426)
(-0.0138534 -0.302274 -0.951984)
(-0.00972932 -0.300746 -0.952475)
(-0.00515825 -0.300449 -0.952591)
(0.00135166 -0.300576 -0.952616)
(0.00867329 -0.301459 -0.952361)
(0.0112402 -0.30234 -0.952122)
(0.00977522 -0.303135 -0.951941)
(0.00580825 -0.304766 -0.951515)
(-9.9242e-05 -0.308068 -0.950536)
(-0.00887917 -0.314487 -0.948454)
(-0.0218032 -0.331362 -0.942625)
(-0.040486 -0.372689 -0.926639)
(-0.0655667 -0.446479 -0.892141)
(-0.081718 -0.526933 -0.845858)
(-0.103056 -0.601676 -0.792013)
(-0.149906 -0.681241 -0.716522)
(-0.122342 -0.764459 -0.632948)
(-0.0360007 -0.776467 -0.629125)
(0.0134462 -0.796982 -0.603851)
(0.0353993 -0.756204 -0.653376)
(0.0581777 -0.56462 -0.823293)
(0.235702 -0.333426 -0.912766)
(0.992112 -0.0115738 -0.0370645)
(-0.0034951 0.0131511 0.00990283)
(-0.00184623 0.0010374 0.00125658)
(-8.95498e-05 3.25054e-05 4.09307e-05)
(-2.12465e-06 5.65142e-07 6.94464e-07)
(-2.93589e-08 5.87443e-09 6.88088e-09)
(-2.46504e-10 3.45409e-11 3.82965e-11)
(-1.19468e-12 9.14759e-14 9.62951e-14)
(-0.000359969 0.00204008 -0.00153583)
(-0.000811994 0.00157663 -0.0298369)
(-0.000820876 0.00461138 -0.0977288)
(-0.000327928 -0.0587936 -0.40288)
(0.000375415 -0.0791774 -0.561656)
(0.000247694 -0.16111 -0.78761)
(-0.00222564 -0.20382 -0.877105)
(-0.0200024 0.0744303 -0.726799)
(-0.0145264 -0.0605115 -0.840651)
(-0.0102595 -0.1198 -0.891664)
(-0.0121265 -0.152655 -0.919204)
(-0.0147874 -0.19034 -0.938082)
(-0.0169497 -0.223378 -0.948478)
(-0.0179293 -0.248508 -0.95267)
(-0.01881 -0.264918 -0.953615)
(-0.0203131 -0.275845 -0.9534)
(-0.0217934 -0.280725 -0.95366)
(-0.0234664 -0.28053 -0.954895)
(-0.0257341 -0.278855 -0.956283)
(-0.0281465 -0.279522 -0.956793)
(-0.030985 -0.285321 -0.955574)
(-0.038592 -0.293094 -0.953353)
(-0.0596411 -0.303593 -0.949296)
(-0.0900299 -0.315272 -0.943381)
(-0.110763 -0.325864 -0.937847)
(-0.112269 -0.333738 -0.935094)
(-0.0940098 -0.341567 -0.934464)
(-0.0665017 -0.351134 -0.933459)
(-0.0434454 -0.369746 -0.927679)
(-0.0138914 -0.38909 -0.920661)
(0.0077725 -0.394906 -0.918272)
(0.00674819 -0.399498 -0.916337)
(-0.00493252 -0.409278 -0.912022)
(-0.0174459 -0.422426 -0.905787)
(-0.0231433 -0.428978 -0.902552)
(-0.0226205 -0.416484 -0.908432)
(-0.0224122 -0.404706 -0.913782)
(-0.0265682 -0.400674 -0.915469)
(-0.027339 -0.392122 -0.919189)
(-0.0416459 -0.369611 -0.928021)
(-0.0652785 -0.355083 -0.932413)
(-0.0976782 -0.346823 -0.932746)
(-0.166226 -0.359002 -0.918362)
(-0.218158 -0.422411 -0.879729)
(-0.203501 -0.500507 -0.841461)
(-0.158111 -0.591114 -0.790935)
(-0.102066 -0.682427 -0.723792)
(-0.0531517 -0.740779 -0.669642)
(-0.0130361 -0.641529 -0.766987)
(0.0260792 -0.565261 -0.824499)
(0.111364 -0.442463 -0.889844)
(0.686659 -0.254324 -0.681033)
(0.999547 -0.00711292 -0.0237146)
(0.716092 0.0127626 0.00405067)
(-0.00572533 0.0062977 0.0059723)
(-0.000657418 0.000262683 0.000272121)
(-2.11762e-05 5.58718e-06 5.70684e-06)
(-3.5949e-07 6.90124e-08 6.71372e-08)
(-3.57578e-09 4.73068e-10 4.33704e-10)
(-1.99554e-11 1.43606e-12 1.2372e-12)
(-0.00938491 -0.0800002 -0.344834)
(-0.0188585 -0.134209 -0.627626)
(-0.224376 -0.125018 -0.165924)
(-0.0283485 -0.939929 0.150815)
(-0.00274595 -0.664301 -0.745245)
(-0.00146069 -0.932417 -0.36028)
(0.000214555 -0.921422 -0.387875)
(0.00158697 -0.750795 -0.659172)
(-0.0294433 -0.106847 -0.984313)
(-0.0394811 -0.0958826 -0.984866)
(-0.0381655 -0.144379 -0.982891)
(-0.0465342 -0.16375 -0.981446)
(-0.0540223 -0.182885 -0.97893)
(-0.0539146 -0.199143 -0.976568)
(-0.0499546 -0.211374 -0.974642)
(-0.044919 -0.222429 -0.972683)
(-0.0424861 -0.235907 -0.96979)
(-0.0452574 -0.253235 -0.965408)
(-0.0505708 -0.276354 -0.958891)
(-0.0559024 -0.304768 -0.950026)
(-0.0555605 -0.32604 -0.94304)
(-0.0538038 -0.336563 -0.939517)
(-0.0603175 -0.344189 -0.936417)
(-0.0774097 -0.363304 -0.927955)
(-0.0856685 -0.403334 -0.910583)
(-0.0946957 -0.487357 -0.867645)
(-0.127684 -0.523931 -0.841781)
(-0.10906 -0.452935 -0.884555)
(-0.0393362 -0.326982 -0.943972)
(-0.015226 -0.306775 -0.951461)
(-0.0304819 -0.509489 -0.859772)
(-0.0130883 -0.769706 -0.638132)
(0.0143729 -0.686663 -0.726739)
(0.0178946 -0.67102 -0.741133)
(-0.00207344 -0.564903 -0.825062)
(-0.019412 -0.316504 -0.948289)
(-0.0217603 -0.284403 -0.958338)
(-0.0327929 -0.422582 -0.905603)
(-0.0966453 -0.455005 -0.885091)
(-0.288155 -0.447491 -0.846425)
(-0.58766 -0.405494 -0.699944)
(-0.71309 -0.300944 -0.633008)
(-0.785063 -0.111738 -0.60914)
(-0.942246 0.117535 -0.313516)
(-0.99298 0.101453 -0.0606799)
(-0.998059 0.0215019 -0.0584123)
(-0.889015 -0.387238 -0.244331)
(-0.173703 -0.754746 -0.632602)
(-0.0319713 -0.630069 -0.77588)
(0.0560858 -0.592092 -0.803916)
(0.358935 -0.540536 -0.760911)
(0.975525 -0.123036 -0.182239)
(0.999958 -0.00318876 -0.00606652)
(0.987765 0.00143804 0.00208879)
(-0.0111548 0.0281978 0.0250664)
(-0.00339994 0.00155565 0.00132444)
(-0.000150763 4.01366e-05 3.24038e-05)
(-3.15503e-06 5.87525e-07 4.40578e-07)
(-3.7296e-08 4.72202e-09 3.26101e-09)
(-2.42027e-10 1.66465e-11 1.05443e-11)
(-0.392258 0.0157123 -0.0217426)
(0.0956531 0.190384 -0.0720027)
(0.237042 0.534443 0.0293808)
(-0.279214 -0.931183 0.229888)
(-0.0262359 -0.906781 -0.420692)
(-0.00486157 -0.99916 -0.0405355)
(0.00127517 -0.996668 0.0815121)
(0.0071807 -0.993773 0.111132)
(0.022263 -0.994083 -0.105797)
(-0.0131608 -0.143231 -0.989213)
(-0.0390678 -0.0609232 -0.996884)
(-0.0388802 -0.104935 -0.993345)
(-0.0368948 -0.135323 -0.989852)
(-0.0315785 -0.105314 -0.993741)
(-0.0284363 -0.0750519 -0.99659)
(-0.0353209 -0.0546687 -0.99764)
(-0.0437354 -0.0337728 -0.998157)
(-0.0447145 -0.0252422 -0.998364)
(-0.042257 -0.0215694 -0.998579)
(-0.0436161 -0.0460058 -0.997706)
(-0.0517995 -0.13018 -0.989863)
(-0.0551121 -0.212217 -0.975408)
(-0.0541834 -0.252009 -0.965971)
(-0.0559622 -0.264132 -0.962654)
(-0.0600718 -0.262719 -0.962831)
(-0.0609252 -0.257437 -0.964244)
(-0.0571316 -0.250139 -0.96643)
(-0.0501154 -0.229287 -0.972)
(-0.044122 -0.188178 -0.981093)
(-0.0465687 -0.144874 -0.988314)
(-0.0652461 -0.125562 -0.989904)
(-0.0836641 -0.110474 -0.990322)
(-0.0499146 -0.102391 -0.993466)
(0.000732089 -0.0974214 -0.995221)
(0.0263518 -0.091453 -0.995441)
(0.0310517 -0.0824409 -0.996093)
(0.0157361 -0.0540488 -0.998396)
(0.00645964 -0.0303953 -0.999499)
(0.0168051 -0.0114112 -0.999776)
(0.0299741 0.0253681 -0.999208)
(0.00502903 0.159975 -0.987075)
(-0.262494 0.909984 -0.320702)
(-0.258827 0.881631 0.394486)
(-0.145227 0.724244 0.674028)
(-0.214366 0.64701 0.73171)
(-0.586098 0.465612 0.663091)
(-0.969655 0.104623 0.220957)
(-0.860527 -0.41827 -0.290763)
(-0.128635 -0.739926 -0.660275)
(0.234737 -0.762933 -0.602355)
(0.78039 -0.52952 -0.332566)
(0.994534 -0.0935541 -0.0463608)
(0.999968 -0.00568701 -0.00328862)
(0.994263 0.00412632 0.00227171)
(-0.0880072 0.0904393 0.0700434)
(-0.0161911 0.00640351 0.00516951)
(-0.000836056 0.000201555 0.000153155)
(-2.04912e-05 3.51932e-06 2.3898e-06)
(-2.8187e-07 3.34705e-08 1.97546e-08)
(-2.11239e-09 1.38693e-10 7.07974e-11)
(0.000730808 -0.920733 -0.390181)
(0.000730872 -0.920814 -0.389955)
(0.000730994 -0.920873 -0.389819)
(-0.0461882 -0.919987 -0.389204)
(-0.0211574 -0.920542 -0.390068)
(-0.00287389 -0.920706 -0.390245)
(0.00331332 -0.920311 -0.391173)
(0.00558535 -0.920038 -0.391788)
(0.00531474 -0.920251 -0.391292)
(0.00273417 -0.92025 -0.39132)
(0.000689193 -0.919988 -0.391944)
(-0.000106159 -0.919552 -0.392966)
(-0.000261349 -0.919121 -0.393973)
(0.000181414 -0.919093 -0.39404)
(0.000988705 -0.919494 -0.393101)
(0.00130889 -0.919693 -0.392635)
(0.000986081 -0.919851 -0.392266)
(0.000644446 -0.91999 -0.39194)
(0.00054175 -0.920086 -0.391714)
(0.000471268 -0.920319 -0.391165)
(0.000127963 -0.919759 -0.392479)
(-0.00162524 -0.914911 -0.403639)
(-0.00443813 -0.907981 -0.418969)
(-0.00708145 -0.903055 -0.429449)
(-0.0107964 -0.899609 -0.436549)
(-0.0139668 -0.898595 -0.438544)
(-0.0128998 -0.902014 -0.431506)
(-0.00856801 -0.907115 -0.420792)
(-0.00427766 -0.912399 -0.409278)
(-0.00167947 -0.916801 -0.39934)
(-0.000685465 -0.91902 -0.394209)
(-0.000582788 -0.919652 -0.392733)
(-0.000754915 -0.91988 -0.392198)
(-0.000829591 -0.919902 -0.392147)
(-0.000556026 -0.919844 -0.392284)
(-3.45958e-06 -0.919635 -0.392773)
(0.000356306 -0.919298 -0.393561)
(0.000562686 -0.918808 -0.394703)
(0.00172449 -0.918441 -0.395553)
(0.0052263 -0.918487 -0.395415)
(0.00922269 -0.918778 -0.394666)
(0.006879 -0.918893 -0.394445)
(0.001786 -0.919119 -0.393976)
(0.000730945 -0.9194 -0.393321)
(0.000734945 -0.921845 -0.387555)
(-0.0853995 -0.935228 -0.343588)
(-0.989633 -0.141285 -0.0257882)
(-0.858006 -0.471011 -0.204876)
(-0.314419 -0.786366 -0.53176)
(0.399663 -0.804737 -0.43894)
(0.8001 -0.555836 -0.22558)
(0.986705 -0.15245 -0.0563142)
(0.999841 -0.01621 -0.00632332)
(0.996678 0.00919819 0.00446614)
(-0.211122 0.213212 0.135257)
(-0.0561714 0.0224399 0.0139288)
(-0.00374607 0.00092968 0.000540348)
(-0.000110434 1.97605e-05 1.08021e-05)
(-1.77188e-06 2.21576e-07 1.14896e-07)
(-1.52288e-08 1.06287e-09 5.27993e-10)
(0.000674932 -0.973611 -0.228206)
(0.000674902 -0.97348 -0.228766)
(0.000674892 -0.973342 -0.229333)
(-0.0527654 -0.971741 -0.229924)
(-0.0277181 -0.985605 -0.166745)
(-0.00641747 -0.975912 -0.218068)
(-0.000413995 -0.97252 -0.232816)
(0.00202732 -0.972069 -0.234685)
(0.00246258 -0.97251 -0.232846)
(0.00101255 -0.972608 -0.232449)
(-8.06723e-06 -0.972455 -0.233091)
(-0.000389207 -0.972398 -0.233329)
(-0.000352539 -0.972287 -0.233788)
(0.000123052 -0.972107 -0.234535)
(0.000483126 -0.971888 -0.235441)
(0.000695627 -0.971659 -0.236387)
(0.000934361 -0.971455 -0.23722)
(0.00113612 -0.971319 -0.237777)
(0.0013499 -0.971222 -0.23817)
(0.00132888 -0.971108 -0.238636)
(0.000886105 -0.970962 -0.239233)
(0.000216159 -0.97068 -0.240375)
(-0.00152708 -0.969632 -0.244561)
(-0.00572396 -0.96855 -0.248747)
(-0.0074783 -0.969219 -0.24608)
(-0.00919418 -0.969863 -0.24347)
(-0.0104435 -0.970015 -0.242814)
(-0.00797869 -0.970652 -0.240351)
(-0.00338632 -0.970781 -0.23994)
(-0.000619945 -0.970484 -0.241162)
(0.000249999 -0.970297 -0.241918)
(0.000410365 -0.970277 -0.241994)
(0.000414274 -0.970309 -0.241868)
(0.000442802 -0.970339 -0.241748)
(0.000472348 -0.970334 -0.241766)
(0.000494378 -0.970279 -0.241988)
(0.000478946 -0.970158 -0.242473)
(0.000692073 -0.970064 -0.242849)
(0.00133257 -0.970009 -0.243063)
(0.00205981 -0.969971 -0.243212)
(0.00208975 -0.96963 -0.244566)
(0.00100833 -0.968392 -0.249431)
(0.000586625 -0.967929 -0.251224)
(0.00261774 -0.967767 -0.251834)
(0.00645516 -0.967803 -0.251626)
(-0.0441268 -0.966551 -0.252648)
(-0.908339 -0.401324 -0.117721)
(-0.706239 -0.688057 -0.166744)
(-0.263848 -0.952241 -0.153691)
(0.388593 -0.911427 -0.135263)
(0.7784 -0.621989 -0.0849868)
(0.984582 -0.174273 -0.015022)
(0.999842 -0.0172009 -0.000178205)
(0.99486 0.0127866 0.00287402)
(-0.17597 0.230884 0.0801546)
(-0.0608771 0.0245533 0.00757084)
(-0.00423385 0.00102983 0.000303764)
(-0.000128044 2.18744e-05 6.33711e-06)
(-2.09327e-06 2.44125e-07 6.95877e-08)
(-1.81703e-08 1.16073e-09 3.25397e-10)
(0.000240433 -0.98199 -0.188921)
(0.000240573 -0.98178 -0.190007)
(0.000240715 -0.981578 -0.191039)
(-0.00586822 -0.981368 -0.192032)
(-0.00773791 -0.98155 -0.191048)
(-0.00327521 -0.981392 -0.191985)
(-0.000190389 -0.981297 -0.192499)
(0.00286514 -0.981131 -0.193324)
(0.00351786 -0.980691 -0.195532)
(0.00153934 -0.980471 -0.196656)
(0.0002497 -0.980409 -0.196969)
(1.34793e-05 -0.980402 -0.197007)
(-0.00027383 -0.980384 -0.197096)
(-0.000190112 -0.980116 -0.198422)
(-4.46032e-06 -0.979758 -0.200186)
(0.000104433 -0.979531 -0.201294)
(0.000222366 -0.979282 -0.202499)
(0.000377292 -0.979001 -0.203853)
(0.000433335 -0.978718 -0.205207)
(0.000284123 -0.978417 -0.20664)
(-0.000154672 -0.978106 -0.208106)
(-0.00139708 -0.97717 -0.212451)
(-0.00314555 -0.976704 -0.214563)
(-0.00302938 -0.983559 -0.180513)
(-0.018533 -0.988279 0.151314)
(-0.0429565 -0.999025 0.00822891)
(-0.0151165 -0.975558 -0.219198)
(-0.00164193 -0.976461 -0.215681)
(0.000190655 -0.979431 -0.201776)
(0.000210776 -0.978721 -0.205192)
(0.000143091 -0.97779 -0.209587)
(6.24811e-05 -0.977452 -0.211157)
(-9.92614e-06 -0.976299 -0.216427)
(-7.19853e-05 -0.975351 -0.220658)
(-4.04615e-05 -0.975221 -0.221233)
(0.000106806 -0.975714 -0.219047)
(0.000260181 -0.976665 -0.214766)
(0.000420876 -0.976645 -0.214856)
(0.000795949 -0.976408 -0.215931)
(0.00175258 -0.976702 -0.214591)
(0.00216942 -0.978049 -0.208362)
(-7.8795e-06 -0.983293 -0.18202)
(-0.00154395 -0.987142 -0.159828)
(0.00421936 -0.988111 -0.153669)
(0.00881001 -0.985191 -0.171221)
(-0.13634 -0.964485 -0.226217)
(-0.962528 -0.266104 -0.0522362)
(-0.771078 -0.636712 -0.00608223)
(-0.316522 -0.898905 -0.302957)
(0.421732 -0.681259 -0.598354)
(0.835568 -0.23878 -0.494783)
(0.98942 -0.0280719 -0.142335)
(0.999878 0.00116849 -0.0149455)
(0.98914 0.0113453 0.0181167)
(-0.198345 0.228575 0.0733543)
(-0.0764454 0.0245272 0.00534454)
(-0.00493156 0.00101371 0.000194142)
(-0.000144468 2.11985e-05 3.85462e-06)
(-2.33588e-06 2.33148e-07 4.21133e-08)
(-2.00669e-08 1.0862e-09 1.98752e-10)
(-0.000699586 0.968254 -0.218472)
(0.0296859 -0.787582 -0.611585)
(0.0028829 -0.884269 -0.466546)
(0.00010167 -0.885787 -0.463999)
(1.04365e-05 -0.892522 -0.450991)
(-0.00114099 -0.888422 -0.459025)
(-1.95583e-05 -0.879641 -0.475637)
(0.00036468 -0.87845 -0.477834)
(-3.0482e-05 -0.879749 -0.475436)
(-0.00194821 -0.882578 -0.470152)
(-0.0582916 -0.888377 -0.455184)
(-0.0306121 -0.87688 -0.479527)
(-0.00694696 -0.907855 -0.419138)
(-0.00220695 -0.913792 -0.406141)
(-0.00144842 -0.914234 -0.405161)
(-0.00330873 -0.91732 -0.398115)
(-0.00657999 -0.920046 -0.39173)
(-0.00405653 -0.920444 -0.390824)
(0.0101828 -0.920086 -0.391543)
(0.00811827 -0.930321 -0.366571)
(-0.378099 -0.90263 -0.205261)
(-0.943287 -0.159414 -0.290495)
(0.504072 -0.734227 0.453664)
(0.616324 -0.530298 0.581856)
(0.0510038 -0.875438 0.48042)
(-0.494212 -0.869216 0.0113983)
(-0.570916 -0.818901 0.0580884)
(0.074189 -0.826368 -0.558159)
(0.196092 -0.628752 -0.752454)
(0.115564 -0.763814 -0.634983)
(0.0225584 -0.94725 -0.319643)
(-0.252888 -0.952018 -0.172253)
(-0.5325 -0.842546 -0.0807121)
(-0.353783 -0.935154 -0.0159683)
(0.21962 -0.821202 -0.526625)
(0.374423 -0.640182 -0.670773)
(0.232092 -0.744663 -0.62576)
(-0.0103341 -0.955627 -0.294316)
(-0.023889 -0.998933 0.0388159)
(0.057623 -0.99472 -0.0846162)
(0.0607601 -0.944352 -0.323203)
(0.0219133 -0.866389 -0.498845)
(0.0040519 -0.799872 -0.600122)
(0.0297114 -0.91632 -0.399258)
(0.251682 -0.910166 0.328023)
(-0.915202 0.40138 -0.0349339)
(-0.997633 -0.0616781 -0.0303752)
(-0.867988 -0.493576 -0.0545841)
(-0.496157 -0.852793 -0.163007)
(0.369304 -0.772358 -0.516795)
(0.885722 -0.249713 -0.39133)
(0.996737 -0.0112487 -0.079928)
(0.999967 0.00241236 -0.00730983)
(0.998921 0.00152398 0.00219554)
(-0.488121 0.117541 0.0307799)
(-0.0800927 0.0150562 0.00294123)
(-0.00447028 0.000557189 0.000107275)
(-0.000118182 1.01966e-05 1.87015e-06)
(-1.69048e-06 9.70282e-08 1.70804e-08)
(-1.2754e-08 3.88862e-10 6.58632e-11)
(-0.422121 0.776014 0.443074)
(-0.141783 -0.888879 -0.430756)
(-0.0578702 -0.974068 0.217789)
(-0.186191 -0.954322 0.233484)
(-0.218003 -0.960259 0.174258)
(-0.107391 -0.98849 0.10655)
(-0.0230499 -0.999034 -0.0374097)
(0.0221349 -0.990774 -0.133706)
(0.0633049 -0.986919 -0.148266)
(0.189967 -0.980557 -0.0491142)
(0.384252 -0.844777 0.372188)
(-0.0129429 -0.84619 0.532548)
(0.00469597 -0.876629 0.481071)
(0.00258239 -0.894659 0.44671)
(0.000179439 -0.905131 0.425112)
(-9.58085e-05 -0.917248 0.398295)
(-0.00217977 -0.92229 0.386469)
(-0.00559812 -0.921988 0.387148)
(-0.00497231 -0.924395 0.381361)
(-0.00437759 -0.930406 0.366421)
(-0.258689 -0.880188 0.39773)
(-0.543082 -0.110907 0.832193)
(-0.175551 0.196983 0.964389)
(0.593527 0.195426 0.780497)
(0.36502 -0.861773 0.35187)
(-0.0212073 -0.927435 0.373252)
(-0.254278 -0.666153 0.701094)
(-0.502663 -0.506839 0.700288)
(-0.297147 -0.682701 0.667502)
(0.49962 -0.814695 0.294282)
(0.359859 -0.908406 0.212742)
(0.0823996 -0.976561 0.198744)
(-0.00965456 -0.854193 0.519835)
(-0.177033 -0.716167 0.675082)
(-0.358381 -0.626835 0.691816)
(-0.276325 -0.735756 0.618267)
(0.466024 -0.883763 -0.0414543)
(0.505195 -0.862968 -0.00437647)
(0.186453 -0.97085 0.15047)
(-0.0175629 -0.963145 0.268328)
(-0.127205 -0.952548 0.276457)
(-0.246626 -0.948216 0.200024)
(0.0506377 -0.998514 0.0182083)
(0.476595 -0.869154 -0.131673)
(0.737213 0.61815 -0.272161)
(-0.837972 0.532888 -0.117352)
(-0.989536 -0.098899 -0.105056)
(-0.798873 -0.573615 -0.18102)
(-0.443493 -0.822893 0.355191)
(0.281443 -0.617717 0.734313)
(0.826692 -0.226819 0.514912)
(0.995614 -0.00273691 0.0935163)
(0.999971 0.00357938 0.00636422)
(0.999118 0.00149533 -0.00108654)
(-0.491057 0.113877 -0.0600222)
(-0.0764911 0.0146494 -0.00700493)
(-0.00423233 0.00054556 -0.000226578)
(-0.000112968 1.00581e-05 -3.66416e-06)
(-1.62993e-06 9.62701e-08 -3.17789e-08)
(-1.23678e-08 3.87487e-10 -1.18566e-10)
(-0.000244299 -0.98256 0.18594)
(-0.000947548 -0.984288 0.176559)
(-0.201164 -0.579412 -0.789679)
(-0.630618 -0.141354 -0.763065)
(-0.772242 -0.554168 -0.310692)
(-0.19616 -0.977624 0.0759725)
(-0.0327848 -0.99406 0.103781)
(0.00978128 -0.996371 0.0845556)
(0.0408304 -0.994798 0.0933303)
(0.0681076 -0.987942 0.139036)
(0.0370731 -0.982385 0.183149)
(0.000479193 -0.982475 0.186385)
(-0.000436116 -0.982778 0.184782)
(-0.000795151 -0.982768 0.184841)
(-0.000801151 -0.982541 0.186045)
(-0.000556063 -0.982381 0.18689)
(-0.000223755 -0.982275 0.187444)
(2.43646e-06 -0.982077 0.188478)
(0.000168396 -0.981983 0.188966)
(0.000249217 -0.982006 0.188847)
(-1.81462e-05 -0.982 0.188878)
(-0.000667881 -0.981297 0.192498)
(-0.00066951 -0.979013 0.203789)
(-0.00178935 -0.962114 0.272607)
(-0.461994 0.688897 0.558121)
(-0.151286 -0.511473 -0.845769)
(-0.0157798 -0.97265 -0.231696)
(-0.00879488 -0.991005 0.133514)
(-0.00284007 -0.979012 0.203778)
(-0.000659419 -0.97976 0.200174)
(-0.000352697 -0.981239 0.192794)
(-0.000355089 -0.981359 0.192181)
(-0.000347107 -0.98125 0.192735)
(-0.000443493 -0.981168 0.193153)
(-0.00077384 -0.980902 0.1945)
(-0.000846972 -0.981671 0.19058)
(-0.000255984 -0.981671 0.19058)
(0.000517399 -0.982949 0.183877)
(0.00138078 -0.982443 0.186558)
(0.00177246 -0.98269 0.185247)
(7.89184e-05 -0.983455 0.181145)
(-0.00525956 -0.983554 0.180529)
(-0.00393906 -0.980387 0.197029)
(0.014951 -0.984758 0.173272)
(0.015631 -0.980831 0.194216)
(-0.51416 -0.837439 0.185283)
(-0.96667 -0.255996 0.00381219)
(-0.571867 -0.783349 -0.243583)
(-0.112986 -0.921295 0.372088)
(0.382729 -0.476184 0.791686)
(0.644241 -0.0375676 0.763899)
(0.932125 0.049487 0.358739)
(0.998249 0.0180794 0.0558797)
(-0.58687 0.299839 -0.38391)
(-0.361582 0.15996 -0.0921803)
(-0.0576511 0.018256 -0.00830735)
(-0.00329186 0.000747434 -0.000269398)
(-9.80651e-05 1.59247e-05 -4.70483e-06)
(-1.62179e-06 1.76958e-07 -4.51332e-08)
(-1.4113e-08 8.27121e-10 -1.90419e-10)
(-0.00168867 -0.975775 0.218768)
(-0.0011443 -0.975886 0.218276)
(-0.00239464 -0.975998 0.217763)
(-0.0194261 -0.977249 0.211203)
(-0.129681 -0.979595 0.15354)
(-0.283307 -0.952082 0.115222)
(-0.0779852 -0.969573 0.23205)
(-3.03233e-05 -0.971359 0.237616)
(0.0549024 -0.970713 0.233884)
(0.132356 -0.966648 0.219257)
(0.278141 -0.93862 0.204026)
(0.0317779 -0.989292 0.142189)
(-0.0651008 -0.988908 0.133322)
(-0.0189665 -0.982237 0.186646)
(-0.00297736 -0.978401 0.206683)
(0.00036601 -0.977365 0.211555)
(0.00167912 -0.977353 0.211604)
(0.00148096 -0.977581 0.210553)
(-0.000343193 -0.978064 0.208301)
(-0.000823424 -0.978587 0.205827)