/*--------------------------------*- C++ -*----------------------------------*\
| =========                 |                                                 |
| \\      /  F ield         | OpenFOAM: The Open Source CFD Toolbox           |
|  \\    /   O peration     | Version:  2.1.1                                 |
|   \\  /    A nd           | Web:      www.OpenFOAM.org                      |
|    \\/     M anipulation  |                                                 |
\*---------------------------------------------------------------------------*/
FoamFile
{
    version     2.0;
    format      ascii;
    class       volVectorField;
    location    "0.00115";
    object      grad1Alpha;
}
// * * * * * * * * * * * * * * * * * * * * * * * * * * * * * * * * * * * * * //

dimensions      [0 -1 0 0 0 0 0];

internalField   nonuniform List<vector> 
36520
(
(1.61542e-09 -9.90211e-10 -5.88998e-09)
(1.52652e-09 -1.37311e-09 -6.92331e-09)
(-1.87733e-10 -2.06823e-09 -8.64261e-09)
(-2.62574e-10 -2.90241e-09 -1.0986e-08)
(-3.92645e-10 -4.20838e-09 -1.39324e-08)
(-4.67685e-10 -5.83585e-09 -1.66033e-08)
(-3.69894e-10 -7.24281e-09 -1.85788e-08)
(-1.44205e-10 -7.77601e-09 -1.91933e-08)
(-4.25835e-12 -7.69474e-09 -1.94393e-08)
(-3.3793e-11 -7.5925e-09 -1.97334e-08)
(-1.35506e-10 -7.8456e-09 -2.0668e-08)
(-2.22891e-10 -8.38607e-09 -2.19764e-08)
(-2.91199e-10 -9.11321e-09 -2.38219e-08)
(-3.63684e-10 -9.96546e-09 -2.60809e-08)
(-4.54411e-10 -1.0997e-08 -2.89366e-08)
(-5.76455e-10 -1.22324e-08 -3.25023e-08)
(-7.55366e-10 -1.38204e-08 -3.70999e-08)
(-1.0129e-09 -1.59641e-08 -4.30275e-08)
(-1.36514e-09 -1.89145e-08 -5.04072e-08)
(-1.81478e-09 -2.29046e-08 -5.94179e-08)
(-2.3541e-09 -2.81046e-08 -6.9831e-08)
(-2.95957e-09 -3.46313e-08 -8.13891e-08)
(-3.57237e-09 -4.25046e-08 -9.33645e-08)
(-4.09405e-09 -5.15674e-08 -1.04736e-07)
(-4.40182e-09 -6.14425e-08 -1.1388e-07)
(-4.37833e-09 -7.14988e-08 -1.19042e-07)
(-3.96878e-09 -8.08213e-08 -1.18323e-07)
(-3.25647e-09 -8.83864e-08 -1.10293e-07)
(-2.55482e-09 -9.34495e-08 -9.43303e-08)
(-2.41368e-09 -9.629e-08 -7.18935e-08)
(-3.47772e-09 -9.89172e-08 -4.64401e-08)
(-6.20957e-09 -1.05247e-07 -2.24453e-08)
(-1.05835e-08 -1.20027e-07 -2.9572e-09)
(-1.59398e-08 -1.46834e-07 1.28609e-08)
(-2.11521e-08 -1.86434e-07 2.85645e-08)
(-2.50944e-08 -2.36516e-07 4.71364e-08)
(-2.67313e-08 -2.92919e-07 6.85533e-08)
(-2.50672e-08 -3.4927e-07 9.01963e-08)
(-1.94349e-08 -3.96312e-07 1.09157e-07)
(-1.04619e-08 -4.2231e-07 1.241e-07)
(-8.48994e-10 -4.20437e-07 1.35199e-07)
(7.89198e-09 -3.94655e-07 1.43899e-07)
(2.24144e-08 -3.39417e-07 1.52145e-07)
(5.20396e-08 -2.05882e-07 1.38429e-07)
(6.75911e-08 -8.29695e-08 9.44387e-08)
(4.57849e-08 5.02186e-07 4.99809e-06)
(2.48749e-08 6.44177e-06 6.40136e-05)
(3.62952e-08 2.10267e-05 0.000206458)
(-8.52452e-09 3.35807e-05 0.000327976)
(-3.48053e-08 1.33947e-05 0.000133092)
(-7.63034e-10 8.21848e-07 8.77439e-06)
(1.6531e-09 -8.88333e-09 -4.18309e-08)
(2.23005e-09 -9.72185e-10 -4.55334e-09)
(1.48835e-10 -3.02575e-11 -1.67179e-10)
(2.81428e-12 -3.47531e-13 -1.96178e-12)
(2.20147e-14 -3.08393e-15 -1.62991e-14)
(1.34811e-16 -2.41838e-17 -1.08224e-16)
(7.2759e-19 -1.53114e-19 -5.82279e-19)
(3.3605e-21 -6.42779e-22 -2.26613e-21)
(1.19868e-23 -1.3046e-24 -4.22346e-24)
(1.12553e-09 -1.12017e-08 -2.10206e-08)
(2.16513e-10 -1.47636e-08 -2.12122e-08)
(-2.12596e-09 -1.97821e-08 -2.49144e-08)
(-2.78583e-09 -2.67441e-08 -2.96652e-08)
(-3.07099e-09 -3.49455e-08 -3.46404e-08)
(-2.68202e-09 -4.25003e-08 -3.72228e-08)
(-1.60361e-09 -4.73748e-08 -3.74776e-08)
(-5.53938e-10 -4.80288e-08 -3.41384e-08)
(-2.61744e-10 -4.75303e-08 -3.08618e-08)
(-6.19591e-10 -4.74608e-08 -2.74089e-08)
(-1.20466e-09 -4.91374e-08 -2.48146e-08)
(-1.72627e-09 -5.18938e-08 -2.25325e-08)
(-2.24801e-09 -5.59722e-08 -2.0673e-08)
(-2.80236e-09 -6.09142e-08 -1.91303e-08)
(-3.51632e-09 -6.72385e-08 -1.81324e-08)
(-4.46914e-09 -7.53993e-08 -1.78767e-08)
(-5.77435e-09 -8.6392e-08 -1.84637e-08)
(-7.35809e-09 -1.00968e-07 -1.98516e-08)
(-9.17948e-09 -1.19723e-07 -2.16894e-08)
(-1.10739e-08 -1.43036e-07 -2.3691e-08)
(-1.28254e-08 -1.7084e-07 -2.54696e-08)
(-1.41725e-08 -2.0297e-07 -2.67217e-08)
(-1.46922e-08 -2.38809e-07 -2.6909e-08)
(-1.38586e-08 -2.77171e-07 -2.54526e-08)
(-1.12002e-08 -3.15721e-07 -2.15405e-08)
(-6.46816e-09 -3.511e-07 -1.43144e-08)
(2.3644e-10 -3.79047e-07 -4.84235e-09)
(8.22006e-09 -3.94386e-07 1.25083e-08)
(1.57926e-08 -3.95795e-07 3.12244e-08)
(2.04594e-08 -3.86514e-07 4.77152e-08)
(2.01413e-08 -3.76654e-07 5.73324e-08)
(1.45747e-08 -3.77031e-07 6.19564e-08)
(6.32055e-09 -3.90438e-07 7.07462e-08)
(-8.14481e-10 -4.10442e-07 8.5049e-08)
(-4.68757e-09 -4.2403e-07 1.04998e-07)
(-5.88674e-09 -4.22287e-07 1.29528e-07)
(-6.05429e-09 -4.10613e-07 1.5696e-07)
(-5.57692e-09 -3.98374e-07 1.84599e-07)
(-3.18095e-09 -3.83698e-07 2.08472e-07)
(1.97991e-09 -3.50479e-07 2.23747e-07)
(8.55147e-09 -2.88348e-07 2.27511e-07)
(1.58681e-08 -2.00113e-07 2.21135e-07)
(1.95684e-08 -5.19115e-08 3.28596e-07)
(2.53422e-08 1.41701e-05 7.28689e-05)
(2.39394e-06 0.000112341 0.000552288)
(3.05818e-05 0.00068022 0.00310141)
(9.62894e-05 0.00263629 0.0115591)
(0.000126285 0.00566112 0.02381)
(-3.46103e-05 0.00684427 0.0276115)
(-0.000152128 0.00322909 0.0114371)
(-6.34872e-05 0.000420182 0.00110331)
(-4.18554e-06 -8.88759e-08 -2.76221e-07)
(2.20981e-08 -1.33893e-08 -3.13182e-08)
(2.31905e-09 -8.35161e-10 -2.30601e-09)
(8.25231e-11 -1.43679e-11 -4.04404e-11)
(9.57381e-13 -1.73305e-13 -4.56528e-13)
(7.90577e-15 -1.68453e-15 -3.77534e-15)
(5.23208e-17 -1.20049e-17 -2.39589e-17)
(2.80916e-19 -5.33122e-20 -9.50266e-20)
(1.0901e-21 -1.12642e-22 -1.78631e-22)
(1.45756e-09 -3.01902e-08 -2.66199e-08)
(-4.49695e-10 -3.81542e-08 -2.0214e-08)
(-4.34541e-09 -4.93385e-08 -1.92075e-08)
(-5.06247e-09 -6.3392e-08 -1.79619e-08)
(-4.17322e-09 -7.75027e-08 -1.58786e-08)
(-1.97171e-09 -8.88348e-08 -1.1951e-08)
(1.01568e-09 -9.74754e-08 -9.17958e-09)
(2.9795e-09 -8.49926e-08 1.69489e-09)
(3.18197e-09 -7.98418e-08 8.97618e-09)
(2.80176e-09 -7.8017e-08 1.61294e-08)
(2.11013e-09 -7.90219e-08 2.35028e-08)
(1.64419e-09 -8.18088e-08 2.963e-08)
(1.1977e-09 -8.79109e-08 3.28813e-08)
(6.88596e-10 -9.58741e-08 3.60123e-08)
(-5.24117e-11 -1.05927e-07 3.99669e-08)
(-9.84628e-10 -1.18158e-07 4.48723e-08)
(-2.02435e-09 -1.33014e-07 5.11128e-08)
(-2.97456e-09 -1.49561e-07 5.90311e-08)
(-3.73005e-09 -1.6682e-07 6.88568e-08)
(-4.26686e-09 -1.83686e-07 8.05658e-08)
(-4.56122e-09 -1.99983e-07 9.42185e-08)
(-4.51058e-09 -2.16823e-07 1.09564e-07)
(-3.91282e-09 -2.33064e-07 1.25909e-07)
(-2.51863e-09 -2.47841e-07 1.42151e-07)
(-4.72991e-11 -2.58091e-07 1.56305e-07)
(2.74982e-09 -2.58458e-07 1.65931e-07)
(8.22097e-09 1.14425e-07 1.51137e-06)
(1.37253e-08 1.92154e-06 8.10577e-06)
(1.44335e-08 4.06249e-06 1.60019e-05)
(1.05504e-08 6.92676e-06 2.66189e-05)
(3.91005e-09 1.01308e-05 3.85601e-05)
(6.57918e-10 1.3185e-05 5.00065e-05)
(7.61921e-10 1.52728e-05 5.79475e-05)
(8.01992e-10 1.60136e-05 6.09614e-05)
(7.83905e-10 1.55473e-05 5.9519e-05)
(7.32158e-10 1.44025e-05 5.55273e-05)
(6.9541e-10 1.35896e-05 5.27216e-05)
(7.25551e-10 1.41708e-05 5.50798e-05)
(8.56668e-10 1.68098e-05 6.5201e-05)
(1.18804e-09 2.35359e-05 9.07154e-05)
(2.02401e-09 4.03902e-05 0.000154042)
(6.29722e-08 8.5456e-05 0.000322446)
(3.45197e-05 0.000218237 0.000818492)
(0.000262147 0.000815047 0.00260212)
(0.00143875 0.00408275 0.00974292)
(0.00522999 0.0193927 0.0381928)
(0.00984301 0.074856 0.133746)
(0.00763478 0.174647 0.277531)
(-0.00587315 0.203566 0.271312)
(-0.0126006 0.137784 0.116106)
(-0.00544307 0.0317315 0.0100184)
(-0.000526536 6.20083e-05 -9.77827e-06)
(1.32677e-07 -8.63469e-08 -1.12018e-07)
(1.50916e-08 -1.01625e-08 -1.881e-08)
(1.10227e-09 -2.67566e-10 -5.22512e-10)
(1.9302e-11 -4.46913e-12 -8.34257e-12)
(2.17955e-13 -5.39261e-14 -9.42347e-14)
(1.80565e-15 -4.15225e-16 -6.77848e-16)
(1.14766e-17 -1.91576e-18 -2.91587e-18)
(4.55124e-20 -4.12461e-21 -5.87792e-21)
(3.80511e-09 -4.08476e-08 -8.42375e-09)
(2.99513e-09 -5.50176e-08 2.80435e-09)
(-1.89361e-09 -6.95166e-08 1.18516e-08)
(-2.10835e-09 -9.38256e-08 2.15856e-08)
(-1.02123e-09 -1.44009e-07 2.546e-08)
(-1.19003e-10 -2.28925e-07 1.18608e-08)
(4.97607e-09 -3.13697e-07 -6.62036e-09)
(8.55344e-09 -1.38275e-07 5.05296e-08)
(6.7416e-09 -6.83504e-08 4.06582e-08)
(6.22554e-09 -6.46394e-08 4.02667e-08)
(5.01836e-09 -4.92099e-08 1.08684e-07)
(2.4204e-09 2.34605e-08 3.75015e-07)
(3.49577e-10 1.88792e-07 9.61412e-07)
(1.60251e-11 4.72476e-07 1.96248e-06)
(2.63848e-11 9.05575e-07 3.4974e-06)
(4.19064e-11 1.55507e-06 5.78902e-06)
(6.4693e-11 2.52082e-06 9.16454e-06)
(1.3811e-10 3.87433e-06 1.38544e-05)
(1.38966e-10 5.73505e-06 2.02374e-05)
(1.55601e-10 8.32452e-06 2.90186e-05)
(2.78602e-10 1.19692e-05 4.12532e-05)
(3.97818e-10 1.74001e-05 5.93066e-05)
(5.89359e-10 2.62059e-05 8.83642e-05)
(9.12414e-10 4.11511e-05 0.000137404)
(1.45266e-09 6.62499e-05 0.000219376)
(6.38973e-07 0.000107606 0.000353765)
(3.76891e-06 0.000172306 0.000564183)
(6.88357e-06 0.00026794 0.000878527)
(8.7997e-06 0.000388091 0.00127441)
(1.0724e-05 0.000516704 0.00170208)
(1.11192e-05 0.000637319 0.00210714)
(9.21976e-06 0.000731718 0.00242982)
(5.21598e-06 0.000778813 0.00259908)
(7.62369e-07 0.000802856 0.00268751)
(-2.56226e-06 0.000751206 0.00252789)
(-3.21085e-06 0.000650787 0.00220727)
(-2.02913e-07 0.000544733 0.0018643)
(5.92295e-06 0.000464086 0.00159661)
(1.68997e-05 0.000433294 0.00147562)
(4.21225e-05 0.000498002 0.00159972)
(0.000109852 0.000786805 0.00215442)
(0.000314939 0.00170534 0.00363761)
(0.0010843 0.00461956 0.0076638)
(0.00427872 0.0142044 0.0196503)
(0.0171722 0.0467851 0.0535254)
(0.0600552 0.171435 0.151354)
(0.116578 0.700606 0.474627)
(0.0683905 1.67298 1.19317)
(-0.0763382 2.34484 1.21851)
(-0.127467 1.95987 0.644507)
(-0.0587514 0.483658 0.158387)
(-0.00575367 0.00541737 0.00759342)
(2.40429e-06 -4.35069e-07 -1.36734e-07)
(5.69886e-08 -7.50453e-08 -9.87103e-08)
(9.16061e-09 -3.20817e-09 -4.88496e-09)
(2.52764e-10 -7.72508e-11 -1.16188e-10)
(4.03618e-12 -1.10663e-12 -1.60337e-12)
(4.5681e-14 -9.77089e-15 -1.34158e-14)
(3.29465e-16 -5.00879e-17 -6.48942e-17)
(1.4188e-18 -1.17785e-19 -1.44607e-19)
(5.93104e-09 -4.36301e-08 2.10314e-08)
(7.59034e-09 -7.25043e-08 3.79713e-08)
(2.67003e-09 -1.53494e-07 7.79776e-08)
(-2.11385e-09 -4.18041e-07 1.38123e-07)
(-1.49772e-08 -9.61968e-07 2.09673e-07)
(-2.48904e-08 -1.61774e-06 2.16707e-07)
(2.34344e-08 -2.11645e-06 2.30874e-07)
(3.68296e-08 -1.52108e-06 1.4133e-06)
(1.97526e-09 -1.2905e-07 4.16721e-06)
(3.55017e-08 8.74807e-08 6.43208e-06)
(1.62149e-07 5.3187e-07 9.86476e-06)
(4.09287e-07 1.84071e-06 1.63815e-05)
(7.60039e-07 4.87251e-06 2.92545e-05)
(1.21276e-06 1.11931e-05 5.37042e-05)
(1.82866e-06 2.26028e-05 9.48809e-05)
(2.70748e-06 4.0883e-05 0.000157954)
(3.85296e-06 6.86521e-05 0.000250712)
(5.28992e-06 0.000106049 0.00037396)
(7.24547e-06 0.00015822 0.000543972)
(1.00432e-05 0.000230826 0.000778511)
(1.44769e-05 0.000332382 0.00110285)
(2.25211e-05 0.000472363 0.00154566)
(3.73377e-05 0.000700743 0.00225965)
(6.26395e-05 0.00116162 0.00368671)
(0.000103451 0.00198746 0.00623245)
(0.00016484 0.00318322 0.00991376)
(0.000250744 0.00450877 0.0140071)
(0.000339287 0.00584851 0.0181799)
(0.000393402 0.00704204 0.0219475)
(0.000397736 0.00771599 0.0241504)
(0.000347566 0.0075837 0.0238842)
(0.000234967 0.00726315 0.0230027)
(0.000123223 0.00717731 0.0227561)
(-3.37512e-05 0.00750542 0.023787)
(-0.000229163 0.00796506 0.0251631)
(-0.0003168 0.00852129 0.026835)
(-0.000291486 0.00903914 0.0283858)
(-0.000185119 0.00971342 0.0303265)
(3.42158e-06 0.0106213 0.0327718)
(0.000331896 0.0117553 0.0354525)
(0.00100256 0.0152367 0.0433438)
(0.00273701 0.0251952 0.0626444)
(0.00805098 0.0548235 0.109547)
(0.0235121 0.15161 0.243372)
(0.0698953 0.408074 0.537166)
(0.231498 1.05203 1.10651)
(0.564315 3.52614 2.91954)
(0.432078 9.31911 7.55072)
(-0.244271 14.4783 10.9698)
(-0.593754 12.6838 10.9591)
(-0.396671 3.84974 5.61344)
(-0.0978533 0.138424 0.378941)
(-0.0037815 4.41143e-05 0.000141274)
(9.65828e-08 -3.63416e-07 -2.73653e-07)
(5.02836e-08 -2.82543e-08 -3.42238e-08)
(2.43321e-09 -8.83223e-10 -1.11215e-09)
(5.77243e-11 -1.53542e-11 -1.88678e-11)
(7.97646e-13 -1.59601e-13 -1.86945e-13)
(6.69722e-15 -9.38432e-16 -1.04047e-15)
(3.2458e-17 -2.48529e-18 -2.61622e-18)
(9.80518e-09 -5.55698e-08 4.18344e-08)
(2.27406e-08 -4.41549e-08 8.35607e-07)
(2.47209e-08 -1.38873e-07 2.94313e-06)
(1.5028e-08 2.69434e-06 1.84629e-05)
(-2.3567e-08 4.97042e-06 3.52583e-05)
(-3.43202e-08 2.23231e-05 0.00010913)
(6.07584e-07 5.56413e-05 0.000239443)
(2.01928e-06 -7.51389e-06 7.33718e-05)
(2.513e-06 1.04682e-05 0.000145429)
(2.77999e-06 3.24621e-05 0.000241613)
(4.83597e-06 6.08778e-05 0.000366573)
(9.4113e-06 0.00012114 0.000597033)
(1.81116e-05 0.000238691 0.0010135)
(3.18622e-05 0.000441623 0.00169299)
(5.06358e-05 0.000713149 0.00256709)
(7.57083e-05 0.00102809 0.00355339)
(0.000104954 0.00135194 0.00459271)
(0.000142496 0.00170347 0.00579844)
(0.000196578 0.00213012 0.00730488)
(0.000271606 0.00269731 0.00923278)
(0.000372891 0.00343371 0.0114999)
(0.000562393 0.00427119 0.013893)
(0.00104103 0.00529921 0.0165699)
(0.00193172 0.00676461 0.0202415)
(0.00302757 0.00890709 0.0256348)
(0.00377968 0.0112357 0.0314811)
(0.00401934 0.0146035 0.0399525)
(0.00386093 0.020386 0.0541945)
(0.00290304 0.0247066 0.061988)
(0.000943867 0.0264372 0.0625555)
(-0.000552074 0.0280498 0.0652241)
(-0.00053764 0.0318287 0.0730062)
(0.000392802 0.0325929 0.072629)
(0.0011806 0.0285866 0.0612968)
(0.00149201 0.0276554 0.0581859)
(0.00157531 0.0290043 0.063264)
(0.00170813 0.0308444 0.0696433)
(0.00215344 0.0324758 0.0742015)
(0.00253773 0.0363985 0.0853232)
(0.00525967 0.04668 0.117204)
(0.0136114 0.0740391 0.19442)
(0.033585 0.119249 0.320708)
(0.0929867 0.200825 0.51373)
(0.224879 0.435423 0.906829)
(0.473141 1.16368 1.9564)
(1.35556 5.06788 6.78104)
(3.61164 24.148 25.6118)
(4.48153 62.4594 56.4614)
(1.72726 85.0017 101.625)
(-3.26279 70.7203 103.154)
(-5.75458 22.8636 45.9814)
(-2.85807 1.05857 2.83465)
(-0.185127 0.00131739 0.00439219)
(-6.85572e-05 -1.22187e-06 -3.87802e-07)
(1.57184e-07 -1.72898e-07 -1.63965e-07)
(1.78748e-08 -7.14218e-09 -7.39878e-09)
(5.75344e-10 -1.518e-10 -1.55051e-10)
(9.7669e-12 -1.87498e-12 -1.82403e-12)
(9.71494e-14 -1.28527e-14 -1.17832e-14)
(5.42163e-16 -3.90159e-17 -3.36132e-17)
(3.94771e-07 3.36517e-06 1.45053e-05)
(1.43155e-06 1.01878e-05 4.7643e-05)
(8.78115e-06 4.89269e-06 6.49359e-06)
(1.61717e-05 0.000536193 -8.6034e-05)
(4.50841e-05 0.0109068 0.0122357)
(9.98059e-05 0.0637102 0.0246172)
(-2.17656e-05 0.093474 0.0393481)
(-4.79859e-05 0.0227021 0.0199316)
(8.44991e-05 0.000306641 0.00282487)
(0.000110696 0.000268833 0.00276134)
(0.000177888 0.000672942 0.00458121)
(0.000324218 0.0011409 0.00683804)
(0.000549974 0.00186186 0.00996601)
(0.00078062 0.00288337 0.0141396)
(0.000935789 0.00395962 0.0182578)
(0.00101849 0.00504332 0.0220545)
(0.00112581 0.00625112 0.0256977)
(0.0013565 0.00759024 0.0289363)
(0.0017176 0.00938617 0.0325681)
(0.00210421 0.0114717 0.0357597)
(0.00234733 0.0137746 0.0398417)
(0.0025651 0.0160457 0.0447916)
(0.00321552 0.0183487 0.0499203)
(0.00457976 0.021494 0.0549001)
(0.0056721 0.0267047 0.0602896)
(0.0072606 0.0373671 0.0665249)
(0.0116057 0.0476223 0.0765131)
(0.0114516 0.0475595 0.0928808)
(0.00472139 0.0392465 0.113302)
(0.00217862 0.0438951 0.13614)
(0.00581255 0.0971536 0.163949)
(0.00419465 0.246682 0.204514)
(-0.00565996 0.270404 0.286186)
(-0.00728512 0.273181 0.301725)
(0.000736291 0.2006 0.292984)
(0.00536965 0.0875497 0.26231)
(0.00514238 0.0672098 0.226473)
(0.00764506 0.0985171 0.211124)
(0.0215525 0.101469 0.197381)
(0.055171 0.0856778 0.162059)
(0.103318 0.0712909 0.123059)
(0.163778 0.0691191 0.145385)
(0.308488 0.0439071 0.239359)
(0.776862 -0.0969053 0.258487)
(3.20824 -0.327787 0.196052)
(13.2069 -0.284525 0.772945)
(28.444 12.3896 7.81736)
(41.1002 178.582 149.681)
(22.5897 445.183 548.208)
(-31.7056 334.713 454.458)
(-53.2972 80.2626 112.985)
(-23.6512 2.98295 4.41831)
(-1.4292 0.00455756 0.00867063)
(-0.00219396 -3.19408e-06 -4.6395e-06)
(3.15473e-07 -7.97473e-07 -7.08914e-07)
(9.274e-08 -4.24334e-08 -3.61267e-08)
(4.09669e-09 -1.09064e-09 -8.8051e-10)
(8.57185e-11 -1.59624e-11 -1.197e-11)
(1.01328e-12 -1.28291e-13 -8.85976e-14)
(6.57558e-15 -4.52265e-16 -2.86475e-16)
(1.75621e-05 -7.03469e-07 9.73455e-07)
(-3.35282e-06 -6.67331e-06 2.52383e-06)
(-1.5533e-05 -3.50213e-05 -1.92528e-06)
(0.0072568 0.0242015 -0.0059748)
(0.0184102 0.636306 0.295207)
(0.0202196 4.15558 0.16859)
(-0.00882808 6.89996 -0.564311)
(-0.0289687 4.00912 -0.448334)
(-0.0110558 0.493662 0.0525389)
(0.000929691 0.010118 0.0698791)
(0.00215812 0.00336542 0.0550682)
(0.00284518 0.00767894 0.0726912)
(0.00386039 0.0141592 0.103571)
(0.00439359 0.0146526 0.138261)
(0.00421749 0.0111312 0.147808)
(0.004011 0.00620812 0.113291)
(0.00377278 0.00291338 0.0861049)
(0.00383602 0.00216551 0.0856488)
(0.00389608 0.00198869 0.0920686)
(0.00420504 0.00443543 0.0961891)
(0.00519819 0.0130639 0.0993348)
(0.00591719 0.022785 0.104726)
(0.00645187 0.0300079 0.115023)
(0.00762676 0.0359971 0.131195)
(0.00997618 0.04363 0.159898)
(0.0134058 0.0566459 0.21217)
(0.0173501 0.0759639 0.293492)
(0.020745 0.094912 0.402354)
(0.0242341 0.103357 0.538867)
(0.0322604 0.100361 0.684653)
(0.0534661 0.102892 0.81118)
(0.0783552 0.103464 0.927481)
(0.0534746 0.109694 1.06432)
(-0.000898773 0.119603 1.22182)
(-0.0361487 0.125453 1.36552)
(-0.0453687 0.120452 1.45536)
(-0.0235421 0.0808602 1.49366)
(-0.00983724 0.0462883 1.52211)
(-0.0253941 0.0172434 1.51075)
(-0.0399983 -0.033852 1.33337)
(-0.00410388 -0.130546 0.805491)
(0.0811823 -0.281433 0.0991843)
(0.121473 -0.413768 -0.185141)
(0.121077 -0.60381 -0.561944)
(0.445888 -1.3458 -1.52198)
(5.27346 -4.18939 -5.96622)
(94.4294 -10.1887 -21.5178)
(318.63 154.874 107.662)
(170.085 978.349 873.033)
(-258.305 839.532 662.832)
(-262.857 178.357 112.018)
(-66.0873 6.21672 3.0807)
(-2.59244 0.0147437 0.00852584)
(-0.00471785 -1.95797e-05 -1.07794e-05)
(2.79435e-06 -2.87157e-06 -2.22397e-06)
(4.48028e-07 -1.77194e-07 -1.43047e-07)
(2.27344e-08 -5.48079e-09 -4.16466e-09)
(5.56731e-10 -9.56176e-11 -6.49293e-11)
(7.65806e-12 -9.09351e-13 -5.36709e-13)
(5.7391e-14 -3.7681e-15 -1.92348e-15)
(-0.00417905 5.26511 2.23121)
(-0.00109107 1.37462 0.582136)
(-0.00116379 1.46609 0.620616)
(0.227605 4.53349 1.91791)
(0.59134 25.7287 10.9022)
(0.283784 90.9156 38.5349)
(-0.422585 117.378 49.8906)
(-0.570622 93.9949 40.0267)
(-0.283128 49.0237 20.8449)
(-0.0838301 28.215 11.9979)
(-0.0205135 27.383 11.666)
(0.00335675 29.0762 12.4256)
(0.00919138 32.3246 13.8556)
(-0.00755364 38.2689 16.4069)
(-0.0501883 46.6751 19.9545)
(-0.0719289 50.541 21.577)
(-0.0528814 49.3296 21.0364)
(-0.0306797 43.7973 18.6588)
(-0.020603 34.9913 14.8971)
(-0.0127142 24.829 10.5531)
(-0.00186885 13.4327 5.73198)
(0.00866283 4.87664 2.15147)
(0.0158003 3.23252 1.49158)
(0.0266184 3.39448 1.61425)
(0.0466307 3.88549 1.88549)
(0.0755203 4.85884 2.37127)
(0.106875 7.47317 3.57502)
(0.128399 13.5939 6.30593)
(0.127173 27.1252 12.1677)
(0.0978944 53.4393 23.2771)
(0.0623443 83.5866 35.854)
(0.0589439 93.0147 39.7215)
(0.0756115 92.1343 39.2822)
(0.0823108 91.2713 38.9082)
(0.0552979 91.4803 39.0134)
(0.000340254 90.4473 38.6298)
(-0.0334667 86.3468 36.9659)
(-0.0484237 79.071 33.9674)
(-0.133472 71.0857 30.6151)
(-0.367095 64.5145 27.774)
(-0.599423 59.7154 25.6511)
(-0.417102 55.7162 23.9168)
(-0.101443 52.2051 22.3775)
(-0.0372028 46.7946 20.0188)
(-0.0254015 31.8612 13.3948)
(1.33606 14.6315 5.37537)
(103.632 14.7951 2.70049)
(621.815 341.352 148.478)
(394.448 986.518 667.108)
(-521.853 1050.77 573.138)
(-495.179 344.005 139.611)
(-102.075 15.771 5.82573)
(-3.6792 0.0596494 0.0232685)
(-0.00828274 -7.64401e-05 -3.71151e-05)
(8.54995e-06 -8.63458e-06 -5.47762e-06)
(1.6271e-06 -6.5001e-07 -4.03471e-07)
(1.02174e-07 -2.5357e-08 -1.4738e-08)
(3.0007e-09 -5.36928e-10 -2.93513e-10)
(4.81398e-11 -6.01995e-12 -3.12159e-12)
(4.13748e-13 -2.88768e-14 -1.43449e-14)
(-0.0161518 23.2994 5.46118)
(-0.0149248 21.5275 5.05893)
(-0.00348934 5.03239 1.1857)
(0.0410478 0.755948 0.178865)
(0.140592 4.99919 0.845766)
(0.215603 32.787 7.32628)
(0.0430593 101.151 24.215)
(-0.250877 120.292 29.0418)
(-0.25915 102.342 24.5036)
(-0.0814557 78.2428 18.6997)
(0.00060439 72.8555 17.463)
(0.0297881 74.4229 17.8579)
(0.029904 82.474 19.831)
(-0.0131362 103.775 25.0373)
(-0.0651815 131.123 31.7648)
(-0.0983044 137.313 33.4057)
(-0.128586 133.691 32.6461)
(-0.144537 123.57 30.2497)
(-0.15733 113.195 27.7585)
(-0.139769 102.139 25.0992)
(-0.0771512 84.5396 20.8295)
(-0.012622 56.6799 14.036)
(0.0415716 26.3962 6.65766)
(0.0760895 12.8751 3.30663)
(0.0954329 12.3685 3.1403)
(0.129495 13.66 3.42915)
(0.19474 18.0879 4.52775)
(0.259893 31.6175 7.82906)
(0.227723 65.283 16.1355)
(0.0816603 127.834 31.7663)
(-0.0455697 176.865 44.0965)
(-0.075952 179.583 44.7893)
(-0.0741433 173.658 43.2876)
(-0.0780295 170.991 42.6003)
(-0.0836447 171.829 42.8126)
(-0.0886086 173.905 43.3722)
(-0.0878435 177.937 44.472)
(-0.128228 179.735 44.9954)
(-0.238892 173.895 43.5742)
(-0.322318 151.781 38.0577)
(-0.26057 120.902 30.4947)
(-0.114867 110.317 28.4147)
(-0.0682802 112.662 29.2412)
(-0.296041 109.445 28.48)
(-0.522383 78.3193 20.3628)
(1.58719 34.7658 9.0875)
(111.346 49.1952 14.4306)
(564.418 549.888 133.26)
(308.569 1113.64 179.741)
(-486.297 1140.59 169.272)
(-417.971 333.985 45.6347)
(-80.9337 14.3255 1.23482)
(-2.82391 0.0485814 0.000503314)
(-0.00534854 -6.8743e-05 -1.54512e-05)
(6.84116e-06 -8.97608e-06 -3.11617e-06)
(1.77097e-06 -7.1428e-07 -2.20243e-07)
(1.15533e-07 -2.81018e-08 -8.28909e-09)
(3.47925e-09 -5.94377e-10 -1.72194e-10)
(5.68717e-11 -6.63259e-12 -1.89062e-12)
(4.93664e-13 -3.15355e-14 -8.84062e-15)
(-0.00317089 12.9508 2.49154)
(-0.00271835 11.0936 2.14698)
(-0.00140268 5.71978 1.11321)
(0.0548701 9.17617 1.79558)
(0.378435 48.0043 9.34349)
(0.602006 180.386 35.2881)
(0.0480986 247.908 48.6316)
(-0.640612 219.369 43.2248)
(-0.524138 146.116 29.1329)
(-0.125862 80.1668 16.0793)
(-0.0150218 58.9809 11.8495)
(-0.000807992 58.7683 11.8092)
(0.0186289 66.6964 13.4086)
(0.0178351 91.9483 18.6147)
(0.000564938 124.095 25.3553)
(-0.0139799 131.125 26.9462)
(-0.0288461 127.036 26.2689)
(-0.0442651 114.86 23.9167)
(-0.0452447 102.188 21.4258)
(-0.0265571 91.453 19.3147)
(0.0120832 76.4111 16.2576)
(0.0725234 50.7255 11.0285)
(0.0642323 19.9443 4.38139)
(0.00912654 2.96315 0.543829)
(0.0154886 0.825938 -0.126458)
(0.0662586 1.54096 -0.0126928)
(0.0757616 4.88935 1.09859)
(0.0258729 15.3867 3.39863)
(-0.00799047 41.0486 8.45657)
(-0.0192064 89.1833 18.6976)
(-0.019972 136.475 29.2532)
(-0.00944247 147.718 31.9112)
(0.00147175 144.756 32.0897)
(0.0101311 137.269 31.055)
(0.00544381 131.209 29.7653)
(-0.0142824 130.476 29.2917)
(-0.034646 130.054 28.5985)
(-0.0546402 126.793 27.8937)
(-0.092368 113.31 25.0583)
(-0.152798 85.1534 18.7091)
(-0.110223 49.6925 10.5864)
(0.000165832 20.6945 3.83081)
(0.0229173 14.6524 2.37238)
(-0.0568301 13.3088 2.06976)
(-0.0919025 10.2771 1.78611)
(1.32391 9.36548 2.19665)
(107.161 29.6261 5.8156)
(640.609 528.978 5.05309)
(381.061 1082.19 364.73)
(-551.59 891.03 782.597)
(-485.873 138.848 287.71)
(-90.7252 2.57406 13.0514)
(-2.72046 -0.00317922 0.0406636)
(-0.0025284 -2.90005e-05 -4.63094e-05)
(7.82566e-06 -9.01838e-06 -2.89418e-06)
(2.25866e-06 -7.24681e-07 -1.5791e-07)
(1.34663e-07 -2.76808e-08 -5.3013e-09)
(3.92558e-09 -5.76021e-10 -1.0474e-10)
(6.34631e-11 -6.33435e-12 -1.14417e-12)
(5.45193e-13 -2.95108e-14 -5.39983e-15)
(2.56707e-06 -0.00355293 0.000801664)
(-0.000335892 0.00891138 0.00692)
(-0.000396363 0.121576 0.0641444)
(-6.44923e-05 0.561881 0.294328)
(-4.81761e-05 4.11998 2.08182)
(0.03598 28.0154 14.4749)
(0.00186231 83.758 45.2894)
(-0.0340575 82.0385 44.6249)
(0.00138125 39.8645 21.5437)
(0.0121207 5.49091 2.92503)
(0.0162224 0.247233 0.126677)
(0.00839367 0.240436 0.131484)
(0.0051064 0.667324 0.30809)
(0.00413197 1.71085 0.760399)
(0.00422455 2.66651 1.18172)
(0.00995585 2.76018 1.19792)
(0.0187634 2.62359 1.11705)
(0.00966065 2.19204 0.930749)
(-0.0167672 1.51504 0.644726)
(-0.00713122 0.81721 0.322002)
(0.122236 0.291811 0.066359)
(0.125116 0.0211443 0.0385307)
(-0.0270884 0.0394567 -0.0243795)
(-0.0899464 0.0773917 -0.0849161)
(-0.0135904 0.233268 -0.128012)
(0.30305 0.533002 -0.00698945)
(0.377135 0.540949 -0.038372)
(-0.0578393 0.644254 0.435153)
(-0.33806 1.08396 1.29722)
(-0.208507 1.37812 1.14567)
(-0.0334218 1.40341 0.473571)
(0.365701 1.37671 0.249095)
(0.631515 0.999213 0.0957201)
(0.272516 0.720342 0.0123003)
(-0.196966 0.736494 0.472303)
(-0.534522 0.913918 0.957588)
(-0.36552 1.17277 0.985506)
(0.0114578 1.05954 0.326319)
(0.0232137 0.970694 -0.0377186)
(-0.060311 1.04112 0.0885633)
(-0.0697503 1.08408 0.371025)
(-0.0274911 1.08692 0.625821)
(-0.00523399 1.03322 0.775199)
(-0.0237151 0.73139 0.318681)
(-0.0208902 0.075546 -0.0272267)
(0.624868 -0.274049 0.0238517)
(59.3879 3.67162 1.8082)
(690.603 392.707 43.4291)
(689.728 1185.5 226.602)
(-479.518 1002.86 671.025)
(-740.284 208.709 327.072)
(-211.873 2.39109 16.99)
(-8.9809 -0.0216659 0.065651)
(-0.0252364 -3.85012e-05 -5.54672e-05)
(2.66842e-05 -6.42565e-06 -1.68265e-06)
(2.36923e-06 -4.45377e-07 -8.70047e-08)
(1.22002e-07 -1.52066e-08 -2.92773e-09)
(3.21124e-09 -2.7706e-10 -5.08157e-11)
(4.59284e-11 -2.63614e-12 -4.64054e-13)
(3.46509e-13 -1.05649e-14 -1.78942e-15)
(0.00097861 -0.00179905 -0.00102719)
(0.00181476 0.0113773 0.0055135)
(0.00764614 0.128699 -0.0287755)
(0.115621 0.592614 -0.144989)
(0.983214 4.33086 -0.785921)
(3.25537 29.9643 -3.22988)
(2.16358 93.7746 3.51147)
(-2.12444 95.0915 12.8327)
(-3.01016 46.9282 7.05008)
(-1.22499 6.32304 0.316709)
(-0.117634 0.258617 -0.11394)
(0.00374934 0.245127 -0.15427)
(-0.0035852 0.669273 -0.36728)
(-0.00497391 1.72319 -0.860402)
(-0.000535468 2.70101 -1.26858)
(0.000294721 2.82159 -1.22521)
(0.00638314 2.70079 -1.13172)
(0.0137847 2.27029 -0.953307)
(0.00846993 1.57463 -0.649618)
(0.00395349 0.84027 -0.330923)
(0.0879339 0.299194 -0.135197)
(0.136583 0.0278927 -0.209294)
(0.0286269 -0.0321218 -0.157262)
(-0.0900893 -0.029663 -0.118469)
(-0.0670417 0.158278 -0.0646264)
(0.0118574 0.518545 -0.208691)
(0.277167 0.726118 -0.764203)
(0.665561 0.67109 -0.92723)
(0.251145 0.577011 -0.564165)
(-0.534199 0.871082 -0.31465)
(-0.48936 1.23531 -0.2893)
(-0.114458 1.3565 -0.276067)
(0.015749 1.3934 -0.84798)
(0.332069 1.34335 -1.26628)
(0.593838 1.03867 -1.14634)
(0.284782 0.758272 -0.637188)
(-0.379186 0.719083 0.0337298)
(-0.598654 1.02261 0.0051861)
(-0.230764 1.20157 -0.18623)
(0.0221528 1.21485 -0.338453)
(0.159122 1.19155 -0.345823)
(0.258267 0.992971 -0.209465)
(-0.0370273 0.730132 -0.0133143)
(-0.286126 0.521801 0.0790507)
(-0.119415 -0.100129 0.0440851)
(0.747655 -0.475453 0.104703)
(58.3615 5.83293 6.19606)
(650.368 466.984 147.37)
(641.725 1190.71 -513.955)
(-440.749 967.365 -1149.96)
(-690.554 189.467 -430.117)
(-210.377 0.578318 -19.7603)
(-9.56701 -0.034245 -0.0608884)
(-0.0308197 -4.61262e-05 3.35163e-05)
(2.70973e-05 -6.2839e-06 3.31212e-06)
(2.25446e-06 -4.31769e-07 2.06459e-07)
(1.1548e-07 -1.48858e-08 6.18227e-09)
(3.06954e-09 -2.73298e-10 9.9562e-11)
(4.42832e-11 -2.61554e-12 8.63394e-13)
(3.36019e-13 -1.05275e-14 3.22128e-15)
(0.00788976 31.7323 -6.00502)
(0.0144576 15.0182 -2.69392)
(0.0494884 0.142541 0.194269)
(0.481121 0.107844 0.582169)
(4.15418 2.98108 1.67133)
(17.5621 87.526 -6.80176)
(17.3819 527.031 -55.0229)
(-7.13483 726.79 -61.678)
(-20.2559 493.518 -46.301)
(-10.8104 156.811 -22.0686)
(-1.2267 32.5059 -6.06017)
(-0.0102791 21.0749 -3.99811)
(0.0116838 26.3291 -4.95039)
(0.0397253 49.0986 -9.23455)
(0.0736627 90.3408 -17.1061)
(0.0690859 122.052 -23.2194)
(0.0286635 125.831 -24.0119)
(-0.000304677 122.808 -23.569)
(-0.019822 115.59 -22.2434)
(-0.0260998 102.843 -19.7775)
(0.00152104 82.3129 -15.8321)
(0.0360168 52.9183 -10.3808)
(0.0142914 20.8981 -4.35011)
(0.0054538 2.93245 -0.830885)
(0.0520057 -0.0775476 -0.0628264)
(0.045025 0.152222 0.251713)
(0.0422137 2.60201 0.619827)
(0.0901915 10.1628 -1.36919)
(0.082657 28.493 -5.93071)
(0.0405892 60.3071 -12.3213)
(0.0310878 86.4894 -16.9935)
(0.0331008 91.4807 -17.9148)
(0.0321409 90.8603 -17.8466)
(0.0403097 89.1796 -17.5559)
(0.0685255 86.8614 -17.2235)
(0.0733536 85.0194 -16.5056)
(0.0217057 83.2393 -16.1599)
(-0.0413543 78.5645 -14.6968)
(-0.0942772 67.0796 -12.7379)
(-0.0895344 49.6396 -9.35759)
(-0.00252155 31.4228 -5.78785)
(0.0827772 15.4796 -2.84125)
(0.046293 11.5218 -2.31554)
(-0.148478 9.77962 -1.72077)
(-0.119627 7.50647 -1.48637)
(4.51807 7.35883 -1.62813)
(186.185 49.3058 -0.734242)
(549.805 753.129 234.186)
(142.33 1160.57 -468.725)
(-505.537 628.98 -1045.72)
(-327.476 19.0961 -388.3)
(-48.7847 -2.59001 -18.7753)
(-1.08106 -0.0195791 -0.0605152)
(6.71907e-05 -3.43286e-05 4.39538e-05)
(1.65379e-05 -7.31621e-06 4.21611e-06)
(1.66813e-06 -5.28237e-07 2.40373e-07)
(8.97396e-08 -2.03758e-08 7.34407e-09)
(2.66457e-09 -4.32697e-10 1.27837e-10)
(4.40621e-11 -4.80774e-12 1.22621e-12)
(3.83433e-13 -2.24718e-14 5.17344e-15)
(0.0825197 47.683 -10.6905)
(0.128595 109.669 -24.5296)
(0.240912 98.1899 -21.908)
(1.04644 52.6422 -11.377)
(4.96475 37.5031 -5.87816)
(21.8965 73.5852 -8.90534)
(32.293 401.492 -96.0897)
(0.0250548 802.591 -196.331)
(-33.5976 594.028 -143.125)
(-22.7984 166.505 -37.7671)
(-3.74099 12.6244 -2.74415)
(-0.0235704 0.733782 -0.105465)
(0.0726853 1.10412 -0.148855)
(0.0757728 3.92412 -0.745667)
(0.0386194 12.6909 -2.6809)
(-0.0105357 28.1336 -6.08965)
(-0.0600638 34.961 -7.5693)
(-0.051718 34.1389 -7.35289)
(0.0106383 30.3179 -6.45689)
(0.0200049 23.7745 -5.00051)
(-0.0248982 15.5138 -3.26815)
(-0.0619798 6.54984 -1.44203)
(-0.0428946 1.09896 -0.336942)
(0.011454 -0.0208722 0.0857978)
(0.186197 0.0294548 0.904348)
(0.582039 -0.0366257 0.984069)
(0.43186 -0.190565 1.10546)
(-0.0547008 0.0624506 0.495758)
(-0.293753 1.88253 -0.254802)
(-0.377037 6.35973 -1.26603)
(-0.221724 9.90503 -1.99777)
(-0.0935639 10.0325 -1.7382)