/*--------------------------------*- C++ -*----------------------------------*\
| =========                 |                                                 |
| \\      /  F ield         | OpenFOAM: The Open Source CFD Toolbox           |
|  \\    /   O peration     | Version:  2.1.1                                 |
|   \\  /    A nd           | Web:      www.OpenFOAM.org                      |
|    \\/     M anipulation  |                                                 |
\*---------------------------------------------------------------------------*/
FoamFile
{
    version     2.0;
    format      ascii;
    class       volScalarField;
    location    "0.00115";
    object      k;
}
// * * * * * * * * * * * * * * * * * * * * * * * * * * * * * * * * * * * * * //

dimensions      [0 2 -2 0 0 0 0];

internalField   nonuniform List<scalar> 
36520
(
0.0820264
0.165213
0.269788
0.305846
0.334838
0.339894
0.340353
0.338013
0.339042
0.339879
0.337115
0.331052
0.320764
0.308133
0.293434
0.277869
0.261699
0.245923
0.230161
0.215012
0.199806
0.184844
0.169607
0.154332
0.138956
0.12391
0.109329
0.095554
0.0827539
0.0711692
0.06088
0.0519699
0.0444022
0.0381027
0.0329422
0.0287743
0.0254251
0.0227246
0.020508
0.0186115
0.0168794
0.0151733
0.0134539
0.0118121
0.0103541
0.00871408
0.00693199
0.00512706
0.00359391
0.00212491
0.000811919
0.000294198
0.000227812
0.000199301
0.000188456
0.000173591
0.000175165
0.000167128
0.000173792
0.000197455
0.0426806
0.0520524
0.0614409
0.0528899
0.0442261
0.0353687
0.0324905
0.0317696
0.0317465
0.0314925
0.0310405
0.0300934
0.0283801
0.0263885
0.0244508
0.0230136
0.0218992
0.0211377
0.0204833
0.0198146
0.0189581
0.0178924
0.0164797
0.0147776
0.0129259
0.0110855
0.00931844
0.00769745
0.00632512
0.00523655
0.00443207
0.00389292
0.0035871
0.00347499
0.00352187
0.00368336
0.00390569
0.00415894
0.0044314
0.00470775
0.0049803
0.00526389
0.00563236
0.00624122
0.00713339
0.00825959
0.00967994
0.0110303
0.0115911
0.00858049
0.00334795
0.000328882
3.55832e-05
3.02228e-05
3.31915e-05
3.42588e-05
3.59766e-05
3.59651e-05
4.20229e-05
0.000129046
0.0192544
0.0144198
0.0135616
0.00915679
0.00600081
0.00384699
0.00329928
0.00313084
0.00308182
0.00303444
0.00299702
0.00293682
0.00275923
0.00255888
0.00238823
0.00230915
0.00229066
0.00231949
0.00237185
0.00241045
0.00241802
0.00238596
0.00229506
0.00215667
0.00200472
0.00187051
0.00176816
0.00170857
0.00170609
0.00175873
0.00186101
0.00201167
0.00221179
0.00246778
0.00278932
0.00319009
0.00369025
0.00431459
0.00509669
0.00607727
0.00731661
0.00889265
0.010941
0.0136871
0.0174394
0.0224092
0.0286591
0.0344623
0.0353517
0.0262838
0.0117215
0.00178497
7.59574e-05
6.28011e-06
4.70375e-06
4.62238e-06
4.64439e-06
4.67873e-06
1.01383e-05
0.000106524
0.00956273
0.00421021
0.0031761
0.00177408
0.00105028
0.000778168
0.000960547
0.000784281
0.000586193
0.000567243
0.000591388
0.000632369
0.000667273
0.000712099
0.000774884
0.00085999
0.000964362
0.00108754
0.00122961
0.00139229
0.00157716
0.00178998
0.0020359
0.00232855
0.00268085
0.00310494
0.00360029
0.00416309
0.00475905
0.00535101
0.00591256
0.00643451
0.00690432
0.00736903
0.00775801
0.00816037
0.00894772
0.010091
0.0116635
0.0137863
0.016662
0.0204853
0.0254785
0.0319279
0.0399463
0.0500116
0.0660887
0.0822913
0.0805014
0.0606988
0.0294892
0.00670874
0.00040353
1.4435e-05
9.19293e-07
5.29115e-07
4.62511e-07
5.67546e-07
5.96373e-06
0.000102298
0.00501138
0.00133688
0.000932153
0.000851722
0.00164227
0.00381534
0.00812802
0.0053865
0.00143047
0.000719369
0.000766726
0.000940893
0.00116883
0.00145865
0.00180946
0.00220935
0.00266987
0.00323842
0.00396693
0.00485563
0.00601373
0.00751518
0.0094832
0.0120964
0.0155456
0.0200448
0.0257492
0.0328407
0.04083
0.0490602
0.057254
0.0656154
0.07383
0.0717544
0.0600369
0.0455556
0.0351361
0.0325603
0.0343189
0.037805
0.0434592
0.0516184
0.0630639
0.0789206
0.097802
0.114004
0.139084
0.164238
0.152253
0.11704
0.0635361
0.0186493
0.00171627
8.18024e-05
2.66468e-06
1.27035e-07
5.21465e-08
1.86937e-07
5.56108e-06
0.000101409
0.00300027
0.000919016
0.00222725
0.00715792
0.0204351
0.0482095
0.0922343
0.0669103
0.019357
0.00577914
0.00482028
0.00596524
0.0075228
0.00952051
0.0117815
0.0141957
0.0173044
0.0220807
0.0276622
0.0340613
0.0418563
0.0522093
0.0692906
0.0940314
0.128463
0.174414
0.233786
0.314434
0.413774
0.517092
0.609682
0.679827
0.684199
0.621152
0.512111
0.390842
0.284125
0.208735
0.168187
0.153794
0.15565
0.16418
0.178542
0.212086
0.247552
0.272984
0.292638
0.2889
0.250743
0.196297
0.122953
0.0426954
0.00586434
0.000389625
1.79275e-05
5.06816e-07
1.66023e-08
1.50762e-07
5.4906e-06
0.000101045
0.00453662
0.00815977
0.0303996
0.0956751
0.239931
0.487317
0.769644
0.603801
0.259088
0.0963637
0.0626448
0.0772985
0.101922
0.135465
0.171148
0.202155
0.241452
0.277533
0.320045
0.361926
0.397152
0.420849
0.458951
0.559329
0.734733
0.952278
1.16973
1.41818
1.7184
2.02705
2.2634
2.38719
2.41522
2.31057
2.06787
1.73916
1.38886
1.07078
0.817032
0.614053
0.476683
0.402699
0.368767
0.363941
0.372419
0.376442
0.373143
0.346188
0.29339
0.232955
0.174562
0.0857542
0.0170097
0.00152866
8.6106e-05
2.92173e-06
6.57352e-08
1.46932e-07
5.43637e-06
0.000100632
0.0392311
0.0852444
0.25909
0.707836
1.56089
2.59679
3.42881
3.31136
2.28686
1.29293
0.987504
1.20635
1.5701
2.0551
2.51501
2.78979
2.76065
2.57253
2.38594
2.38337
2.4755
2.59468
2.73181
2.89715
3.14493
3.49476
3.87178
4.20582
4.47374
4.64991
4.69691
4.63186
4.49278
4.28347
3.97764
3.55935
3.06365
2.5461
2.07089
1.6557
1.30334
1.0033
0.776278
0.66196
0.594651
0.498994
0.402894
0.332061
0.271331
0.218414
0.175739
0.106812
0.0316863
0.00398413
0.000284362
1.19013e-05
3.03191e-07
1.4764e-07
5.37438e-06
0.00010007
0.073137
0.107564
0.29497
0.569955
0.96987
1.38388
1.72137
2.07617
2.43104
2.81142
3.21955
3.74773
4.37878
5.06434
5.7569
6.23802
6.31765
6.05741
5.69465
5.38788
5.13279
4.91346
4.73688
4.59708
4.4882
4.43437
4.41594
4.39191
4.34481
4.28191
4.19895
4.07628
3.91968
3.73531
3.51116
3.23853
2.91263
2.55446
2.20637
1.90461
1.65427
1.43894
1.21122
0.984512
0.819966
0.689607
0.540922
0.397861
0.28584
0.211591
0.166599
0.111382
0.0438632
0.00801404
0.000771546
4.0894e-05
1.25158e-06
1.63133e-07
5.3279e-06
9.96564e-05
0.0644911
0.0899836
0.269754
0.471795
0.768266
1.1075
1.44501
1.74106
1.92681
2.01713
2.07953
2.19075
2.42416
2.75848
3.19502
3.67383
4.1045
4.48548
4.90846
5.38632
5.74554
5.75071
5.41233
4.99081
4.6643
4.45476
4.29316
4.15935
4.07196
4.01826
3.95987
3.86235
3.70572
3.49123
3.21381
2.89283
2.55219
2.20161
1.83414
1.4487
1.08418
0.785845
0.594742
0.478603
0.388983
0.313028
0.25997
0.216798
0.178681
0.155433
0.141765
0.103619
0.0431094
0.00842454
0.000868138
4.86908e-05
1.55038e-06
1.68894e-07
5.32523e-06
9.96893e-05
0.0469424
0.0634752
0.306247
0.652592
1.0777
1.84412
2.82247
3.68628
4.35205
4.75354
4.9579
5.10373
5.32186
5.8154
6.53121
7.2735
7.9518
8.66421
9.51978
10.5384
11.4234
11.5478
10.7346
9.75174
9.09237
8.77477
8.68818
8.73486
8.8914
9.07287
9.17465
9.11675
8.87692
8.47006
7.90909
7.20084
6.35295
5.38362
4.33753
3.19404
2.11766
1.32424
0.834217
0.580584
0.457324
0.377842
0.316877
0.265617
0.217874
0.183846
0.161803
0.117346
0.0491503
0.00985153
0.00103099
5.83327e-05
1.85755e-06
1.73973e-07
5.31653e-06
9.9535e-05
0.0410333
0.0797884
0.266169
0.764171
1.69967
3.43216
5.00865
6.35263
7.42013
8.0191
8.47621
9.17694
10.4001
11.8449
13.2596
14.4523
15.2513
15.8506
16.3885
16.721
16.4618
15.4053
13.772
12.0194
10.8498
10.5308
10.8677
11.5381
12.2483
12.7852
13.0349
12.9826
12.7246
12.29
11.6641
10.7786
9.59748
8.08187
6.2443
4.34667
2.6954
1.51707
0.890607
0.6508
0.598873
0.578231
0.517249
0.462906
0.388993
0.306725
0.234439
0.157143
0.0634488
0.0113247
0.000990384
4.80908e-05
1.34716e-06
1.63012e-07
5.33627e-06
9.97114e-05
0.0538446
0.105715
0.227172
0.677476
1.58088
3.14107
4.48141
6.0152
7.34941
8.0727
8.77534
9.68102
10.896
12.4571
14.0948
15.5921
16.6823
17.2673
17.5239
17.4196
16.8242
15.544
13.7791
12.1455
11.1103
10.6981
10.6884
11.054
11.6685
12.1978
12.4754
12.5233
12.3656
11.9441
11.1879
10.1093
8.76399
7.1491
5.36962
3.62098
2.20426
1.27579
0.803255
0.649862
0.714572
0.811192
0.76656
0.644456
0.499986
0.36568
0.262542
0.168868
0.0665766
0.0114647
0.000984294
4.74203e-05
1.32496e-06
1.62628e-07
5.33496e-06
9.96848e-05
0.0513951
0.123502
0.406721
0.822619
1.45591
2.06186
2.71712
3.7988
5.36296
6.42596
6.47751
6.44808
6.74839
7.40979
8.26427
9.11912
9.86256
10.403
10.8034
11.2013
11.5292
11.1858
9.96048
8.65101
7.77512
7.3339
7.21059
7.25795
7.41396
7.6281
7.79647
7.79449
7.59292
7.2064
6.64668
5.96011
5.20106
4.38539
3.48965
2.52317
1.64134
1.01545
0.661729
0.509501
0.477141
0.465566
0.410323
0.337203
0.27161
0.225334
0.194199
0.128444
0.045926
0.00851569
0.000863642
4.83794e-05
1.53715e-06
1.68392e-07
5.32277e-06
9.96258e-05
0.0580352
0.0843249
0.368649
0.636599
0.839364
1.13784
1.68206
2.80059
4.87509
6.81629
7.00001
6.5059
6.45413
6.73212
7.21711
7.78774
8.28396
8.6226
8.6852
8.33537
7.71994
7.00599
6.33489
5.82102
5.41951
5.12231
4.98611
4.95848
4.94086
4.91595
4.89477
4.81134
4.58337
4.17711
3.63198
3.06181
2.543
2.08943
1.67193
1.27152
0.907266
0.623417
0.43994
0.338173
0.285879
0.250123
0.220411
0.196354
0.177648
0.168276
0.155332
0.0941471
0.0286598
0.00496874
0.000489066
2.70032e-05
8.52128e-07
1.56341e-07
5.33534e-06
9.98309e-05
0.0470654
0.0538093
0.224517
0.47814
0.976701
1.83422
3.10826
4.69351
5.56954
5.28539
4.95421
5.11373
5.48494
6.02794
6.63751
7.03179
7.19967
7.15619
6.9233
6.53771
6.08687
5.7305
5.46753
5.17019
4.83698
4.52334
4.28918
4.11405
3.94067
3.74261
3.5097
3.23904
2.93905
2.62192
2.29727
1.97396
1.66743
1.38703
1.13559
0.910353
0.706807
0.540235
0.427366
0.369219
0.358726
0.352442
0.314265
0.26007
0.212343
0.18309
0.161384
0.0960666
0.0280183
0.00451648
0.000412898
2.15373e-05
6.54607e-07
1.52693e-07
5.33709e-06
9.97935e-05
0.0242176
0.045555
0.171373
0.41226
0.886824
1.66327
2.16624
2.25449
1.93208
1.37365
0.949776
0.853277
1.02816
1.36189
1.85433
2.43449
2.77431
2.93106
2.92568
2.77361
2.64249
2.59916
2.58196
2.52426
2.49595
2.58467
2.81973
3.12383
3.38149
3.52512
3.52819
3.41771
3.23706
2.95962
2.56417
2.10926
1.68482
1.33464
1.07625
0.894847
0.757882
0.667565
0.628682
0.623316
0.609476
0.55155
0.453885
0.349096
0.26646
0.209673
0.168584
0.0941217
0.0240965
0.00289551
0.000200656
8.30626e-06
2.12373e-07
1.46094e-07
5.3664e-06
9.98956e-05
0.00404917
0.00441276
0.0170318
0.0578865
0.167563
0.386907
0.574884
0.511662
0.321294
0.147884
0.0637094
0.0500569
0.068809
0.101633
0.155238
0.233195
0.332218
0.404449
0.417614
0.385713
0.359869
0.336477
0.298361
0.281672
0.314181
0.368474
0.435484
0.503471
0.563642
0.61125
0.632039
0.614646
0.562982
0.491818
0.416617
0.353989
0.320328
0.30456
0.310344
0.333238
0.386946
0.481092
0.615379
0.746857
0.809394
0.772695
0.664076
0.525592
0.386006
0.271152
0.184304
0.0832101
0.0147693
0.00124144
6.65953e-05
2.19735e-06
5.25234e-08
1.49064e-07
5.43943e-06
0.000100598
0.00449405
0.00067609
0.00132974
0.00487872
0.0165207
0.0441244
0.0787967
0.0629091
0.0290912
0.00917368
0.00387486
0.00387036
0.00498284
0.00664798
0.00913399
0.0127312
0.0175869
0.0241079
0.0272539
0.025332
0.0231045
0.0213738
0.0214253
0.0240301
0.0274941
0.0317515
0.0363848
0.0408015
0.0444577
0.0469363
0.0477453
0.0473864
0.0471069
0.0477122
0.0498577
0.0540953
0.0613043
0.0722224
0.0882796
0.111904
0.148672
0.206925
0.305051
0.449446
0.547958
0.543198
0.502079
0.45225
0.363065
0.255077
0.151621
0.0501226
0.00581024
0.00036224
1.59479e-05
4.51506e-07
2.74982e-08
1.61215e-07
5.50512e-06
0.000101057
0.00782844
0.00123183
0.0005351
0.000413879
0.00102433
0.00288513
0.00607396
0.00471243
0.00193094
0.000856214
0.00078009
0.000934658
0.0011603
0.00144365
0.00179888
0.00223894
0.00277983
0.00344934
0.00400193
0.00434211
0.00470621
0.00518781
0.00586564
0.00672123
0.00774391
0.00897291
0.0103796
0.011912
0.0134846
0.0150264
0.0165039
0.0180059
0.0196625
0.0216415
0.0241645
0.0274934
0.0321276
0.038643
0.0479856
0.0618939
0.0834395
0.117527
0.17097
0.220534
0.237639
0.231155
0.228451
0.223571
0.197563
0.1479
0.0829267
0.0252514
0.00215272
9.84511e-05
3.01851e-06
1.376e-07
6.85713e-08
2.07271e-07
5.59709e-06
0.000101529
0.0145597
0.00405562
0.00202721
0.000755145
0.000384365
0.00032684
0.000468105
0.000448901
0.000379926
0.000397644
0.000458728
0.000539569
0.000638901
0.000752554
0.000886959
0.00104631
0.0012306
0.00143713
0.00164102
0.0018487
0.0020706
0.00232857
0.00263415
0.00299254
0.00340601
0.00388638
0.00442699
0.00501698
0.00563053
0.00625462
0.00688585
0.00756144
0.00834636
0.00932403
0.010593
0.0122833
0.0146204
0.0179368
0.0227564
0.0298415
0.0402098
0.0548814
0.0737753
0.0919909
0.102097
0.10613
0.110488
0.109801
0.0989627
0.0760753
0.0414033
0.0112723
0.000707228
2.50735e-05
8.68158e-07
3.48792e-07
3.62366e-07
5.14123e-07
5.93697e-06
0.000102046
0.0245623
0.0137662
0.00958953
0.00480458
0.00272679
0.00164281
0.00142257
0.00134041
0.00132885
0.00134261
0.00136415
0.00137395
0.00138732
0.00136824
0.00132662
0.00132469
0.00137429
0.00146474
0.00156533
0.00167708
0.00179963
0.00194221
0.00209837
0.00222625
0.00231646
0.00238962
0.00247376
0.00259518
0.00276251
0.00298318
0.00326252
0.00361043
0.00404204
0.00458799
0.0052946
0.00622471
0.00748162
0.00923749
0.0117888
0.0156183
0.0215067
0.0307895
0.0416458
0.0487455
0.0492599
0.0457794
0.0412519
0.0350853
0.0298501
0.0236622
0.0127987
0.00272919
0.000114734
5.08696e-06
2.98829e-06
3.30794e-06
3.62483e-06
3.88856e-06
9.43246e-06
0.00010525
0.045753
0.050327
0.0502634
0.0375871
0.0301812
0.023947
0.0221601
0.0212186
0.0207415
0.0203287
0.0198923
0.0191787
0.0184182
0.0173715
0.0160516
0.0149228
0.0140724
0.0135534
0.0131357
0.0128072
0.0125361
0.0123411
0.0120698
0.0115122
0.0106448
0.00958144
0.00848178
0.00747786
0.0066332
0.00598878
0.00556353
0.0053329
0.005247
0.00526666
0.00537714
0.00557429
0.00584917
0.00620356
0.00665985
0.00726174
0.0081224
0.00904055
0.00972522
0.00971135
0.00911061
0.00836961
0.00751494
0.00655812
0.00575238
0.00466015
0.00233376
0.000355325
3.06965e-05
2.48915e-05
2.79999e-05
2.96054e-05
3.15031e-05
3.19933e-05
3.7908e-05
0.000122875
0.111677
0.169764
0.260081
0.283873
0.305147
0.310663
0.312551
0.310943
0.309098
0.306362
0.30111
0.294047
0.283548
0.271385
0.257151
0.241922
0.225858
0.210328
0.195392
0.181573
0.168126
0.155169
0.142135
0.129378
0.116621
0.10416
0.0921674
0.0810083
0.0707839
0.0616472
0.0536574
0.0468531
0.0411122
0.0363083
0.0322911
0.0289512
0.0261595
0.0237745
0.0216647
0.0196547
0.0175666
0.0152062
0.0124657
0.00985548
0.00760563
0.00566412
0.00397479
0.00258671
0.00160074
0.000968582
0.000508825
0.000264946
0.000215721
0.000195836
0.000187439
0.000174804
0.000175813
0.000167665
0.00017308
0.000186466
0.0849898
0.139551
0.222944
0.250976
0.280586
0.295637
0.307801
0.312873
0.313039
0.31001
0.30247
0.293451
0.280897
0.267687
0.252609
0.237407
0.221793
0.206566
0.1916
0.177329
0.16323
0.149624
0.13608
0.122793
0.109662
0.0971
0.085254
0.0744053
0.0646283
0.0560327
0.0485989
0.0422868
0.0369767
0.0325822
0.0289994
0.0261275
0.0238184
0.0219133
0.0202606
0.0186748
0.0169953
0.0149796
0.0125129
0.010064
0.00793813
0.00613489
0.004558
0.00315754
0.002026
0.00123737
0.000640254
0.000282094
0.000211402
0.000191691
0.000184275
0.000172513
0.000174033
0.000166443
0.000172697
0.000195729
0.039333
0.0393226
0.0446556
0.0384183
0.0364553
0.0326496
0.0310411
0.0287162
0.0269137
0.0250386
0.0235173
0.0215199
0.0199506
0.0181989
0.0167322
0.0155093
0.0144317
0.0136832
0.01312
0.0126322
0.0121555
0.0116382
0.0109752
0.0101195
0.00908978
0.00802983
0.00704606
0.00620751
0.00553549
0.00505133
0.00475059
0.00460328
0.00458192
0.00467374
0.00486656
0.00514515
0.0054957
0.00590888
0.00638774
0.00695657
0.00753724
0.00799924
0.00832487
0.00852921
0.00868676
0.00880017
0.00870936
0.00809494
0.00694136
0.00545253
0.00294861
0.000554118
3.82615e-05
2.52916e-05
2.8251e-05
2.9614e-05
3.14447e-05
3.16873e-05
3.78357e-05
0.000125623
0.0168893
0.00988077
0.0083271
0.00541958
0.0043935
0.00332167
0.00290056
0.00244794
0.00217965
0.00196126
0.00181614
0.00164487
0.00153948
0.00143116
0.00136747
0.00134437
0.00134897
0.00139322
0.0014661
0.00155114
0.001642
0.00173247
0.00180927
0.00186909
0.0019157
0.00197735
0.00207374
0.00221997
0.00242017
0.00267998
0.0030041
0.00340117
0.00388335
0.00447951
0.00523548
0.0062193
0.007541
0.00937622
0.0119874
0.0157123
0.0211188
0.0290052
0.0383565
0.0450832
0.0465793
0.0437375
0.0406149
0.0360318
0.0296731
0.0235758
0.0138167
0.0035521
0.000172636
5.98207e-06
2.85054e-06
3.06122e-06
3.33386e-06
3.5485e-06
9.1126e-06
0.00010547
0.00880848
0.00271323
0.00168146
0.000850794
0.000630332
0.000460806
0.000430128
0.000412678
0.000440144
0.000488102
0.000559915
0.000647392
0.000757097
0.000885958
0.0010353
0.00120484
0.00139401
0.00159988
0.00182075
0.00206407
0.00233765
0.0026462
0.00299291
0.00339073
0.00384632
0.00437012
0.00495915
0.00561448
0.00632779
0.00709897
0.0079407
0.00890302
0.0100746
0.0115963
0.0136799
0.0166801
0.021242
0.0284691
0.0401409
0.0592228
0.0912244
0.144857
0.231579
0.322603
0.34799
0.290214
0.218308
0.162816
0.117203
0.0818257
0.047439
0.0148319
0.00116732
3.50068e-05
9.82595e-07
2.35409e-07
2.51539e-07
4.08202e-07
5.82364e-06
0.000101804
0.00512448
0.000858901
0.000443541
0.000264746
0.000275374
0.000328732
0.00043678
0.000583997
0.000786387
0.00104417
0.00137376
0.00178215
0.00228003
0.002866
0.00353185
0.00425734
0.00504709
0.00590104
0.00675628
0.00765947
0.00866431
0.0098301
0.0111483
0.0126267
0.0142722
0.0160709
0.0179481
0.0198719
0.0218118
0.0236664
0.025404
0.0271992
0.0293576
0.0322593
0.0363757
0.0424102
0.0516642
0.0666103
0.0920272
0.137105
0.220843
0.372525
0.628272
0.97576
1.11403
0.892731
0.561062
0.380054
0.301348
0.22053
0.12751
0.0437841
0.00539643
0.000230581
7.51202e-06
1.85513e-07
2.26845e-08
1.67087e-07
5.55024e-06
0.000101279
0.00341648
0.000385292
0.000307034
0.000373508
0.00053833
0.000790407
0.00116779
0.00170802
0.0024873
0.00354294
0.00498499
0.00690959
0.00936539
0.0123468
0.015652
0.0189362
0.0220216
0.024777
0.0272818
0.0291295
0.0312702
0.0345138
0.0388507
0.0441002
0.0498943
0.0554254
0.0597197
0.0627395
0.0649478
0.0662526
0.0660755
0.0647262
0.0636594
0.0644677
0.0679214
0.0745506
0.0868707
0.108402
0.145445
0.210969
0.33429
0.565178
1.014
1.73042
2.12062
1.74751
1.1486
0.718112
0.503019
0.362052
0.226654
0.0950363
0.0165379
0.000972646
4.12856e-05
1.02945e-06
2.20801e-08
1.50539e-07
5.49965e-06
0.00010097
0.00291252
0.000807983
0.00136339
0.00220406
0.0032737
0.00489226
0.00741838
0.0112545
0.0171288
0.0256464
0.0381065
0.0563767
0.0818977
0.116409
0.156435
0.19466
0.23209
0.270816
0.310022
0.317474
0.323379
0.345455
0.398338
0.475293
0.574264
0.682328
0.774063
0.839896
0.888797
0.928538
0.931841
0.878614
0.783027
0.681912
0.61121
0.482613
0.357372
0.315288
0.336731
0.402998
0.550101
0.813138
1.30245
1.93957
2.29542
2.07496
1.5627
1.08732
0.73703
0.462404
0.267013
0.125946
0.03145
0.00274148
0.000129667
3.6516e-06
6.88306e-08
1.48003e-07
5.45587e-06
0.000100652
0.00545454
0.0058259
0.0120035
0.0207628
0.0298628
0.0443614
0.0682385
0.106945
0.169266
0.262945
0.402409
0.617929
0.91461
1.31235
1.75877
2.12171
2.40832
2.74548
2.9713
3.03242
3.07304
3.12539
3.37176
3.84241
4.52792
5.40544
6.29787
7.03139
7.59418
8.12807
8.53775
8.62842
8.31492
7.63522
6.58512
5.29727
4.04549
2.94699
2.13576
1.65149
1.52604
1.50664
1.60701
1.83969
1.99766
1.78394
1.37663
0.952802
0.620157
0.387386
0.238178
0.1256
0.0380862
0.00467738
0.000289095
1.02665e-05
2.25068e-07
1.47255e-07
5.39705e-06
0.000100136
0.0383976
0.0671857
0.114041
0.18272
0.2729
0.408372
0.603177
0.906997
1.32595
1.83673
2.47983
3.54866
4.79256
6.15876
7.42394
8.22434
8.60529
8.96887
9.3454
9.47622
9.39609
9.28054
9.26047
9.59679
10.2857
11.1897
12.1095
12.8922
13.431
13.6118
13.4191
12.9502
12.2228
11.224
10.0935
8.9927
7.87589
6.63023
5.22336
3.87807
2.82231
2.10342
1.59206
1.29509
1.23719
1.18373
0.959544
0.669181
0.440372
0.290253
0.201043
0.117263
0.038398
0.00577637
0.000462276
2.12019e-05
5.78621e-07
1.50668e-07
5.33544e-06
9.95895e-05
0.0824106
0.234474
0.581142
1.17458
1.78066
2.48321
3.1585
3.70055
4.12735
4.63456
5.11172
5.52642
5.98133
6.41619
6.85001
7.31397
7.75572
8.09894
8.3703
8.56426
8.61274
8.43002
8.07213
7.75295
7.56559
7.47872
7.40279
7.24274
6.94088
6.49401
5.99212
5.46166
4.91428
4.35405
3.79906
3.27744
2.78015
2.30452
1.85981
1.45377
1.10523
0.844385
0.658797
0.536212
0.479807
0.456422
0.400933
0.317437
0.241213
0.189383
0.158927
0.106643
0.0402142
0.00745682
0.000749453
4.22268e-05
1.37053e-06
1.65312e-07
5.30294e-06
9.94006e-05
0.0680924
0.109089
0.662415
1.68421
2.27973
2.89248
3.42683
3.79105
3.8476
3.70563
3.58518
3.61545
3.75207
3.93521
4.11768
4.23122
4.24329
4.19224
4.11786
4.01839
3.88422
3.68478
3.41845
3.12496
2.86872
2.70827
2.62752
2.58815
2.57489
2.59786
2.63223
2.65654
2.64976
2.59366
2.4775
2.28023
1.99971
1.65631
1.30435
0.986746
0.719733
0.513879
0.372071
0.283094
0.234158
0.208884
0.187672
0.163956
0.148754
0.145373
0.14275
0.0972795
0.0343496
0.00637541
0.000660203
3.83863e-05
1.2738e-06
1.64063e-07
5.31197e-06
9.9515e-05
0.0580257
0.109271
0.653502
2.17448
2.97402
3.47445
4.47693
5.57524
6.09405
6.2621
6.49112
6.75093
7.00667
7.19145
7.24073
7.11405
6.84059
6.51354
6.15839
5.7535
5.31897
4.86745
4.41616
4.02329
3.74463
3.59279
3.53535
3.55551
3.63608
3.73609
3.81323
3.84495
3.82541
3.73198
3.51145
3.13376
2.60952
2.00752
1.43039
0.962635
0.624983
0.405852
0.28161
0.216473
0.183424
0.164783
0.155949
0.150582
0.149505
0.158249
0.148553
0.0873622
0.0277682
0.00531552
0.000569011
3.37636e-05
1.13028e-06
1.61053e-07
5.30316e-06
9.93934e-05
0.0577777
0.0690872
0.450185
1.14961
1.71222
2.51966
3.80302
5.52841
6.79419
6.74994
6.30632
6.18213
6.35671
6.66443
6.97194
7.20213
7.29527
7.18314
6.88413
6.48334
6.06655
5.65208
5.20174
4.75691
4.41373
4.2145
4.1348
4.16048
4.26678
4.40113
4.51382
4.58314
4.5932
4.52121
4.3258
3.96302
3.38828
2.63643
1.85139
1.20071
0.743796
0.45913
0.307896
0.233849
0.196444
0.177019
0.167954
0.160126
0.153613
0.156303
0.151668
0.0957401
0.0313144
0.0058905
0.000623452
3.65842e-05
1.21197e-06
1.62399e-07
5.30157e-06
9.93318e-05
0.0624205
0.0856186
0.472287
1.20515
1.84835
2.52567
3.07247
3.28906
3.10756
2.94131
2.94659
3.03981
3.21558
3.46499
3.75681
4.0861
4.43081
4.76138
5.04282
5.17467
5.05743
4.71513
4.31374
3.98603
3.7694
3.68351
3.70599
3.82475
4.02148
4.25801
4.48419
4.66616
4.78857
4.81442
4.6827
4.3933
3.96458
3.3844
2.67654
1.94154
1.32818
0.885042
0.595315
0.422473
0.338481
0.295739
0.257772
0.221995
0.191256
0.170867
0.158509
0.114992
0.0457179
0.00848315
0.000858563
4.82553e-05
1.54609e-06
1.6827e-07
5.30558e-06
9.93304e-05
0.0954981
0.19291
0.486392
1.06222
1.46954
2.03553
2.39892
2.55726
2.63542
2.77255
3.01484
3.37223
3.82611
4.36804
5.00451
5.6895
6.42419
7.17058
7.89314
8.47149
8.597
8.21912
7.71719
7.39664
7.25333
7.27021
7.47982
7.90468
8.54196
9.2726
9.88481
10.3139
10.5632
10.3255
9.12065
7.11408
5.0968
3.50541
2.33631
1.49866
0.931499
0.575693
0.368843
0.267048
0.247047
0.286257
0.299821
0.268855
0.231094
0.198073
0.171824
0.128638
0.0570642
0.0107859
0.00102068
5.30076e-05
1.58505e-06
1.68662e-07
5.33564e-06
9.9679e-05
0.11655
0.138109
0.203763
0.350397
0.61975
1.04074
1.57465
1.99529
2.68364
3.51628
4.57378
5.83155
7.19852
8.62959
9.95447
10.9258
11.4733
11.6192
11.4001
10.7415
9.66445
8.55797
7.87146
7.67858
7.89364
8.44904
9.25336
10.1408
10.8914
11.1863
10.8447
10.0009
8.792
7.15641
5.24241
3.5248
2.29948
1.50049
0.979505
0.638441
0.424584
0.302023
0.250963
0.271949
0.398761
0.563215
0.580679
0.496856
0.392217
0.299267
0.227843
0.150646
0.0553583
0.00778476
0.000556884
2.29238e-05
5.66148e-07
1.51332e-07
5.37932e-06
0.000100127
0.0446287
0.0868937
0.202842
0.4536
0.887463
1.62039
2.38666
3.1262
3.88143
4.73408
5.9686
7.49109
9.30505
11.3013
13.0714
14.3644
15.0864
15.122
14.6778
13.8193
12.6546
11.451
10.6415
10.575
10.9336
11.476
12.0536
12.6189
13.055
13.0011
12.3291
11.2392
9.89863
8.31845
6.43715
4.19202
2.21524
1.10782
0.681032
0.51892
0.460045
0.471328
0.536876
0.66609
0.803833
0.826484
0.737965
0.609705
0.481112
0.367012
0.272359
0.167373
0.0555073
0.00713964
0.000480493
1.86586e-05
4.40975e-07
1.50241e-07
5.39826e-06
0.000100311
0.0146987
0.0181038
0.0417424
0.0867055
0.164107
0.29504
0.505806
0.7265
0.937007
1.29071
1.77241
2.01485
2.10987
2.3539
2.68852
3.02183
3.38791
3.73257
3.83515
3.77314
3.65703
3.61919
3.72616
3.95096
4.28049
4.75924
5.31417
5.86771
5.98549
5.58557
4.90233
4.15134
3.40036
2.65467
1.90734
1.2521
0.829612
0.622918
0.534715
0.494875
0.503537
0.536281
0.593455
0.675394
0.722969
0.687653
0.59768
0.495463
0.400244
0.311419
0.215723
0.0942274
0.0187964
0.00188415
0.000117785
4.413e-06
1.06133e-07
1.46525e-07
5.41042e-06
0.000100217
0.00689949
0.00151073
0.00261721
0.00489155
0.0085966
0.0141998
0.0218517
0.0309013
0.0394962
0.0487106
0.0586953
0.0623768
0.0701216
0.0865853
0.11039
0.143277
0.188395
0.246707
0.281667
0.283626
0.271697
0.261409
0.270057
0.315926
0.385492
0.481957
0.608187
0.762185
0.896192
0.91005
0.849147
0.751571
0.631987
0.502461
0.381145
0.298425
0.260745
0.260477
0.291518
0.352855
0.464822
0.60775
0.822795
1.07113
1.17365
1.10331
0.925465
0.702835
0.470755
0.275462
0.12912
0.0454238
0.00647297
0.000463258
2.33461e-05
7.28882e-07
2.10132e-08
1.50431e-07
5.48873e-06
0.000101024
0.0109005
0.00145911
0.000763327
0.000591723
0.000740792
0.001007
0.00135744
0.00170123
0.00199211
0.00217564
0.0022973
0.00244207
0.00276161
0.00328505
0.00398833
0.00489267
0.00600057
0.00721424
0.00838639
0.00926378
0.00993577
0.0113871
0.0134706
0.0161919
0.0197742
0.024469
0.0302322
0.0365325
0.0417024
0.045536
0.0505745
0.053183
0.0505906
0.0464914
0.0438395
0.0454604
0.0521951
0.0625555
0.0782636
0.102543
0.142083
0.201571
0.298324
0.425638
0.458009
0.412334
0.370096
0.311681
0.225133
0.137808
0.0667011
0.021169
0.00209383
0.000107827
3.74382e-06
1.19922e-07
3.09165e-08
1.7384e-07
5.55467e-06
0.000101366
0.016277
0.00438007
0.00246941
0.00119303
0.000809917
0.000577543
0.000518441
0.000498711
0.000521169
0.000555136
0.000606283
0.000668886
0.000749256
0.000844623
0.00095722
0.00108994
0.00124114
0.00141392
0.00160526
0.00182405
0.0020752
0.00236876
0.00270893
0.00311158
0.00359529
0.00417901
0.004859
0.00561896
0.00640053
0.0071808
0.00797249
0.00876672
0.00961198
0.0106226
0.0119197
0.0136484
0.0160062
0.0192897
0.0240229
0.0310455
0.0417195
0.0575595
0.0802673
0.105368
0.114558
0.115689
0.118268
0.116033
0.0959841
0.0635444
0.031109
0.00833089
0.000551266
2.0424e-05
7.41735e-07
2.99892e-07
3.17213e-07
4.66998e-07
5.8894e-06
0.000102074
0.0260009
0.0146458
0.0111089
0.00681972
0.00511357
0.0036852
0.00307078
0.00259234
0.0023509
0.00218252
0.00208198
0.00199623
0.00193495
0.00185408
0.00179071
0.00176801
0.00175987
0.00179409
0.00185307
0.00192196
0.00198516
0.00203856
0.00207413
0.00209243
0.00209732
0.00211753
0.00217817
0.00229544
0.00246945
0.00268924
0.00294898
0.00324935
0.00359789
0.00401137
0.00451595
0.00514634
0.00595366
0.00700283
0.00839623
0.0102992
0.01298
0.0167387
0.0220898
0.0272029
0.0303783
0.0322413
0.0346554
0.0362131
0.0324121
0.0226458
0.0109494
0.00221574
9.83557e-05
5.07187e-06
3.20428e-06
3.45887e-06
3.74591e-06
3.94092e-06
9.50023e-06
0.00010574
0.0490637
0.0509201
0.0535551
0.0438522
0.0396574
0.0344629
0.0318453
0.0291535
0.0274227
0.0258161
0.0245914
0.0232683
0.0221232
0.0207361
0.0194012
0.0183278
0.0172656
0.0164917
0.0158512
0.0152595
0.0145786
0.0137797
0.0127942
0.0116109
0.0102209
0.00876084
0.00738252
0.00621036
0.00532179
0.00471596
0.00435554
0.00417768
0.00413319
0.00416665
0.00425626
0.00438575
0.00454643
0.00472318
0.00488925
0.00503864
0.00520283
0.00546098
0.00581634
0.00622054
0.00661249
0.00704922
0.00763039
0.00803154
0.00760766
0.00541631
0.00243659
0.000356484
3.2498e-05
2.62047e-05
2.94031e-05
3.08428e-05
3.28024e-05
3.30315e-05
3.92784e-05
0.000127326
0.098285
0.161604
0.247434
0.273769
0.299923
0.312201
0.319749
0.32064
0.317801
0.312244
0.304062
0.294934
0.28365
0.271671
0.257969
0.244113
0.229646
0.215559
0.201505
0.188017
0.174292
0.160663
0.146786
0.133003
0.119103
0.105457
0.0923383
0.0802036
0.0692527
0.0596874
0.0514804
0.0445526
0.0387385
0.0338761
0.0298062
0.0264172
0.0236098
0.0212453
0.0191674
0.0172145
0.0152449
0.0131602
0.0110399
0.00885504
0.00693606
0.00532465
0.00397224
0.00281947
0.0019138
0.00114517
0.000563155
0.000270647
0.000213846
0.00019298
0.000184554
0.00017248
0.000174073
0.000166598
0.000173169
0.000198585
0.100017
0.143753
0.232151
0.261744
0.284049
0.29023
0.291663
0.289441
0.286629
0.283048
0.276994
0.269335
0.258901
0.24723
0.233929
0.220039
0.205647
0.191863
0.178568
0.166545
0.154986
0.144041
0.13313
0.122389
0.111562
0.10095
0.0907836
0.0814177
0.0729321
0.0654189
0.0589199
0.0534593
0.0488987
0.0451058
0.0419169
0.0392118
0.0368636
0.03474
0.0326872
0.0303052
0.0272479
0.0234224
0.0193173
0.0154598
0.0121399
0.00922858
0.00660753
0.00435451
0.00268398
0.00155123
0.000731315
0.000266947
0.000197377
0.000182684
0.00018053
0.000168547
0.000172059
0.000163161
0.000169998
0.000187603
0.0724255
0.121835
0.195561
0.218573
0.236411
0.242288
0.242781
0.239557
0.235517
0.230817
0.224213
0.216565
0.207422
0.197851
0.18752
0.177153
0.166696
0.157051
0.147947
0.139956
0.132635
0.125959
0.119286
0.112696
0.105944
0.0992052
0.092611
0.0863966
0.080536
0.0750765
0.0700622
0.0655813
0.0616213
0.0581064
0.0548901
0.0518755
0.0490969
0.0465972
0.0438861
0.0406341
0.0367681
0.032217
0.0273344
0.0226313
0.0184467
0.0147066
0.0111737
0.00790481
0.00525839
0.00316025
0.00141523
0.000338977
0.000179312
0.000167966
0.000171157
0.000161092
0.000166187
0.000157346
0.000164427
0.000180647
0.0647087
0.0944824
0.144897
0.160879
0.172877
0.177444
0.17759
0.174701
0.170447
0.165847
0.16019
0.154579
0.148697
0.143112
0.137307
0.131827
0.126333
0.121361
0.116695
0.112728
0.109257
0.106135
0.102874
0.0993968
0.0953503
0.0907862
0.085907
0.0809816
0.0760953
0.0716251
0.0676213
0.0639822
0.0606155
0.0576229