/*--------------------------------*- C++ -*----------------------------------*\
| =========                 |                                                 |
| \\      /  F ield         | OpenFOAM: The Open Source CFD Toolbox           |
|  \\    /   O peration     | Version:  2.1.1                                 |
|   \\  /    A nd           | Web:      www.OpenFOAM.org                      |
|    \\/     M anipulation  |                                                 |
\*---------------------------------------------------------------------------*/
FoamFile
{
    version     2.0;
    format      ascii;
    class       volScalarField;
    location    "0.00115";
    object      Lzero;
}
// * * * * * * * * * * * * * * * * * * * * * * * * * * * * * * * * * * * * * //

dimensions      [0 1 0 0 0 0 0];

internalField   nonuniform List<scalar> 
36520
(
9.25719e-05
9.26746e-05
9.28623e-05
9.31023e-05
9.32177e-05
9.33039e-05
9.32295e-05
9.30221e-05
9.28983e-05
9.28687e-05
9.29156e-05
9.29693e-05
9.30026e-05
9.3034e-05
9.30586e-05
9.30705e-05
9.30781e-05
9.30779e-05
9.30779e-05
9.30797e-05
9.30864e-05
9.31003e-05
9.31228e-05
9.31544e-05
9.31935e-05
9.32383e-05
9.3286e-05
9.33341e-05
9.33793e-05
9.34192e-05
9.34521e-05
9.34782e-05
9.34967e-05
9.35095e-05
9.35176e-05
9.35235e-05
9.35307e-05
9.35445e-05
9.35706e-05
9.36144e-05
9.3685e-05
9.37981e-05
9.39777e-05
9.42531e-05
9.46955e-05
9.52232e-05
9.55212e-05
9.56241e-05
9.54756e-05
9.67842e-05
9.91835e-05
9.49694e-05
9.30058e-05
9.2765e-05
9.25344e-05
9.23704e-05
9.22809e-05
9.21894e-05
9.21878e-05
9.2262e-05
0.000194858
6.16082e-05
5.71043e-05
5.18937e-05
4.80866e-05
4.60714e-05
4.50019e-05
4.41706e-05
4.39076e-05
4.37131e-05
4.34582e-05
4.30531e-05
4.28456e-05
4.28562e-05
4.3056e-05
4.32344e-05
4.33007e-05
4.31783e-05
4.2894e-05
4.25021e-05
4.20133e-05
4.14298e-05
4.06977e-05
3.9802e-05
3.87652e-05
3.75961e-05
3.62593e-05
3.47309e-05
3.30456e-05
3.1196e-05
2.92213e-05
2.72496e-05
2.54905e-05
2.41151e-05
2.31876e-05
2.2574e-05
2.1972e-05
2.11944e-05
2.01794e-05
1.88761e-05
1.73065e-05
1.55976e-05
1.39911e-05
1.27714e-05
1.20117e-05
1.15836e-05
1.14672e-05
1.14834e-05
1.11853e-05
9.44209e-06
6.68758e-06
2.85249e-06
3.48161e-06
1.04712e-05
1.15076e-05
1.16069e-05
1.20351e-05
1.19023e-05
1.37297e-05
0.000193821
0.000195068
3.81008e-05
3.2659e-05
2.71449e-05
2.33495e-05
2.09383e-05
1.93964e-05
1.90895e-05
1.94228e-05
1.96132e-05
1.96287e-05
1.95161e-05
1.94759e-05
1.94727e-05
1.9457e-05
1.93455e-05
1.91489e-05
1.89029e-05
1.86319e-05
1.83094e-05
1.79047e-05
1.73823e-05
1.66611e-05
1.57099e-05
1.45823e-05
1.33687e-05
1.2166e-05
1.10852e-05
1.02734e-05
9.74585e-06
9.45834e-06
9.36379e-06
9.41756e-06
9.58106e-06
9.83589e-06
1.01568e-05
1.05221e-05
1.09201e-05
1.13541e-05
1.18301e-05
1.23671e-05
1.29971e-05
1.37679e-05
1.47386e-05
1.59755e-05
1.75364e-05
1.93359e-05
2.07995e-05
2.08533e-05
1.76299e-05
1.26354e-05
6.14248e-06
1.68659e-06
1.31843e-06
2.72175e-06
2.6606e-06
2.64901e-06
2.59545e-06
5.1092e-06
0.000193765
0.000195132
2.38157e-05
1.84608e-05
1.30646e-05
7.26789e-06
3.19536e-06
2.16206e-06
2.73042e-06
6.41478e-06
8.73886e-06
9.00929e-06
8.95233e-06
8.78974e-06
8.63563e-06
8.56108e-06
8.61336e-06
8.73005e-06
8.87987e-06
9.02982e-06
9.17144e-06
9.303e-06
9.42959e-06
9.54941e-06
9.68326e-06
9.85491e-06
1.00792e-05
1.0353e-05
1.0672e-05
1.10137e-05
1.13531e-05
1.16726e-05
1.19739e-05
1.22882e-05
1.26398e-05
1.30776e-05
1.35583e-05
1.39299e-05
1.43376e-05
1.48701e-05
1.55734e-05
1.64926e-05
1.7646e-05
1.90393e-05
2.06681e-05
2.25295e-05
2.4794e-05
2.78336e-05
3.03801e-05
3.05284e-05
2.79935e-05
2.09254e-05
1.18072e-05
3.66832e-06
8.15534e-07
4.43262e-07
7.07885e-07
6.43268e-07
7.21105e-07
4.73727e-06
0.00019372
0.000195462
1.2365e-05
5.13132e-06
1.89577e-06
1.76114e-06
2.33333e-06
3.19459e-06
2.85144e-06
2.23838e-06
3.4755e-06
4.42576e-06
4.84839e-06
5.29973e-06
5.79171e-06
6.37833e-06
7.13752e-06
8.07933e-06
8.98413e-06
9.72542e-06
1.04143e-05
1.10702e-05
1.17582e-05
1.25108e-05
1.3367e-05
1.4336e-05
1.54208e-05
1.65917e-05
1.78165e-05
1.89582e-05
1.99126e-05
2.06528e-05
2.12007e-05
2.14951e-05
2.10649e-05
2.00828e-05
1.92571e-05
1.93247e-05
1.9756e-05
2.01344e-05
2.07735e-05
2.17681e-05
2.31443e-05
2.49228e-05
2.70799e-05
2.94498e-05
3.20577e-05
3.59036e-05
3.93966e-05
3.94277e-05
3.70182e-05
3.10813e-05
1.98033e-05
7.40288e-06
1.85383e-06
3.59013e-07
1.31969e-07
1.83896e-07
4.45372e-07
5.01367e-06
0.000193693
0.000195796
2.25575e-06
2.22696e-06
3.47464e-06
5.47034e-06
7.82276e-06
1.01688e-05
9.13604e-06
5.91915e-06
4.41112e-06
4.58638e-06
5.15725e-06
5.87404e-06
6.749e-06
7.77971e-06
9.08359e-06
1.07855e-05
1.26677e-05
1.45131e-05
1.63821e-05
1.83621e-05
2.05072e-05
2.29144e-05
2.57116e-05
2.8883e-05
3.23656e-05
3.61024e-05
4.02318e-05
4.4234e-05
4.74691e-05
4.97036e-05
5.08367e-05
5.00289e-05
4.74411e-05
4.35282e-05
3.90536e-05
3.48633e-05
3.17246e-05
3.0021e-05
2.95395e-05
3.0043e-05
3.12891e-05
3.33252e-05
3.63089e-05
3.93056e-05
4.21045e-05
4.52432e-05
4.73127e-05
4.7393e-05
4.54684e-05
4.00025e-05
2.91433e-05
1.33337e-05
3.97329e-06
8.99778e-07
1.57772e-07
3.96414e-08
4.1674e-07
5.03867e-06
0.000193669
0.000197105
4.40265e-06
7.62677e-06
1.25199e-05
1.84273e-05
2.42387e-05
2.78959e-05
2.55394e-05
1.92211e-05
1.41223e-05
1.29795e-05
1.46904e-05
1.69222e-05
1.9557e-05
2.2082e-05
2.43353e-05
2.71116e-05
3.01905e-05
3.32356e-05
3.58538e-05
3.82809e-05
4.05758e-05
4.3631e-05
4.82221e-05
5.39226e-05
5.95318e-05
6.42345e-05
6.91054e-05
7.40761e-05
7.83346e-05
8.1185e-05
8.24055e-05
8.21187e-05
7.99222e-05
7.57531e-05
7.00853e-05
6.36762e-05
5.73898e-05
5.19138e-05
4.73258e-05
4.4339e-05
4.32593e-05
4.38118e-05
4.57938e-05
4.81896e-05
5.03058e-05
5.22166e-05
5.29856e-05
5.20725e-05
5.01966e-05
4.66422e-05
3.80822e-05
2.1559e-05
7.68234e-06
1.98445e-06
3.84888e-07
6.19264e-08
4.06968e-07
5.01523e-06
0.000193645
0.000195987
1.36009e-05
2.12182e-05
3.14193e-05
4.24968e-05
5.13289e-05
5.59074e-05
5.46845e-05
4.84276e-05
4.19405e-05
4.28571e-05
4.7712e-05
5.34087e-05
5.97034e-05
6.43136e-05
6.64835e-05
6.75537e-05
6.91283e-05
7.13468e-05
7.36782e-05
7.59241e-05
7.7929e-05
7.97434e-05
8.17937e-05
8.4649e-05
8.8158e-05
9.16605e-05
9.48873e-05
9.76397e-05
9.95857e-05
0.00010051
0.000100587
9.9905e-05
9.83649e-05
9.57071e-05
9.17455e-05
8.65837e-05
8.06604e-05
7.45473e-05
6.85774e-05
6.31367e-05
5.83684e-05
5.52912e-05
5.50685e-05
5.57356e-05
5.55474e-05
5.50956e-05
5.45885e-05
5.36339e-05
5.27383e-05
5.12375e-05
4.54591e-05
3.05995e-05
1.29805e-05
3.83179e-06
8.32973e-07
1.3915e-07
3.78159e-07
4.98506e-06
0.000193599
0.00019461
1.66203e-05
2.37242e-05
3.08531e-05
3.87431e-05
4.5068e-05
4.93883e-05
5.38516e-05
5.77174e-05
6.12527e-05
6.51585e-05
6.99587e-05
7.52532e-05
8.07299e-05
8.56174e-05
8.89798e-05
9.05079e-05
9.10774e-05
9.19166e-05
9.33574e-05
9.45223e-05
9.47543e-05
9.42914e-05
9.38867e-05
9.40811e-05
9.49288e-05
9.6046e-05
9.7166e-05
9.82038e-05
9.90748e-05
9.96079e-05
9.96294e-05
9.90908e-05
9.79451e-05
9.60519e-05
9.33886e-05
9.00144e-05
8.60874e-05
8.17818e-05
7.72735e-05
7.28297e-05
6.85851e-05
6.45315e-05
6.10976e-05
5.90546e-05
5.75683e-05
5.53394e-05
5.2953e-05
5.18458e-05
5.33877e-05
5.68591e-05
5.67037e-05
4.47826e-05
2.23703e-05
7.52279e-06
1.8216e-06
3.29932e-07
3.22022e-07
4.96023e-06
0.000193566
0.000194322
1.59513e-05
2.36779e-05
3.02139e-05
3.91065e-05
4.72303e-05
5.3769e-05
5.85331e-05
6.17458e-05
6.38653e-05
6.56297e-05
6.8164e-05
7.22533e-05
7.76575e-05
8.3753e-05
8.97761e-05
9.52053e-05
0.000100409
0.000105561
0.000109907
0.000112959
0.0001139
0.000112861
0.000111332
0.000110484
0.000110561
0.0001111
0.000111848
0.000112824
0.000113853
0.000114584
0.000114714
0.000114028
0.000112458
0.000109865
0.000106214
0.000101445
9.54234e-05
8.80702e-05
7.9701e-05
7.12366e-05
6.37974e-05
5.8446e-05
5.50116e-05
5.28138e-05
5.13606e-05
5.09842e-05
5.19013e-05
5.48523e-05
6.03269e-05
6.54018e-05
6.43636e-05
4.99738e-05
2.50486e-05
8.56079e-06
2.10858e-06
3.86493e-07
3.15361e-07
4.95936e-06
0.000193562
0.000194056
1.54928e-05
2.88397e-05
3.90651e-05
4.933e-05
6.04641e-05
6.99231e-05
7.71176e-05
8.35068e-05
8.86427e-05
9.26296e-05
9.64341e-05
0.000101145
0.000107625
0.000115109
0.000122209
0.000128331
0.000133859
0.000139017
0.000143417
0.00014592
0.000145846
0.000143439
0.000140758
0.000139197
0.000138994
0.000139991
0.000141808
0.000144158
0.000146402
0.000147967
0.000148547
0.000148041
0.000146483
0.0001438
0.000139644
0.000133548
0.000125062
0.000113653
9.90341e-05
8.32266e-05
6.92359e-05
5.93016e-05
5.40766e-05
5.20432e-05
5.11304e-05
5.06948e-05
5.09048e-05
5.19289e-05
5.42173e-05
5.665e-05
5.52306e-05
4.33238e-05
2.26325e-05
8.02901e-06
2.0293e-06
3.77847e-07
2.92462e-07
4.96377e-06
0.000193571
0.000194689
1.83985e-05
2.80366e-05
3.76882e-05
5.04618e-05
6.59927e-05
7.65083e-05
8.52614e-05
9.39602e-05
0.000101412
0.000107619
0.000113932
0.000122087
0.000130518
0.00013835
0.000144977
0.000149664
0.000153236
0.000156272
0.000158593
0.000159733
0.000159156
0.000156318
0.00015112
0.00014642
0.000144377
0.000144991
0.000147244
0.000150096
0.000152843
0.000154868
0.000156064
0.000156685
0.000156591
0.000155102
0.000151477
0.000145411
0.00013654
0.000123919
0.000107249
8.8073e-05
6.98156e-05
5.77685e-05
5.37188e-05
5.48402e-05
5.68228e-05
5.7644e-05
5.856e-05
5.78116e-05
5.53693e-05
5.15901e-05
4.522e-05
3.30528e-05
1.62069e-05
5.39067e-06
1.29568e-06
2.3149e-07
2.79955e-07
4.98136e-06
0.000193617
0.000194904
2.02531e-05
2.56127e-05
3.58488e-05
4.99253e-05
6.56622e-05
7.52038e-05
8.48338e-05
9.49523e-05
0.000103876
0.000111525
0.000118172
0.000125652
0.000133808
0.000141683
0.000148608
0.000153722
0.000157014
0.000159322
0.000160612
0.000160577
0.000158813
0.000155212
0.000150087
0.000145009
0.00014164
0.000140684
0.00014272
0.000146497
0.000150228
0.000152976
0.000154531
0.00015465
0.000153222
0.00015031
0.000145946
0.000139459
0.000129694
0.000116111
9.88043e-05
8.0636e-05
6.52965e-05
5.63873e-05
5.51686e-05
6.04215e-05
6.62455e-05
6.80147e-05
6.66643e-05
6.31665e-05
5.84078e-05
5.29996e-05
4.54643e-05
3.26279e-05
1.57762e-05
5.22708e-06
1.25701e-06
2.2502e-07
2.78881e-07
4.97961e-06
0.000193618
0.000194315
2.21488e-05
2.95055e-05
3.86197e-05
4.94489e-05
5.84416e-05
6.57307e-05
7.4834e-05
8.5939e-05
9.65052e-05
0.000104639
0.000110441
0.00011586
0.000122341
0.000129371
0.000136183
0.000142085
0.000146439
0.000149312
0.000150688
0.000150354
0.000147906
0.000143559
0.000139201
0.000136256
0.000134722
0.000134662
0.000136035
0.000138292
0.000140735
0.000142696
0.000143623
0.000143282
0.000141439
0.000137876
0.00013247
0.000125063
0.000115467
0.000103356
8.86998e-05
7.36681e-05
6.12633e-05
5.38441e-05
5.21395e-05
5.46773e-05
5.80185e-05
5.87379e-05
5.81667e-05
5.78416e-05
5.82648e-05
5.82592e-05
5.40165e-05
4.01166e-05
2.0514e-05
7.23188e-06
1.82546e-06
3.39961e-07
3.02374e-07
4.96614e-06
0.000193595
0.000193966
2.03205e-05
2.8335e-05
3.47846e-05
4.01073e-05
4.61428e-05
5.38081e-05
6.37291e-05
7.67142e-05
8.98258e-05
9.8914e-05
0.000104058
0.000107721
0.000112126
0.000117009
0.000121661
0.000125505
0.000128049
0.000128744
0.00012749
0.000124973
0.000121475
0.00011733
0.000113552
0.000111126
0.000110512
0.000111372
0.00011249
0.000113346
0.000114038
0.00011455
0.0001143
0.000112477
0.000108878
0.00010375
9.76426e-05
9.10147e-05
8.3899e-05
7.60056e-05
6.74083e-05
5.88549e-05
5.16687e-05
4.72553e-05
4.59017e-05
4.667e-05
4.82041e-05
5.01068e-05
5.2784e-05
5.64581e-05
6.06799e-05
6.23882e-05
5.68039e-05
3.8979e-05
1.85809e-05
6.23262e-06
1.52189e-06
2.77391e-07
3.42216e-07
4.96734e-06
0.000193619
0.000195306
1.48279e-05
2.27406e-05
2.97346e-05
3.80649e-05
4.68211e-05
5.64879e-05
6.78993e-05
7.84584e-05
8.52119e-05
8.91792e-05
9.24124e-05
9.63788e-05
0.000101341
0.000106433
0.000109996
0.000112094
0.00011301
0.000112566
0.000110886
0.000108698
0.000106505
0.000104223
0.000102008
0.000100311
9.93179e-05
9.90364e-05
9.90156e-05
9.8865e-05
9.84586e-05
9.76485e-05
9.62151e-05
9.392e-05
9.07008e-05
8.66542e-05
8.19884e-05
7.69092e-05
7.15708e-05
6.61287e-05
6.07022e-05
5.55896e-05
5.15845e-05
4.94897e-05
4.95961e-05
5.15166e-05
5.36645e-05
5.44125e-05
5.47432e-05
5.58757e-05
5.83734e-05
5.96359e-05
5.3961e-05
3.6078e-05
1.6583e-05
5.39366e-06
1.28778e-06
2.31624e-07
3.50386e-07
4.96421e-06
0.000193625
0.000196178
1.09261e-05
1.83671e-05
2.61916e-05
3.62467e-05
4.58455e-05
5.07738e-05
5.40164e-05
5.40208e-05
5.02395e-05
4.62031e-05
4.73748e-05
5.27768e-05
5.99233e-05
6.83964e-05
7.62764e-05
8.01698e-05
8.14861e-05
8.10037e-05
8.01218e-05
8.06007e-05
8.17033e-05
8.16679e-05
8.1064e-05
8.08883e-05
8.22273e-05
8.51535e-05
8.87625e-05
9.19761e-05
9.39108e-05
9.39577e-05
9.23342e-05
8.95448e-05
8.55107e-05
8.03009e-05
7.44872e-05
6.88781e-05
6.3771e-05
5.93131e-05
5.56891e-05
5.30736e-05
5.20329e-05
5.26895e-05
5.44461e-05
5.59899e-05
5.6312e-05
5.53549e-05
5.37733e-05
5.25076e-05
5.20769e-05
5.07128e-05
4.34e-05
2.64857e-05
1.06662e-05
3.07595e-06
6.64013e-07
1.11645e-07
3.83967e-07
4.98356e-06
0.000193614
0.000196804
3.88654e-06
6.99159e-06
1.21276e-05
1.89409e-05
2.61571e-05
2.99226e-05
2.90194e-05
2.44718e-05
1.82254e-05
1.36815e-05
1.34586e-05
1.60914e-05
1.9684e-05
2.41115e-05
2.88502e-05
3.31072e-05
3.54904e-05
3.58535e-05
3.51214e-05
3.48003e-05
3.43078e-05
3.3193e-05
3.29599e-05
3.43945e-05
3.64855e-05
3.87667e-05
4.08046e-05
4.24113e-05
4.34706e-05
4.36806e-05
4.28779e-05
4.12037e-05
3.90967e-05
3.69667e-05
3.5255e-05
3.44002e-05
3.40201e-05
3.43012e-05
3.54504e-05
3.79839e-05
4.19018e-05
4.69427e-05
5.17627e-05
5.47063e-05
5.54033e-05
5.44396e-05
5.2293e-05
4.93376e-05
4.65443e-05
4.31083e-05
3.4826e-05
1.86811e-05
6.48168e-06
1.65184e-06
3.19354e-07
5.62758e-08
4.10136e-07
5.01695e-06
0.00019365
0.000196083
3.03505e-06
2.22312e-06
3.66723e-06
6.22489e-06
9.63645e-06
1.22492e-05
1.11556e-05
8.06515e-06
5.30678e-06
4.70314e-06
5.2743e-06
5.99646e-06
6.84069e-06
7.80277e-06
8.8871e-06
1.00306e-05
1.11692e-05
1.17826e-05
1.19876e-05
1.2337e-05
1.28758e-05
1.35649e-05
1.42307e-05
1.49469e-05
1.57207e-05
1.64963e-05
1.72305e-05
1.78959e-05
1.84686e-05
1.89752e-05
1.94959e-05
2.01239e-05
2.08563e-05
2.16111e-05
2.23098e-05
2.30032e-05
2.38272e-05
2.49049e-05
2.639e-05
2.85034e-05
3.14757e-05
3.5605e-05
4.01927e-05
4.29456e-05
4.38576e-05
4.42691e-05
4.46881e-05
4.40587e-05
4.17869e-05
3.71693e-05
2.74355e-05
1.23059e-05
3.57791e-06
8.06643e-07
1.47348e-07
7.40078e-08
4.27738e-07
5.04163e-06
0.000193683
0.00019582
1.35132e-05
5.62192e-06
1.78905e-06
1.87322e-06
2.78319e-06
3.75908e-06
3.42626e-06
2.66144e-06
3.36316e-06
5.32676e-06
6.16336e-06
6.74835e-06
7.30297e-06
7.79561e-06
8.19716e-06
8.50041e-06
8.70584e-06
9.29484e-06
1.0393e-05
1.15225e-05
1.24887e-05
1.31615e-05
1.37841e-05
1.44585e-05
1.51966e-05
1.59681e-05
1.67336e-05
1.74293e-05
1.79981e-05
1.84123e-05
1.86812e-05
1.88415e-05
1.89523e-05
1.90709e-05
1.925e-05
1.95736e-05
2.00857e-05
2.08445e-05
2.19552e-05
2.35489e-05
2.57266e-05
2.83829e-05
3.0662e-05
3.21864e-05
3.33548e-05
3.50201e-05
3.66473e-05
3.66786e-05
3.45601e-05
2.97555e-05
2.04622e-05
7.59588e-06
1.90362e-06
3.63017e-07
1.29943e-07
2.09992e-07
4.64388e-07
5.01745e-06
0.000193715
0.000195493
2.34134e-05
1.55171e-05
9.84056e-06
5.3883e-06
2.52245e-06
1.9678e-06
2.31263e-06
4.12141e-06
6.26491e-06
6.92223e-06
7.29791e-06
7.65556e-06
7.9886e-06
8.3222e-06
8.6857e-06
9.06974e-06
9.45825e-06
9.9271e-06
1.04403e-05
1.0885e-05
1.12952e-05
1.16882e-05
1.2084e-05
1.2478e-05
1.28782e-05
1.32677e-05
1.36267e-05
1.39198e-05
1.41278e-05
1.42439e-05
1.42958e-05
1.43278e-05
1.43776e-05
1.44687e-05
1.46222e-05
1.48767e-05
1.52681e-05
1.58492e-05
1.66776e-05
1.78001e-05
1.91934e-05
2.07035e-05
2.18274e-05
2.28823e-05
2.42988e-05
2.61814e-05
2.78747e-05
2.82361e-05
2.64923e-05
2.1394e-05
1.35524e-05
4.53536e-06
1.01365e-06
2.7431e-07
5.19174e-07
5.70453e-07
7.08738e-07
4.81365e-06
0.00019373
0.000195048
3.78962e-05
2.90914e-05
2.17593e-05
1.77871e-05
1.56588e-05
1.47307e-05
1.44559e-05
1.46324e-05
1.47806e-05
1.49151e-05
1.50048e-05
1.50687e-05
1.50781e-05
1.50232e-05
1.49616e-05
1.4945e-05
1.50238e-05
1.51405e-05
1.52784e-05
1.54135e-05
1.55568e-05
1.56443e-05
1.54948e-05
1.50788e-05
1.44732e-05
1.38158e-05
1.32343e-05
1.27729e-05
1.24371e-05
1.22071e-05
1.20441e-05
1.19095e-05
1.17909e-05
1.16896e-05
1.16044e-05
1.15395e-05
1.15151e-05
1.15783e-05
1.17903e-05
1.22149e-05
1.29061e-05
1.36363e-05
1.41308e-05
1.43972e-05
1.47652e-05
1.52961e-05
1.56781e-05
1.55748e-05
1.42462e-05
1.14835e-05
6.80522e-06
1.90395e-06
7.59174e-07
2.07517e-06
2.32199e-06
2.43596e-06
2.49415e-06
5.18969e-06
0.000193738
0.000194977
6.24615e-05
5.5194e-05
4.82953e-05
4.43032e-05
4.20252e-05
4.0891e-05
4.01159e-05
3.98194e-05
3.96865e-05
3.96352e-05
3.95097e-05
3.94105e-05
3.93698e-05
3.95591e-05
3.98974e-05
4.02632e-05
4.05284e-05
4.08009e-05
4.10415e-05
4.12177e-05
4.12913e-05
4.1215e-05
4.09801e-05
4.05077e-05
3.97778e-05
3.88103e-05
3.76e-05
3.61244e-05
3.44154e-05
3.26087e-05
3.08017e-05
2.89878e-05
2.71068e-05
2.51534e-05
2.31393e-05
2.10367e-05
1.8853e-05
1.66371e-05
1.4455e-05
1.24889e-05
1.09618e-05
9.97192e-06
9.37633e-06
8.98433e-06
8.59054e-06
8.01226e-06
7.18117e-06
6.56033e-06
6.07358e-06
4.96949e-06
2.67123e-06
2.75843e-06
9.94909e-06
1.12243e-05
1.14847e-05
1.19108e-05
1.18708e-05
1.36778e-05
0.000193759
9.69826e-05
9.70807e-05
9.72092e-05
9.7323e-05
9.73831e-05
9.74342e-05
9.74029e-05
9.73237e-05
9.72716e-05
9.72575e-05
9.72796e-05
9.73174e-05
9.73646e-05
9.73938e-05
9.74198e-05
9.74379e-05
9.74505e-05
9.74443e-05
9.74352e-05
9.74246e-05
9.74238e-05
9.74411e-05
9.74595e-05
9.74927e-05
9.75376e-05
9.75901e-05
9.76446e-05
9.76956e-05
9.77388e-05
9.77731e-05
9.77995e-05
9.782e-05
9.78375e-05
9.78547e-05
9.78747e-05
9.79016e-05
9.79402e-05
9.79999e-05
9.80921e-05
9.82251e-05
9.83876e-05
9.86791e-05
9.89623e-05
9.92795e-05
9.9604e-05
9.98517e-05
9.99838e-05
0.00010003
9.98885e-05
0.000100214
0.00010144
9.88815e-05
9.71819e-05
9.70101e-05
9.68394e-05
9.67385e-05
9.6665e-05
9.65916e-05
9.65845e-05
9.66125e-05
9.73356e-05
9.74565e-05
9.75106e-05
9.75479e-05
9.75704e-05
9.76007e-05
9.76282e-05
9.76506e-05
9.76732e-05
9.76914e-05
9.77109e-05
9.773e-05
9.77486e-05
9.77663e-05
9.778e-05
9.77901e-05
9.77976e-05
9.77999e-05
9.78037e-05
9.78048e-05
9.78092e-05
9.78206e-05
9.7843e-05
9.78784e-05
9.79237e-05
9.79736e-05
9.80224e-05
9.80666e-05
9.81037e-05
9.81327e-05
9.81537e-05
9.81677e-05
9.81768e-05
9.81843e-05
9.81945e-05
9.82117e-05
9.82406e-05
9.82898e-05
9.83717e-05
9.84978e-05
9.86622e-05
9.8933e-05
9.92361e-05
9.95339e-05
9.98465e-05
0.000100111
0.000100262
0.000100315
0.000100333
0.000100685
0.000102372
0.000100433
9.75993e-05
9.73439e-05
9.71721e-05
9.70724e-05
9.70083e-05
9.69378e-05
9.69343e-05
9.69476e-05
0.000194853
6.14711e-05
5.70229e-05
5.16181e-05
4.85579e-05
4.58574e-05
4.42541e-05
4.28531e-05
4.18588e-05
4.10242e-05
4.04408e-05
3.98777e-05
3.95883e-05
3.9399e-05
3.94008e-05
3.95031e-05
3.96689e-05
3.98181e-05
3.99201e-05
3.99199e-05
3.98169e-05
3.96025e-05
3.92387e-05
3.86742e-05
3.78667e-05
3.68269e-05
3.55435e-05
3.3989e-05
3.21634e-05
3.01841e-05
2.82298e-05
2.64011e-05
2.47508e-05
2.32836e-05
2.19437e-05
2.06284e-05
1.92358e-05
1.77091e-05
1.60694e-05
1.44053e-05
1.28454e-05
1.14407e-05
1.03335e-05
9.58205e-06
9.09867e-06
8.70639e-06
8.20911e-06
7.45349e-06
6.48377e-06
5.64863e-06
4.65335e-06
2.75697e-06
2.01476e-06
9.15159e-06
1.08797e-05
1.1102e-05
1.15968e-05
1.14905e-05
1.34267e-05
0.000193742
0.000195162
3.64615e-05
3.02372e-05
2.448e-05
2.16104e-05
1.91525e-05
1.78902e-05
1.68021e-05
1.61532e-05
1.56841e-05
1.53914e-05
1.51161e-05
1.49579e-05
1.47683e-05
1.45906e-05
1.44054e-05
1.42017e-05
1.40522e-05
1.39513e-05
1.38351e-05
1.36815e-05
1.34559e-05
1.30933e-05
1.25649e-05
1.18873e-05
1.11993e-05
1.06049e-05
1.01635e-05
9.87019e-06
9.7083e-06
9.64613e-06
9.64871e-06
9.69052e-06
9.7636e-06
9.86318e-06
9.98816e-06
1.01483e-05
1.03638e-05
1.06704e-05
1.10961e-05
1.16813e-05
1.24519e-05
1.32341e-05
1.38126e-05
1.41503e-05
1.44633e-05
1.46533e-05
1.44126e-05
1.35206e-05
1.19874e-05
9.94318e-06
6.53501e-06
1.9958e-06
6.56057e-07
1.85014e-06
2.12419e-06
2.24782e-06
2.2964e-06
5.06688e-06
0.000193722
0.000195132
2.21263e-05
1.60625e-05
1.16407e-05
9.75213e-06
8.20331e-06
7.52353e-06
6.93239e-06
6.67562e-06
6.55771e-06
6.57009e-06
6.63444e-06
6.78424e-06
6.97928e-06
7.22048e-06
7.49533e-06
7.77895e-06
8.05995e-06
8.32629e-06
8.57664e-06
8.79753e-06
9.00895e-06
9.21306e-06
9.42634e-06
9.65615e-06
9.91696e-06
1.02066e-05
1.05175e-05
1.08284e-05
1.11236e-05
1.13869e-05
1.1606e-05
1.17803e-05
1.19255e-05
1.20797e-05
1.23012e-05
1.26733e-05
1.32841e-05
1.42087e-05
1.55243e-05
1.73618e-05
1.97821e-05
2.27061e-05
2.49593e-05
2.54569e-05
2.44865e-05
2.36873e-05
2.32614e-05
2.27467e-05
2.16641e-05
1.89654e-05
1.31446e-05
4.95302e-06
1.05304e-06
2.24219e-07
3.53354e-07
4.40421e-07
6.13609e-07
4.83108e-06
0.000193702
0.000195176
1.31281e-05
7.81443e-06
4.75512e-06
4.02259e-06
3.78506e-06
3.93968e-06
4.18214e-06
4.51542e-06
4.88965e-06
5.30777e-06
5.75932e-06
6.25352e-06
6.78649e-06
7.35481e-06
7.94372e-06
8.54666e-06
9.13473e-06
9.75005e-06
1.03801e-05
1.09555e-05
1.14659e-05
1.19358e-05
1.24173e-05
1.29295e-05
1.34833e-05
1.4061e-05
1.46327e-05
1.5149e-05
1.55647e-05
1.58672e-05
1.60672e-05
1.61791e-05
1.62278e-05
1.62691e-05
1.63866e-05
1.66946e-05
1.73387e-05
1.84946e-05
2.03766e-05
2.32877e-05
2.73602e-05
3.23852e-05
3.71347e-05
3.82259e-05
3.5364e-05
3.1835e-05
3.13466e-05
3.22584e-05
3.14611e-05
2.83599e-05
2.19537e-05
1.00934e-05
2.57248e-06
5.07887e-07
8.90981e-08
7.52282e-08
4.23411e-07
5.03703e-06
0.000193693
0.000195251
4.35688e-06
2.40993e-06
2.15157e-06
2.3931e-06
2.71648e-06
3.10085e-06
3.53199e-06
4.02853e-06
4.58013e-06
5.20491e-06
5.9031e-06
6.66422e-06
7.46043e-06
8.24708e-06
8.97833e-06
9.65885e-06
1.03064e-05
1.10029e-05
1.17021e-05
1.24542e-05
1.32398e-05
1.39771e-05
1.46938e-05
1.53857e-05
1.60226e-05
1.66024e-05
1.71644e-05
1.77098e-05
1.81556e-05
1.8472e-05
1.87384e-05
1.90434e-05
1.93658e-05
1.9639e-05
1.99062e-05
2.02364e-05
2.08509e-05
2.20182e-05
2.40265e-05
2.72953e-05
3.20828e-05
3.87491e-05
4.58715e-05
4.87846e-05
4.57994e-05
4.12098e-05
3.8523e-05
3.84348e-05
3.81586e-05
3.5424e-05
2.86396e-05
1.5826e-05
4.78402e-06
1.08905e-06
1.85484e-07
3.40438e-08
4.18459e-07
5.05614e-06
0.000193682
0.000195334
2.24628e-06
2.54039e-06
3.02582e-06
3.60782e-06
4.31186e-06
5.16989e-06
6.19722e-06
7.44535e-06
8.91496e-06
1.06848e-05
1.28296e-05
1.53193e-05
1.80956e-05
2.08041e-05
2.30851e-05
2.51758e-05
2.72028e-05
2.90836e-05
2.99427e-05
3.09907e-05
3.26161e-05
3.49154e-05
3.7569e-05
4.03938e-05
4.29596e-05
4.48338e-05
4.60672e-05
4.69628e-05
4.75556e-05
4.72447e-05
4.56876e-05
4.31528e-05
4.02508e-05
3.7482e-05
3.40133e-05
3.1168e-05
3.00248e-05
3.01212e-05
3.13671e-05
3.42944e-05
3.91733e-05
4.63027e-05
5.39179e-05
5.87345e-05
5.82748e-05
5.47403e-05
5.084e-05
4.74653e-05
4.34016e-05
3.89281e-05
3.24079e-05
2.02607e-05
7.26874e-06
1.79533e-06
3.2972e-07
5.04343e-08
4.08683e-07
5.03314e-06
0.000193664
0.000195156
4.51835e-06
5.80718e-06
7.25998e-06
8.82665e-06
1.0889e-05
1.35279e-05
1.68218e-05
2.08699e-05
2.55662e-05
3.10557e-05
3.76882e-05
4.49466e-05
5.27372e-05
5.98255e-05
6.46848e-05
6.87256e-05
7.30543e-05
7.58478e-05
7.72519e-05
7.86307e-05
8.00007e-05
8.24783e-05
8.62455e-05
9.10341e-05
9.62133e-05
0.000100618
0.000103678
0.000105811
0.000107684
0.000108791
0.000108393
0.000106188
0.000102141
9.55991e-05
8.68588e-05
7.72478e-05
6.734e-05
5.86429e-05
5.28381e-05
5.15839e-05
5.2604e-05
5.61498e-05
6.14983e-05
6.56599e-05
6.5621e-05
6.23723e-05
5.76701e-05
5.2542e-05
4.74916e-05
4.32367e-05
3.73699e-05
2.50333e-05
1.03871e-05
2.91481e-06
6.00469e-07
9.59183e-08
3.83836e-07
5.00224e-06
0.000193613
0.000195944
1.24291e-05
1.52742e-05
2.00594e-05
2.40741e-05
2.89373e-05
3.43689e-05
4.06869e-05
4.75809e-05
5.46229e-05
6.21514e-05
7.23838e-05
8.22235e-05
9.17697e-05
9.93244e-05
0.000103915
0.00010722
0.00011067
0.000113528
0.00011522
0.00011607
0.000116558
0.00011703
0.000118472
0.000121138
0.000124631
0.000128265
0.000131572
0.000134224
0.000135906
0.00013637
0.000135719
0.000133848
0.000130393
0.00012544
0.000119428
0.000112236
0.000103446
9.30436e-05
8.24092e-05
7.31222e-05
6.62914e-05
6.19972e-05
6.09917e-05
6.31389e-05
6.43406e-05
6.17879e-05
5.68973e-05
5.19597e-05
4.87094e-05
4.7367e-05
4.37764e-05
3.10432e-05
1.43179e-05
4.53207e-06
1.04607e-06
1.82478e-07
3.47285e-07
4.97062e-06
0.000193573
0.000194956
2.15055e-05
2.9494e-05
3.9779e-05
4.7648e-05
5.56842e-05
6.2573e-05
6.76263e-05
7.12999e-05
7.48886e-05
7.85923e-05
8.2696e-05
8.71303e-05
9.15453e-05
9.58622e-05
9.98632e-05
0.000103293
0.000106059
0.000108236
0.000109774
0.000110711
0.000111055
0.000111185
0.000111744
0.000112849
0.000114293
0.000115761
0.000116972
0.000117668
0.00011764
0.000116882
0.000115433
0.000113281
0.000110295
0.000106436
0.00010179
9.61606e-05
8.95791e-05
8.23451e-05
7.47817e-05
6.74959e-05
6.14679e-05
5.72118e-05
5.50662e-05
5.53407e-05
5.62732e-05
5.56374e-05
5.43785e-05
5.39523e-05
5.63014e-05
6.0324e-05
5.9689e-05
4.48045e-05
2.21018e-05
7.5572e-06
1.87998e-06
3.49557e-07
3.14703e-07
4.95158e-06
0.00019359
0.000195
1.70138e-05
3.34689e-05
4.9637e-05
5.79292e-05
6.54406e-05
7.20417e-05
7.70811e-05
7.99776e-05
8.12189e-05
8.23931e-05
8.44935e-05
8.72015e-05
9.01576e-05
9.30469e-05
9.53712e-05
9.67716e-05
9.73785e-05
9.74215e-05
9.68555e-05
9.56288e-05
9.38042e-05
9.17329e-05
9.00059e-05
8.91381e-05
8.95087e-05
9.08656e-05
9.28644e-05
9.52325e-05
9.76281e-05
9.96741e-05
0.000101136
0.000101648
0.000100829
9.85156e-05
9.4531e-05
8.88419e-05
8.15762e-05
7.34334e-05
6.52191e-05
5.75846e-05
5.13095e-05
4.70449e-05
4.4914e-05
4.48138e-05
4.60648e-05
4.78251e-05
5.11707e-05
5.72379e-05
6.52602e-05
7.10668e-05
6.83637e-05
4.87201e-05
2.33065e-05
7.88561e-06
1.95694e-06
3.63191e-07
3.2667e-07
4.95832e-06
0.000193602
0.000194176
3.29872e-05
3.15234e-05
4.77048e-05
5.95829e-05
6.89245e-05
7.89567e-05
8.7334e-05
9.2702e-05
9.61506e-05
9.87483e-05
0.000101139
0.000103621
0.000105914
0.000107966
0.000109481
0.000110183
0.000110153
0.000109442
0.000107936
0.000105617
0.000102814
0.000100105
9.8134e-05
9.73593e-05
9.78608e-05
9.92783e-05
0.000101365
0.00010381
0.000106174
0.000108078
0.000109263
0.000109493
0.000108259
0.000104867
9.89214e-05
9.04354e-05
8.00655e-05
6.89877e-05
5.86752e-05
5.01389e-05
4.40679e-05
4.08535e-05
3.9971e-05
4.07048e-05
4.25852e-05
4.60143e-05
5.12404e-05
5.83724e-05
6.622e-05
7.04669e-05
6.58389e-05
4.60071e-05
2.21003e-05
7.51253e-06
1.86784e-06
3.46289e-07
3.32829e-07
4.95922e-06
0.000193615
0.00019439
1.97518e-05
2.92029e-05
4.00354e-05
5.0218e-05
6.05205e-05
7.10695e-05
8.17316e-05
9.02733e-05
9.49671e-05
9.7215e-05
9.93528e-05
0.000102256
0.000105423
0.00010847
0.000111118
0.000113146
0.000114227
0.000114273
0.000113349
0.000111512
0.000108954
0.000106149
0.000103897
0.000102917
0.000103415
0.000105087
0.000107618
0.00011058
0.000113476
0.00011586
0.000117473
0.00011807
0.000117154
0.000113915
0.000107926
9.89633e-05
8.73681e-05
7.43869e-05
6.199e-05
5.16373e-05
4.41549e-05
4.02543e-05
3.91251e-05
3.98407e-05
4.17768e-05
4.5e-05
4.97699e-05
5.62168e-05
6.36953e-05
6.82644e-05
6.43184e-05
4.54898e-05
2.20162e-05
7.50952e-06
1.86696e-06
3.45556e-07
3.26072e-07
4.96021e-06
0.000193612
0.000194043
1.60365e-05
3.10562e-05
4.26124e-05
5.20316e-05
5.9362e-05
6.45268e-05
6.83166e-05
7.11997e-05
7.40962e-05
7.68553e-05
7.9928e-05
8.37647e-05
8.82817e-05
9.32957e-05
9.86315e-05
0.000103999
0.000108856
0.000112537
0.000114436
0.000114253
0.000112459
0.000110443
0.000109194
0.000109037
0.000110119
0.000112232
0.000115182
0.000118563
0.000121877
0.000124533
0.000126211
0.000126869
0.00012648
0.000124691
0.000120914
0.000114618
0.000105504
9.38853e-05
8.07742e-05
6.83038e-05
5.76927e-05
5.00031e-05
4.58555e-05
4.54854e-05
4.72966e-05
4.94658e-05
5.23026e-05
5.60622e-05
6.06299e-05
6.3838e-05
6.10638e-05
4.60275e-05
2.27918e-05
7.81504e-06
1.9407e-06
3.5841e-07
3.05582e-07
4.96139e-06
0.000193599
0.000194606
2.74476e-05
3.81134e-05
4.56848e-05
5.29009e-05
6.01031e-05
6.52191e-05
6.93324e-05
7.37699e-05
7.85493e-05
8.38242e-05
8.96564e-05
9.59132e-05
0.000102452
0.000109316
0.000116213
0.000122877
0.000128578
0.000132789
0.000135179
0.000135301
0.000133518
0.000131482
0.000130389
0.000130132
0.000130891
0.000132727
0.00013528
0.000138001
0.000140185
0.000141029
0.000140289
0.000137824
0.000132903
0.00012445
0.00011293
0.00010079
8.90798e-05
7.72893e-05
6.54328e-05
5.48237e-05
4.68422e-05
4.25422e-05
4.2786e-05
4.74594e-05
5.38207e-05
5.72014e-05
5.78395e-05
5.78363e-05
5.78214e-05
5.70731e-05
5.27275e-05
4.00497e-05
2.00625e-05
6.81428e-06
1.66757e-06
3.04064e-07
2.87869e-07
4.96384e-06
0.00019358
0.000194689
2.85957e-05
3.14776e-05
3.74836e-05
4.66196e-05
5.59385e-05
6.56384e-05
7.35674e-05
8.47832e-05
9.44187e-05
0.000103605
0.000113008
0.000122246
0.000131056
0.000138709
0.000144474
0.000148105
0.000149659
0.00014976
0.000148323
0.000145263
0.000141482
0.000138018
0.000136212
0.000136475
0.000138544
0.000141753
0.000145239
0.000147921
0.000148556
0.000146286
0.000141103
0.00013314
0.000121917
0.000107269
9.13456e-05
7.71726e-05
6.55905e-05
5.598e-05
4.81374e-05
4.27323e-05
4.05183e-05
4.21784e-05
4.78292e-05
5.64848e-05
6.44432e-05
6.67845e-05
6.5226e-05
6.18529e-05
5.77532e-05
5.28356e-05
4.49202e-05
3.04959e-05
1.31869e-05
3.93318e-06
8.65679e-07
1.45101e-07
3.39551e-07
4.98803e-06
0.000193627
0.000195135
2.17776e-05
3.0085e-05
4.10084e-05
5.30278e-05
6.7129e-05
7.73512e-05
8.61343e-05
9.42532e-05
0.000101679
0.000110034
0.000118777
0.000127898
0.000137031
0.000144883
0.000151146
0.000155622
0.000157635
0.000158148
0.000157315
0.000155218
0.000152435
0.000149894
0.000149224
0.000149957
0.000151575
0.000153795
0.000156287
0.000157894
0.000157525
0.000154746
0.000149672
0.000142341
0.000132077
0.000117867
9.80848e-05
7.6027e-05
5.96455e-05
5.14385e-05
4.76267e-05
4.64323e-05
4.76302e-05
5.13265e-05
5.75546e-05
6.40412e-05
6.767e-05
6.83314e-05
6.70296e-05
6.38563e-05
5.9223e-05