/*--------------------------------*- C++ -*----------------------------------*\
| =========                 |                                                 |
| \\      /  F ield         | OpenFOAM: The Open Source CFD Toolbox           |
|  \\    /   O peration     | Version:  2.1.1                                 |
|   \\  /    A nd           | Web:      www.OpenFOAM.org                      |
|    \\/     M anipulation  |                                                 |
\*---------------------------------------------------------------------------*/
FoamFile
{
    version     2.0;
    format      ascii;
    class       volScalarField;
    location    "0.00115";
    object      nut;
}
// * * * * * * * * * * * * * * * * * * * * * * * * * * * * * * * * * * * * * //

dimensions      [0 2 -1 0 0 0 0];

internalField   nonuniform List<scalar> 
36520
(
7.68336e-06
1.09164e-05
1.3978e-05
1.49213e-05
1.56319e-05
1.5764e-05
1.57621e-05
1.56729e-05
1.56758e-05
1.56901e-05
1.56341e-05
1.55018e-05
1.52645e-05
1.4966e-05
1.46085e-05
1.42176e-05
1.37989e-05
1.33765e-05
1.29407e-05
1.25078e-05
1.20583e-05
1.15997e-05
1.11141e-05
1.06054e-05
1.00675e-05
9.51136e-06
8.9388e-06
8.36103e-06
7.78467e-06
7.22233e-06
6.68224e-06
6.17563e-06
5.70945e-06
5.28967e-06
4.91886e-06
4.59747e-06
4.32196e-06
4.0866e-06
3.88326e-06
3.70108e-06
3.52731e-06
3.34833e-06
3.15896e-06
2.96861e-06
2.79242e-06
2.57602e-06
2.30475e-06
1.98425e-06
1.65871e-06
1.29291e-06
8.19013e-07
4.72062e-07
4.06811e-07
3.7952e-07
3.68132e-07
3.52688e-07
3.53941e-07
3.45383e-07
3.52195e-07
3.75709e-07
1.16662e-05
4.07338e-06
4.10198e-06
3.45857e-06
2.93062e-06
2.51094e-06
2.35074e-06
2.28157e-06
2.26716e-06
2.24807e-06
2.21886e-06
2.16439e-06
2.09174e-06
2.01751e-06
1.95108e-06
1.90071e-06
1.85697e-06
1.81924e-06
1.77906e-06
1.7338e-06
1.67641e-06
1.60599e-06
1.51405e-06
1.40217e-06
1.27722e-06
1.14714e-06
1.01435e-06
8.83049e-07
7.61627e-07
6.5421e-07
5.63765e-07
4.92713e-07
4.4243e-07
4.11965e-07
3.98784e-07
3.97032e-07
3.97936e-07
3.96102e-07
3.8929e-07
3.7533e-07
3.53942e-07
3.2795e-07
3.04292e-07
2.92393e-07
2.94e-07
3.05082e-07
3.26956e-07
3.49509e-07
3.48984e-07
2.53466e-07
1.12138e-07
1.49913e-08
6.01862e-09
1.66824e-08
1.92129e-08
1.96878e-08
2.09197e-08
2.06855e-08
2.57929e-08
6.3807e-07
7.84415e-06
1.3259e-06
1.10219e-06
7.52757e-07
5.24177e-07
3.76354e-07
3.22869e-07
3.09543e-07
3.12472e-07
3.13101e-07
3.11409e-07
3.06498e-07
2.96474e-07
2.8546e-07
2.75555e-07
2.69403e-07
2.65595e-07
2.63827e-07
2.62964e-07
2.60507e-07
2.55148e-07
2.46056e-07
2.3131e-07
2.11427e-07
1.89213e-07
1.67557e-07
1.48252e-07
1.32787e-07
1.22974e-07
1.18444e-07
1.18246e-07
1.2171e-07
1.28353e-07
1.37931e-07
1.50542e-07
1.66247e-07
1.85237e-07
2.0787e-07
2.34905e-07
2.67262e-07
3.06561e-07
3.55187e-07
4.17342e-07
4.99696e-07
6.11385e-07
7.60762e-07
9.48616e-07
1.11897e-06
1.13625e-06
8.28301e-07
3.96439e-07
7.52064e-08
4.2598e-09
9.57495e-10
1.71067e-09
1.65771e-09
1.65441e-09
1.62694e-09
4.71445e-09
5.79554e-07
5.52986e-06
4.47827e-07
3.01504e-07
1.59469e-07
6.82585e-08
2.58317e-08
1.94188e-08
2.21595e-08
4.50088e-08
6.03163e-08
6.34925e-08
6.52404e-08
6.57996e-08
6.6782e-08
6.90625e-08
7.32006e-08
7.85655e-08
8.48642e-08
9.17608e-08
9.91738e-08
1.07067e-07
1.15614e-07
1.24868e-07
1.35413e-07
1.47871e-07
1.6276e-07
1.80024e-07
1.99549e-07
2.20186e-07
2.40672e-07
2.60106e-07
2.78347e-07
2.95899e-07
3.14441e-07
3.3381e-07
3.54939e-07
3.81855e-07
4.17388e-07
4.65398e-07
5.29912e-07
6.16945e-07
7.31918e-07
8.80712e-07
1.07024e-06
1.30492e-06
1.60686e-06
2.07362e-06
2.52558e-06
2.51016e-06
1.99867e-06
1.04136e-06
2.80262e-07
2.13551e-08
8.97936e-10
1.23164e-10
1.49222e-10
1.26779e-10
1.57433e-10
3.3526e-09
5.6781e-07
4.00992e-06
1.3102e-07
4.54012e-08
1.60336e-08
2.06829e-08
4.17674e-08
8.34645e-08
6.06475e-08
2.4534e-08
2.70139e-08
3.55143e-08
4.30986e-08
5.25079e-08
6.41029e-08
7.86278e-08
9.72243e-08
1.2098e-07
1.48162e-07
1.77513e-07
2.10304e-07
2.48785e-07
2.95397e-07
3.53069e-07
4.26046e-07
5.17998e-07
6.32705e-07
7.71556e-07
9.35671e-07
1.11015e-06
1.27817e-06
1.43211e-06
1.5738e-06
1.69259e-06
1.63523e-06
1.42603e-06
1.19113e-06
1.04975e-06
1.03309e-06
1.08094e-06
1.17052e-06
1.3151e-06
1.52384e-06
1.81377e-06
2.20464e-06
2.66902e-06
3.13681e-06
3.88036e-06
4.62692e-06
4.45842e-06
3.67011e-06
2.27041e-06
7.83724e-07
8.88769e-08
4.85902e-09
1.69835e-10
1.3631e-11
1.21697e-11
5.5804e-11
3.42634e-09
5.65258e-07
3.10799e-06
1.98174e-08
3.04573e-08
8.51919e-08
2.2662e-07
4.97762e-07
8.94978e-07
6.84857e-07
2.38657e-07
9.71798e-08
9.22786e-08
1.15432e-07
1.47646e-07
1.90838e-07
2.44714e-07
3.1364e-07
4.11163e-07
5.45504e-07
6.99516e-07
8.76187e-07
1.08867e-06
1.35792e-06
1.748e-06
2.28487e-06
3.00003e-06
3.91714e-06
5.05872e-06
6.53776e-06
8.24581e-06
9.89215e-06
1.12469e-05
1.21471e-05
1.19924e-05
1.08355e-05
9.02709e-06
7.0755e-06
5.38541e-06
4.20037e-06
3.56793e-06
3.35713e-06
3.43489e-06
3.67407e-06
4.08073e-06
4.84579e-06
5.66739e-06
6.37517e-06
7.09274e-06
7.36965e-06
6.87739e-06
5.83797e-06
4.06491e-06
1.74512e-06
2.95908e-07
2.27284e-08
1.10405e-09
3.25499e-11
1.48023e-12
4.68928e-11
3.42154e-09
5.64175e-07
3.84733e-06
1.15252e-07
3.85363e-07
1.12227e-06
2.61577e-06
4.90355e-06
7.0922e-06
5.75113e-06
2.83529e-06
1.27045e-06
9.41447e-07
1.18362e-06
1.56562e-06
2.08598e-06
2.64739e-06
3.17085e-06
3.8607e-06
4.60917e-06
5.44885e-06
6.25087e-06
6.99127e-06
7.62826e-06
8.56592e-06
1.04514e-05
1.33946e-05
1.68355e-05
2.01329e-05
2.38491e-05
2.81408e-05
3.23207e-05
3.53958e-05
3.68974e-05
3.69841e-05
3.52065e-05
3.15687e-05
2.6785e-05
2.17471e-05
1.721e-05
1.35987e-05
1.07472e-05
8.87148e-06
7.95544e-06
7.71015e-06
8.00603e-06
8.52244e-06
8.94462e-06
9.24361e-06
9.03461e-06
8.17384e-06
7.02111e-06
5.6474e-06
3.23181e-06
8.14841e-07
8.70451e-08
5.33644e-09
1.90655e-10
4.60119e-12
4.52079e-11
3.38876e-09
5.6295e-07
1.12496e-05
1.15079e-06
3.1299e-06
7.66051e-06
1.53864e-05
2.39704e-05
3.0001e-05
2.88379e-05
2.12231e-05
1.38203e-05
1.23421e-05
1.51865e-05
1.93942e-05
2.48034e-05
2.95575e-05
3.21807e-05
3.25274e-05
3.21315e-05
3.19374e-05
3.29633e-05
3.46184e-05
3.63778e-05
3.81958e-05
4.0346e-05
4.35033e-05
4.77602e-05
5.22677e-05
5.63934e-05
5.9849e-05
6.22321e-05
6.31261e-05
6.27359e-05
6.13677e-05
5.89974e-05
5.53161e-05
5.01609e-05
4.39189e-05
3.72987e-05
3.10889e-05
2.55721e-05
2.08884e-05
1.69429e-05
1.41176e-05
1.29842e-05
1.24554e-05
1.13712e-05
1.01346e-05
9.11603e-06
8.09625e-06
7.14268e-06
6.22468e-06
4.30552e-06
1.5785e-06
2.37439e-07
1.87255e-08
8.32765e-10
2.22042e-11
4.21086e-11
3.34911e-09
5.61242e-07
1.52521e-05
1.57967e-06
3.73401e-06
6.75017e-06
1.10572e-05
1.53643e-05
1.87783e-05
2.24867e-05
2.60794e-05
2.97635e-05
3.38816e-05
3.92483e-05
4.56349e-05
5.26492e-05
5.95321e-05
6.44036e-05
6.59264e-05
6.49605e-05
6.35657e-05
6.2799e-05
6.20593e-05
6.08678e-05
5.94721e-05
5.83364e-05
5.77609e-05
5.79308e-05
5.84906e-05
5.90114e-05
5.9321e-05
5.94124e-05
5.91506e-05
5.82928e-05
5.68531e-05
5.48582e-05
5.21587e-05
4.87038e-05
4.45194e-05
3.98735e-05
3.52039e-05
3.0905e-05
2.71461e-05
2.38422e-05
2.05816e-05
1.75683e-05
1.5497e-05
1.38541e-05
1.1795e-05
9.67946e-06
8.03285e-06
7.11681e-06
6.7256e-06
5.48421e-06
2.71803e-06
5.80353e-07
6.05557e-08
3.37581e-09
1.06967e-10
3.76923e-11
3.31799e-09
5.59986e-07
1.43011e-05
1.38667e-06
3.56388e-06
6.01421e-06
9.93344e-06
1.44042e-05
1.87311e-05
2.23823e-05
2.48383e-05
2.62861e-05
2.7427e-05
2.92379e-05
3.26012e-05
3.73778e-05
4.33842e-05
4.98672e-05
5.58967e-05
6.16272e-05
6.77754e-05
7.39207e-05
7.84657e-05
7.91552e-05
7.6091e-05
7.20777e-05
6.91494e-05
6.76252e-05
6.6711e-05
6.61054e-05
6.5978e-05
6.61392e-05
6.60787e-05
6.53336e-05
6.36128e-05
6.08939e-05
5.70776e-05
5.23528e-05
4.69657e-05
4.10318e-05
3.45653e-05
2.78002e-05
2.14956e-05
1.63895e-05
1.30621e-05
1.1029e-05
9.5457e-06
8.32755e-06
7.53342e-06
7.00328e-06
6.71939e-06
6.89253e-06
7.13623e-06
6.0042e-06
3.00693e-06
6.66273e-07
7.30976e-08
4.26393e-09
1.39462e-10
3.75587e-11
3.31658e-09
5.60066e-07
1.21844e-05
1.13117e-06
4.62511e-06
9.14546e-06
1.48407e-05
2.37951e-05
3.40432e-05
4.29084e-05
5.04852e-05
5.60076e-05
5.97715e-05
6.31349e-05
6.76195e-05
7.52138e-05
8.52513e-05
9.55147e-05
0.000104872
0.000114184
0.000124301
0.000134922
0.000142924
0.000143628
0.000136194
0.000127382
0.000121637
0.000119319
0.000119581
0.000121457
0.000124571
0.000127795
0.000129884
0.000129981
0.000127823
0.000123545
0.000117197
0.000108595
9.75487e-05
8.40929e-05
6.85958e-05
5.12921e-05
3.50983e-05
2.30892e-05
1.56964e-05
1.19409e-05
1.01993e-05
9.10813e-06
8.26997e-06
7.60294e-06
7.02436e-06
6.7369e-06
6.60372e-06
5.48289e-06
2.78346e-06
6.50998e-07
7.4711e-08
4.49155e-09
1.49239e-10
3.53513e-11
3.31681e-09
5.5966e-07
1.14289e-05
1.50608e-06
4.19179e-06
9.54763e-06
1.90652e-05
3.54303e-05
4.96208e-05
6.22766e-05
7.41729e-05
8.32235e-05
9.08002e-05
0.00010002
0.0001141
0.000130176
0.000145996
0.000159721
0.000169381
0.000176799
0.000183336
0.000187936
0.000187814
0.000181031
0.000168113
0.000151831
0.000139768
0.000135776
0.000138518
0.000144944
0.000152231
0.000158378
0.000162036
0.000162959
0.000161973
0.000159088
0.000153511
0.000144119
0.000130548
0.000112489
8.97381e-05
6.47991e-05
4.19035e-05
2.49201e-05
1.5799e-05
1.25587e-05
1.22988e-05
1.25218e-05
1.20143e-05
1.15463e-05
1.04492e-05
8.88666e-06
7.23896e-06
5.19485e-06
2.41277e-06
4.99814e-07
4.91632e-08
2.6039e-09
7.78641e-11
3.27561e-11
3.33474e-09
5.60287e-07
1.31065e-05
1.90834e-06
3.53776e-06
8.55099e-06
1.81914e-05
3.37248e-05
4.61363e-05
6.02961e-05
7.45979e-05
8.55305e-05
9.57412e-05
0.000106554
0.000120198
0.000136862
0.00015415
0.000170055
0.000181954
0.00018908
0.00019328
0.000194264
0.000190874
0.000181452
0.000166968
0.000151581
0.000140073
0.000134257
0.000133289
0.000137512
0.000145021
0.00015205
0.000156583
0.000158479
0.000157599
0.000153459
0.000145699
0.000134477
0.000119645
0.000100494
7.79721e-05
5.44859e-05
3.46941e-05
2.13734e-05
1.46455e-05
1.28884e-05
1.48016e-05
1.72907e-05
1.72572e-05
1.5509e-05
1.29438e-05
1.02357e-05
7.86987e-06
5.41427e-06
2.43975e-06
4.89529e-07
4.75244e-08
2.50851e-09
7.50618e-11
3.2592e-11
3.33316e-09
5.60215e-07
1.27662e-05
2.25571e-06
5.45313e-06
1.01509e-05
1.72909e-05
2.43191e-05
3.13991e-05
4.22685e-05
5.7675e-05
7.08949e-05
7.71776e-05
8.12719e-05
8.72225e-05
9.65093e-05
0.000107779
0.000119178
0.000129312
0.000136877
0.000142224
0.000146153
0.000147948
0.000143356
0.0001313
0.000118651
0.000110104
0.000105731
0.000104792
0.000106207
0.000109123
0.000112643
0.000115466
0.000116202
0.000114417
0.000110034
0.000103012
9.3722e-05
8.26554e-05
7.00743e-05
5.59526e-05
4.08311e-05
2.73511e-05
1.78906e-05
1.26933e-05
1.07854e-05
1.09452e-05
1.14724e-05
1.09038e-05
9.78848e-06
8.73592e-06
8.01521e-06
7.44017e-06
5.6102e-06
2.49143e-06
5.486e-07
6.15905e-08
3.67958e-09
1.22147e-10
3.59583e-11
3.32035e-09
5.59983e-07
1.35415e-05
1.71005e-06
4.98569e-06
8.04296e-06
1.06486e-05
1.42639e-05
2.02238e-05
3.0907e-05
4.90865e-05
6.79626e-05
7.58407e-05
7.69176e-05
7.93074e-05
8.43101e-05
9.10951e-05
9.83906e-05
0.000104683
0.000108966
0.000109954
0.000106668
0.000100628
9.31784e-05
8.55803e-05
7.93942e-05
7.49705e-05
7.2483e-05
7.20694e-05
7.25913e-05
7.30133e-05
7.3274e-05
7.34439e-05
7.26567e-05
6.97835e-05
6.44872e-05
5.72999e-05
4.95135e-05
4.2061e-05
3.51452e-05
2.84807e-05
2.20277e-05
1.62459e-05
1.18226e-05
9.08328e-06
7.73559e-06
7.23143e-06
6.98643e-06
6.81724e-06
6.77825e-06
6.89606e-06
7.21358e-06
7.1257e-06
5.05099e-06
1.91233e-06
3.79565e-07
3.99438e-08
2.29186e-09
7.42062e-11
3.92133e-11
3.32507e-09
5.6063e-07
1.22789e-05
9.96792e-07
3.12263e-06
5.95847e-06
1.09019e-05
1.83765e-05
2.88609e-05
4.26294e-05
5.36592e-05
5.6772e-05
5.75236e-05
6.05612e-05
6.54128e-05
7.21051e-05
7.94644e-05
8.45288e-05
8.71637e-05
8.76098e-05
8.58341e-05
8.21648e-05
7.77163e-05
7.38861e-05
7.0624e-05
6.72173e-05
6.39336e-05
6.12142e-05
5.94398e-05
5.82015e-05
5.68752e-05
5.51996e-05
5.30146e-05
5.01819e-05
4.66613e-05
4.25614e-05
3.80619e-05
3.33823e-05
2.87804e-05
2.44273e-05
2.04219e-05
1.67843e-05
1.35438e-05
1.09877e-05
9.37583e-06
8.73342e-06
8.94177e-06
9.23265e-06
8.83979e-06
8.09041e-06
7.46168e-06
7.2384e-06
6.94277e-06
4.84688e-06
1.75008e-06
3.22967e-07
3.17614e-08
1.73194e-09
5.43086e-11
3.96781e-11
3.32351e-09
5.6054e-07
8.84729e-06
6.75817e-07
2.20347e-06
4.87353e-06
9.89196e-06
1.71346e-05
2.16565e-05
2.35042e-05
2.17605e-05
1.70639e-05
1.3049e-05
1.2682e-05
1.55084e-05
2.02657e-05
2.69912e-05
3.44897e-05
3.86975e-05
4.04288e-05
4.01526e-05
3.86695e-05
3.797e-05
3.81725e-05
3.80295e-05
3.73241e-05
3.70339e-05
3.83101e-05
4.14382e-05
4.54641e-05
4.90145e-05
5.10973e-05
5.11451e-05
4.94682e-05
4.66887e-05
4.26318e-05
3.7264e-05
3.13503e-05
2.59092e-05
2.13501e-05
1.78321e-05
1.52665e-05
1.33898e-05
1.23203e-05
1.21069e-05
1.24571e-05
1.26673e-05
1.21196e-05
1.08075e-05
9.20734e-06
7.85477e-06
6.91053e-06
6.03422e-06
3.8586e-06
1.19147e-06
1.66329e-07
1.2627e-08
5.54593e-10
1.49102e-11
4.2531e-11
3.34562e-09
5.60795e-07
3.6292e-06
7.48193e-08
2.64424e-07
8.45587e-07
2.24691e-06
4.71507e-06
6.57483e-06
6.01555e-06
4.01987e-06
2.03111e-06
1.00076e-06
8.72622e-07
1.22324e-06
1.81855e-06
2.75308e-06
4.03742e-06
5.53005e-06
6.5409e-06
6.71451e-06
6.3212e-06
6.04993e-06
5.76721e-06
5.25427e-06
5.06936e-06
5.58694e-06
6.41829e-06
7.41377e-06
8.39057e-06
9.22739e-06
9.84918e-06
1.00637e-05
9.74185e-06
8.95939e-06
7.94581e-06
6.91471e-06
6.07869e-06
5.64227e-06
5.44085e-06
5.53766e-06
5.93054e-06
6.84731e-06
8.42252e-06
1.06717e-05
1.29638e-05
1.42631e-05
1.41135e-05
1.28564e-05
1.09866e-05
8.88321e-06
7.02374e-06
5.36319e-06
2.9113e-06
6.57926e-07
6.6183e-08
3.90646e-09
1.37188e-10
3.7376e-12
4.58891e-11
3.39088e-09
5.62871e-07
3.80937e-06
2.28698e-08
2.34931e-08
7.42312e-08
2.31868e-07
5.86613e-07
9.9645e-07
8.10859e-07
3.98647e-07
1.47298e-07
8.4842e-08
9.50902e-08
1.22667e-07
1.61637e-07
2.1611e-07
2.90596e-07
3.85492e-07
5.0257e-07
5.63703e-07
5.52922e-07
5.43442e-07
5.4552e-07
5.75408e-07
6.3929e-07
7.18233e-07
8.11798e-07
9.11886e-07
1.00863e-06
1.09351e-06
1.15954e-06
1.20157e-06
1.22988e-06
1.26575e-06
1.32022e-06
1.39842e-06
1.50373e-06
1.65055e-06
1.85569e-06
2.14442e-06
2.55833e-06
3.18498e-06
4.14932e-06
5.69892e-06
7.80875e-06
9.2127e-06
9.3674e-06
9.09037e-06
8.70916e-06
7.69341e-06
6.11604e-06
4.19429e-06
1.78002e-06
2.71834e-07
1.97343e-08
9.33528e-10
2.86926e-11
3.55652e-12
4.97709e-11
3.42807e-09
5.64249e-07
5.02101e-06
1.37445e-07
3.76875e-08
1.05476e-08
1.73742e-08
4.33232e-08
8.4901e-08
6.81613e-08
3.3892e-08
2.85189e-08
4.31152e-08
5.46058e-08
6.6616e-08
8.04128e-08
9.58179e-08
1.12403e-07
1.2988e-07
1.48175e-07
1.70401e-07
1.98466e-07
2.29075e-07
2.60678e-07
2.92119e-07
3.2749e-07
3.68722e-07
4.17165e-07
4.71452e-07
5.29271e-07
5.86533e-07
6.39364e-07
6.85482e-07
7.26452e-07
7.65649e-07
8.07979e-07
8.59122e-07
9.24998e-07
1.01673e-06
1.14424e-06
1.32325e-06
1.58291e-06
1.9713e-06
2.55592e-06
3.40104e-06
4.17285e-06
4.54702e-06
4.64734e-06
4.85075e-06
5.02163e-06
4.72455e-06
3.85171e-06
2.48319e-06
9.423e-07
1.02133e-07
5.47377e-09
1.82776e-10
1.39687e-11
1.59356e-11
6.12697e-11
3.44001e-09
5.65658e-07
6.83598e-06
4.32104e-07
2.02468e-07
7.83664e-08
3.06139e-08
1.32155e-08
1.23381e-08
1.41996e-08
2.32804e-08
3.6204e-08
4.29654e-08
4.91267e-08
5.60775e-08
6.35089e-08
7.18265e-08
8.14199e-08
9.22038e-08
1.03909e-07
1.1654e-07
1.30089e-07
1.4354e-07
1.57956e-07
1.73845e-07
1.91568e-07
2.11039e-07
2.3266e-07
2.55827e-07
2.7971e-07
3.02693e-07
3.23796e-07
3.42532e-07
3.60252e-07
3.79335e-07
4.0233e-07
4.31554e-07
4.69641e-07
5.21291e-07
5.92588e-07
6.92874e-07
8.34911e-07
1.03439e-06
1.30305e-06
1.62965e-06
1.91854e-06
2.11886e-06
2.29403e-06
2.52199e-06
2.67676e-06
2.57416e-06
2.11756e-06
1.26155e-06
4.16983e-07
3.49532e-08
1.47093e-09
7.40689e-11
8.8857e-11
9.95151e-11
1.4727e-10
3.39901e-09
5.67138e-07
8.85872e-06
1.28854e-06
8.25579e-07
4.37086e-07
2.6917e-07
1.83927e-07
1.61011e-07
1.53376e-07
1.54578e-07
1.5695e-07
1.59644e-07
1.6118e-07
1.62652e-07
1.61631e-07
1.58574e-07
1.57808e-07
1.60557e-07
1.6663e-07
1.73596e-07
1.81321e-07
1.89491e-07
1.98684e-07
2.07679e-07
2.11869e-07
2.10318e-07
2.05034e-07
1.99135e-07
1.9538e-07
1.94553e-07
1.96859e-07
2.02062e-07
2.09725e-07
2.19426e-07
2.31449e-07
2.46498e-07
2.65325e-07
2.89253e-07
3.2073e-07
3.64313e-07
4.2701e-07
5.19126e-07
6.56281e-07
8.06452e-07
9.04128e-07
9.26017e-07
9.15526e-07
9.00324e-07
8.5104e-07
7.79814e-07
6.35073e-07
3.76488e-07
1.03028e-07
5.91014e-09
4.96211e-10
1.03959e-09
1.22387e-09
1.34403e-09
1.42532e-09
4.61901e-09
5.76e-07
1.20861e-05
4.06076e-06
3.58603e-06
2.71344e-06
2.23048e-06
1.88465e-06
1.76404e-06
1.69344e-06
1.66192e-06
1.63981e-06
1.62001e-06
1.58566e-06
1.55e-06
1.50376e-06
1.45245e-06
1.41242e-06
1.38416e-06
1.36734e-06
1.35516e-06
1.346e-06
1.3374e-06
1.32932e-06
1.3122e-06
1.27423e-06
1.21116e-06
1.12837e-06
1.03582e-06
9.42262e-07
8.52623e-07
7.71823e-07
7.04862e-07
6.51857e-07
6.08508e-07
5.70088e-07
5.34524e-07
5.00656e-07
4.6625e-07
4.30325e-07
3.93465e-07
3.56972e-07
3.26182e-07
3.02046e-07
2.84986e-07
2.67774e-07
2.48516e-07
2.27755e-07
2.01286e-07
1.68531e-07
1.44193e-07
1.20155e-07
6.95722e-08
1.45921e-08
4.42897e-09
1.43848e-08
1.72121e-08
1.81093e-08
1.93738e-08
1.94583e-08
2.44049e-08
6.22426e-07
9.39227e-06
1.15918e-05
1.43667e-05
1.5027e-05
1.55896e-05
1.57381e-05
1.57807e-05
1.57273e-05
1.56722e-05
1.56004e-05
1.54696e-05
1.52931e-05
1.50248e-05
1.47035e-05
1.43165e-05
1.38887e-05
1.34214e-05
1.29509e-05
1.24814e-05
1.20307e-05
1.15765e-05
1.11235e-05
1.06481e-05
1.01624e-05
9.65285e-06
9.1275e-06
8.59077e-06
8.05814e-06
7.5358e-06
7.03512e-06
6.56518e-06
6.1361e-06
5.74891e-06
5.40356e-06
5.09691e-06
4.82746e-06
4.59061e-06
4.37901e-06
4.18414e-06
3.99072e-06
3.77902e-06
3.52639e-06
3.20201e-06
2.85623e-06
2.51733e-06
2.17779e-06
1.82676e-06
1.47435e-06
1.15817e-06
9.0384e-07
6.63118e-07
4.66432e-07
4.13644e-07
3.93421e-07
3.84218e-07
3.70655e-07
3.71441e-07
3.62456e-07
3.68236e-07
3.82321e-07
8.22338e-06
1.05505e-05
1.33428e-05
1.41621e-05
1.49777e-05
1.5379e-05
1.56966e-05
1.5829e-05
1.58369e-05
1.5763e-05
1.55732e-05
1.53423e-05
1.50134e-05
1.46588e-05
1.4242e-05
1.38082e-05
1.33474e-05
1.28814e-05
1.24065e-05
1.19356e-05
1.14518e-05
1.09654e-05
1.04598e-05
9.93958e-06
9.39746e-06
8.84736e-06
8.29426e-06
7.75208e-06
7.22756e-06
6.73177e-06
6.27069e-06
5.85014e-06
5.47102e-06
5.13603e-06
4.84593e-06
4.60052e-06
4.39382e-06
4.21656e-06
4.05781e-06
3.90076e-06
3.72743e-06
3.50902e-06
3.21695e-06
2.89368e-06
2.57802e-06
2.27239e-06
1.96164e-06
1.63356e-06
1.30876e-06
1.02638e-06
7.50675e-07
4.88844e-07
4.11241e-07
3.90575e-07
3.8227e-07
3.69489e-07
3.70868e-07
3.62427e-07
3.6916e-07
3.93061e-07
1.1199e-05
3.53254e-06
3.49207e-06
2.93202e-06
2.6868e-06
2.40128e-06
2.25953e-06
2.10446e-06
1.99007e-06
1.88123e-06
1.79725e-06
1.6953e-06
1.62047e-06
1.54029e-06
1.47699e-06
1.42568e-06
1.38104e-06
1.3498e-06
1.32511e-06
1.30024e-06
1.27218e-06
1.23811e-06
1.19129e-06
1.12745e-06
1.04623e-06
9.56344e-07
8.64626e-07
7.76055e-07
6.93482e-07
6.21693e-07
5.63866e-07
5.191e-07
4.85522e-07
4.61294e-07
4.43625e-07
4.28805e-07
4.13254e-07
3.94498e-07
3.72193e-07
3.48188e-07
3.23184e-07
2.96533e-07
2.73232e-07
2.56453e-07
2.45755e-07
2.36689e-07
2.22016e-07
1.9434e-07
1.56547e-07
1.20875e-07
7.32267e-08
1.88074e-08
3.6116e-09
1.33377e-08
1.67583e-08
1.75084e-08
1.88456e-08
1.87447e-08
2.3934e-08
6.29292e-07
7.35017e-06
1.05033e-06
7.99619e-07
5.22264e-07
4.1511e-07
3.1989e-07
2.79223e-07
2.40912e-07
2.18548e-07
2.0129e-07
1.90085e-07
1.77664e-07
1.7008e-07
1.61909e-07
1.5636e-07
1.53067e-07
1.5116e-07
1.52002e-07
1.54807e-07
1.57908e-07
1.60663e-07
1.62308e-07
1.61397e-07
1.57423e-07
1.50779e-07
1.44321e-07
1.39953e-07
1.38775e-07
1.40716e-07
1.45648e-07
1.53217e-07
1.63072e-07
1.75003e-07
1.89374e-07
2.06819e-07
2.28271e-07
2.55391e-07
2.90824e-07
3.38561e-07
4.03074e-07
4.91949e-07
6.14567e-07
7.51121e-07
8.49918e-07
8.85031e-07
8.76574e-07
8.55802e-07
7.92832e-07
6.7495e-07
5.33402e-07
3.38706e-07
1.12871e-07
7.5994e-09
4.6501e-10
9.0524e-10
1.07705e-09
1.18941e-09
1.25362e-09
4.43258e-09
5.76553e-07
5.3073e-06
3.34e-07
1.90876e-07
9.83984e-08
7.09544e-08
5.10321e-08
4.52185e-08
4.08116e-08
4.05868e-08
4.19859e-08
4.50534e-08
4.89196e-08
5.40969e-08
6.02022e-08
6.73278e-08
7.53964e-08
8.41684e-08
9.34267e-08
1.02961e-07
1.12921e-07
1.23267e-07
1.34301e-07
1.46065e-07
1.59069e-07
1.73549e-07
1.89986e-07
2.08295e-07
2.28382e-07
2.49624e-07
2.71605e-07
2.94057e-07
3.17355e-07
3.4266e-07
3.72161e-07
4.09442e-07
4.60407e-07
5.35284e-07
6.49554e-07
8.2498e-07
1.09484e-06
1.51966e-06
2.18191e-06
3.16656e-06
4.10829e-06
4.35195e-06
3.8228e-06
3.20734e-06
2.72007e-06
2.25675e-06
1.79589e-06
1.19708e-06
4.63918e-07
4.90411e-08
1.80557e-09
6.44102e-11
4.9684e-11
6.40128e-11
1.13612e-10
3.3786e-09
5.66386e-07
4.04899e-06
1.11498e-07
4.76935e-08
2.24218e-08
1.93447e-08
1.98879e-08
2.38609e-08
2.92886e-08
3.66954e-08
4.57886e-08
5.70115e-08
7.04593e-08
8.65346e-08
1.05288e-07
1.26668e-07
1.50206e-07
1.75959e-07
2.03355e-07
2.3225e-07
2.63268e-07
2.95524e-07
3.29444e-07
3.65216e-07
4.04358e-07
4.47633e-07
4.95351e-07
5.4591e-07
5.97779e-07
6.48374e-07
6.93909e-07
7.32904e-07
7.67916e-07
8.03358e-07
8.44659e-07
8.99216e-07
9.77956e-07
1.09968e-06
1.29683e-06
1.62592e-06
2.18652e-06
3.17149e-06
4.8394e-06
7.43902e-06
1.06303e-05
1.16923e-05
9.68317e-06
6.91044e-06
5.60027e-06
5.13184e-06
4.28157e-06
2.93476e-06
1.33126e-06
2.14874e-07
1.13203e-08
4.03404e-10
1.11212e-11
3.28353e-12
5.01566e-11
3.43894e-09
5.64896e-07
3.30733e-06
2.47837e-08
1.22375e-08
1.20504e-08
1.60909e-08
2.21324e-08
3.07085e-08
4.2302e-08
5.82244e-08
7.9005e-08
1.06498e-07
1.42201e-07
1.86899e-07
2.40235e-07
2.99006e-07
3.58044e-07
4.15379e-07
4.70138e-07
5.26671e-07
5.78795e-07
6.38226e-07
7.12809e-07
7.98384e-07
8.94232e-07
9.95953e-07
1.09316e-06
1.17578e-06
1.24593e-06
1.30795e-06
1.35428e-06
1.37603e-06
1.38156e-06
1.39242e-06
1.42496e-06
1.48327e-06
1.5751e-06
1.72848e-06
1.98948e-06
2.43347e-06
3.19813e-06
4.57346e-06
6.98972e-06
1.13078e-05
1.74869e-05
2.05878e-05
1.75455e-05
1.27991e-05
9.46045e-06
7.89973e-06
6.65386e-06
4.88736e-06
2.55862e-06
5.89801e-07
4.3238e-08
2.02789e-09
5.45386e-11
1.466e-12
4.70515e-11
3.43623e-09
5.64004e-07
3.05497e-06
1.85038e-08
2.71835e-08
4.1167e-08
5.98219e-08
8.74006e-08
1.29042e-07
1.90526e-07
2.82387e-07
4.13741e-07
6.04452e-07
8.82792e-07
1.27049e-06
1.78921e-06
2.38458e-06
2.95166e-06
3.51484e-06
4.10247e-06
4.69288e-06
4.88922e-06
5.1072e-06
5.55549e-06
6.38613e-06
7.50595e-06
8.87086e-06
1.02838e-05
1.14311e-05
1.22349e-05
1.28307e-05
1.328e-05
1.32166e-05
1.24106e-05
1.1066e-05
9.63239e-06
8.49205e-06
6.84768e-06
5.39964e-06
4.88571e-06
5.06535e-06
5.77061e-06
7.37121e-06
1.02369e-05
1.53138e-05
2.17611e-05
2.57881e-05
2.43266e-05
1.98308e-05
1.53631e-05
1.1809e-05
8.55287e-06
5.82941e-06
3.33302e-06
1.04126e-06
1.10293e-07
5.92454e-09
1.82592e-10
3.83453e-12
4.55635e-11
3.40695e-09
5.63059e-07
4.17692e-06
9.9944e-08
1.8438e-07
3.03162e-07
4.42035e-07
6.64639e-07
1.0241e-06
1.59422e-06
2.48829e-06
3.79921e-06
5.70914e-06
8.58559e-06
1.24569e-05
1.7508e-05
2.29925e-05
2.73049e-05
3.0908e-05
3.50792e-05
3.78889e-05
3.89851e-05
3.99459e-05
4.09866e-05
4.38898e-05
4.89929e-05
5.61369e-05
6.48255e-05
7.31756e-05
7.96712e-05
8.4502e-05
8.89693e-05
9.21214e-05
9.22705e-05
8.87362e-05
8.17908e-05
7.10936e-05
5.79342e-05
4.50263e-05
3.3501e-05
2.48363e-05
1.9678e-05
1.84668e-05
1.87119e-05
2.06278e-05
2.4173e-05
2.6894e-05
2.53997e-05
2.12078e-05
1.63135e-05
1.19909e-05
8.56612e-06
6.11503e-06
3.83806e-06
1.41578e-06
2.05869e-07
1.43624e-08
5.57568e-10
1.31872e-11
4.26851e-11
3.36773e-09
5.61469e-07
1.1127e-05
9.33628e-07
1.4948e-06
2.48488e-06
3.64459e-06
5.35896e-06
7.73541e-06
1.12293e-05
1.58779e-05
2.14532e-05
2.83633e-05
3.95156e-05
5.21645e-05
6.59995e-05
7.84275e-05
8.63623e-05
9.11494e-05
9.60496e-05
0.000100577
0.000102788
0.000103107
0.000102902
0.000103207
0.000106359
0.000112588
0.000120817
0.00012935
0.000136906
0.000142554
0.000145309
0.000144769
0.000141538
0.00013561
0.000126597
0.000115492
0.000103788
9.12805e-05
7.7192e-05
6.1625e-05
4.70304e-05
3.55997e-05
2.78622e-05
2.26697e-05
2.01148e-05
2.03521e-05
2.02865e-05
1.75401e-05
1.34884e-05
9.99245e-06
7.60495e-06
6.15482e-06
4.34426e-06
1.76285e-06
3.15357e-07
2.82385e-08
1.39586e-09
4.02257e-11
3.90654e-11
3.32729e-09
5.59817e-07
1.6219e-05
3.01781e-06
6.51584e-06
1.24937e-05
1.8426e-05
2.54293e-05
3.22272e-05
3.77002e-05
4.19778e-05
4.67214e-05
5.14942e-05
5.6338e-05
6.17537e-05
6.72e-05
7.2709e-05
7.82668e-05
8.33635e-05
8.74697e-05
9.07483e-05
9.30974e-05
9.41577e-05
9.34431e-05
9.15447e-05
9.01685e-05
8.99527e-05
9.05794e-05
9.12758e-05
9.12282e-05
8.98381e-05
8.68771e-05
8.29148e-05
7.81785e-05
7.27752e-05
6.66955e-05
6.01204e-05
5.34031e-05
4.6465e-05
3.94087e-05
3.25438e-05
2.613e-05
2.05636e-05
1.63687e-05
1.34573e-05
1.16855e-05
1.1109e-05
1.10174e-05
1.02094e-05
8.87874e-06
7.679e-06
7.10044e-06
6.96922e-06
5.64878e-06
2.60379e-06
5.53095e-07
5.99554e-08
3.54033e-09
1.18592e-10
3.70807e-11
3.30443e-09
5.59337e-07
1.47462e-05
1.6285e-06
7.89408e-06
1.8668e-05
2.53475e-05
3.22536e-05
3.86479e-05
4.34933e-05
4.5463e-05
4.53089e-05
4.52108e-05
4.65585e-05
4.89503e-05
5.183e-05
5.47171e-05
5.68519e-05
5.7769e-05
5.77805e-05
5.72909e-05
5.62659e-05
5.4618e-05
5.21823e-05
4.91513e-05
4.61093e-05
4.37525e-05
4.2688e-05
4.26842e-05
4.32951e-05
4.42853e-05
4.56013e-05
4.6864e-05
4.77705e-05
4.79509e-05
4.70584e-05
4.49373e-05
4.13675e-05
3.6408e-05
3.04249e-05
2.43045e-05
1.87747e-05
1.41575e-05
1.06592e-05
8.31612e-06
6.92536e-06
6.28437e-06
6.10122e-06
6.00414e-06
6.00455e-06
6.39754e-06
7.21084e-06
7.78127e-06
6.17919e-06
2.61676e-06
5.39295e-07
5.87177e-08
3.51368e-09
1.1879e-10
3.83451e-11
3.31175e-09
5.59692e-07
1.3555e-05
3.16004e-06
7.38502e-06
2.03861e-05
2.97775e-05
3.72316e-05
4.84144e-05
5.976e-05
6.63189e-05
6.9728e-05
7.29096e-05
7.61546e-05
7.94873e-05
8.23111e-05
8.41926e-05
8.46237e-05
8.35138e-05
8.14707e-05
7.87072e-05
7.50289e-05
7.05899e-05
6.5735e-05
6.09637e-05
5.70434e-05
5.4598e-05
5.37551e-05
5.4096e-05
5.53901e-05
5.73655e-05
5.9473e-05
6.11616e-05
6.20887e-05
6.2061e-05
6.06081e-05
5.69481e-05
5.07479e-05
4.23364e-05
3.28754e-05
2.39108e-05
1.66832e-05
1.14869e-05
8.13581e-06
6.28273e-06
5.38941e-06
5.05206e-06
5.00968e-06
5.26598e-06
5.76228e-06
6.54081e-06
7.63405e-06
7.87085e-06
5.63949e-06
2.22175e-06
4.66945e-07
5.19328e-08
3.14528e-09
1.06691e-10
3.8708e-11
3.30961e-09
5.59387e-07
1.35409e-05
1.50453e-06
5.67827e-06
1.24398e-05
1.90429e-05
2.784e-05
4.01645e-05
5.56911e-05
6.81904e-05
7.1502e-05
7.07484e-05
7.15887e-05
7.47137e-05
7.88697e-05
8.3001e-05
8.64194e-05
8.85633e-05
8.872e-05
8.68886e-05
8.36397e-05
7.95957e-05
7.50655e-05
7.01594e-05
6.56692e-05
6.26595e-05
6.15253e-05
6.19257e-05
6.36137e-05
6.61947e-05
6.89891e-05
7.13345e-05
7.28812e-05
7.33321e-05
7.21907e-05
6.8661e-05
6.22637e-05
5.27909e-05
4.11108e-05
2.93319e-05
1.9685e-05
1.29058e-05
8.67045e-06
6.47305e-06
5.48299e-06
5.11731e-06
5.09379e-06
5.34445e-06
5.77156e-06
6.38523e-06
7.2977e-06
7.70436e-06
5.76737e-06
2.33282e-06
4.89681e-07
5.43387e-08
3.27248e-09
1.10245e-10
3.80803e-11
3.30977e-09
5.59205e-07
1.40494e-05
1.35984e-06
6.1851e-06
1.35566e-05
2.05e-05
2.73396e-05
3.27777e-05
3.59052e-05
3.63733e-05
3.68266e-05
3.82321e-05
4.03847e-05
4.35298e-05
4.7623e-05
5.24043e-05
5.77784e-05
6.34404e-05
6.88357e-05
7.32363e-05
7.54394e-05
7.44609e-05
7.07679e-05
6.64755e-05
6.31779e-05
6.13485e-05
6.12474e-05
6.26131e-05
6.52802e-05
6.89029e-05
7.28822e-05
7.64223e-05
7.90083e-05
8.04552e-05
8.04248e-05
7.81948e-05
7.34457e-05
6.61373e-05
5.62476e-05
4.45123e-05
3.26168e-05
2.28123e-05
1.57289e-05
1.11806e-05
8.63746e-06
7.66892e-06
7.45383e-06
7.27811e-06
7.14151e-06
7.10513e-06
7.26291e-06
7.3655e-06
6.00085e-06
2.85204e-06
6.08349e-07
6.6361e-08
3.90684e-09
1.29149e-10
3.63268e-11
3.31181e-09
5.59165e-07
1.7428e-05
3.49364e-06
7.70311e-06
1.3645e-05
1.85844e-05
2.48502e-05
2.92737e-05
3.21306e-05
3.47056e-05
3.79033e-05
4.21791e-05
4.77128e-05
5.43692e-05
6.20524e-05
7.08693e-05
8.03315e-05
9.02558e-05
9.97787e-05
0.000108114
0.000114021
0.000114966
0.00011093
0.00010585
0.000102767
0.000101566
0.000102277
0.000105196
0.000110223
0.000116884
0.000123708
0.000128495
0.000130566
0.000129813
0.000123761
0.000108919
8.72899e-05
6.59422e-05
4.8333e-05
3.42357e-05
2.32136e-05
1.5334e-05
1.02998e-05
7.48748e-06
6.40754e-06
6.83608e-06
8.34493e-06
9.0768e-06
8.69118e-06
8.05732e-06
7.45754e-06
6.85595e-06
5.48046e-06
2.77253e-06
6.03819e-07
6.30899e-08
3.51844e-09
1.10938e-10
3.42609e-11
3.32282e-09
5.60088e-07
1.92616e-05
3.07969e-06
4.11775e-06
6.43008e-06
1.06359e-05
1.65378e-05
2.38696e-05
3.01151e-05
4.02501e-05
5.13092e-05
6.42116e-05
7.90853e-05
9.50496e-05
0.00011157
0.000126826
0.000138392
0.000145382
0.000147838
0.000146537
0.000140876
0.000130869
0.000119945
0.000112217
0.000109384
0.000111119
0.000116705
0.000124962
0.000134034
0.000141471
0.000143989
0.000139607
0.000129316
0.000114405
9.45164e-05
7.11762e-05
4.96993e-05
3.39135e-05
2.32838e-05
1.60558e-05
1.11465e-05
8.06925e-06
6.45308e-06
6.12336e-06
7.22824e-06
1.03367e-05
1.40155e-05
1.47482e-05
1.33239e-05
1.12258e-05
9.15589e-06
7.3087e-06
5.05261e-06
2.07935e-06
3.37179e-07
2.68981e-08
1.20114e-09
3.16395e-11
3.82795e-11
3.35265e-09
5.61485e-07
1.19464e-05
1.86037e-06
3.92666e-06
8.00395e-06
1.44768e-05
2.47636e-05
3.46304e-05
4.41346e-05
5.3813e-05
6.41127e-05
7.7904e-05
9.42109e-05
0.000113062
0.000133499
0.000151801
0.000166011
0.00017517
0.000177645
0.000175586
0.000169476
0.000160015
0.000149486
0.000141703
0.000140629
0.000143696
0.000148805
0.000154737
0.00016089
0.000165329
0.000164601
0.000157464
0.000145413
0.000129782
0.000110394
8.66628e-05
5.81981e-05
3.27924e-05
1.81931e-05
1.23018e-05
9.94251e-06
9.12673e-06
9.4763e-06
1.08987e-05
1.36126e-05
1.66394e-05
1.78282e-05
1.70111e-05
1.51678e-05
1.28358e-05
1.03974e-05
8.0109e-06
5.15727e-06