/*--------------------------------*- C++ -*----------------------------------*\
| =========                 |                                                 |
| \\      /  F ield         | OpenFOAM: The Open Source CFD Toolbox           |
|  \\    /   O peration     | Version:  2.1.1                                 |
|   \\  /    A nd           | Web:      www.OpenFOAM.org                      |
|    \\/     M anipulation  |                                                 |
\*---------------------------------------------------------------------------*/
FoamFile
{
    version     2.0;
    format      ascii;
    class       volScalarField;
    location    "0.00115";
    object      p;
}
// * * * * * * * * * * * * * * * * * * * * * * * * * * * * * * * * * * * * * //

dimensions      [1 -1 -2 0 0 0 0];

internalField   nonuniform List<scalar> 
36520
(
11.6384
6.69308
-7.30279
-34.1151
-61.9906
-74.5475
-60.8368
-28.6018
6.21427
30.4848
42.158
45.022
43.4667
40.7288
38.6911
38.1619
39.2
41.3924
44.0857
46.5763
48.3615
48.9941
48.1562
45.7419
41.9083
37.021
31.6179
26.3402
21.7859
18.3877
16.298
15.4052
15.4301
16.0089
16.6499
16.8606
16.1157
13.7337
8.83625
0.426946
-12.5287
-30.9746
-54.8875
-83.5554
-118.008
-160.057
-202.416
-223.868
-205.243
-132.339
4.44844
147.241
249.716
313.03
348.213
367.215
377.252
381.863
384.334
385.051
13.1892
8.63645
-5.82911
-34.5876
-65.5856
-79.9592
-65.218
-29.8131
7.87056
33.0271
44.0454
46.3011
44.0438
40.8349
38.5601
37.9866
39.1002
41.4386
44.2689
46.8655
48.7455
49.4327
48.6088
46.1572
42.2493
37.2526
31.7055
26.2734
21.5936
18.1235
16.0335
15.19
15.3183
16.019
16.8308
17.2384
16.709
14.564
9.93042
1.80012
-10.9574
-29.3942
-53.6889
-82.9654
-118.182
-163.142
-211.494
-237.811
-222.329
-151.433
-11.9841
145.008
252.363
316.081
350.588
368.894
378.493
382.536
384.871
385.496
15.4768
12.3032
-2.62925
-35.1972
-72.5477
-90.8125
-74.0133
-32.2271
11.1265
37.9432
48.068
48.64
45.0597
40.919
38.1533
37.4179
38.6051
41.2305
44.3983
47.3435
49.4541
50.3002
49.5268
47.005
42.9386
37.7059
31.8471
26.0757
21.129
17.5176
15.4092
14.6599
14.9863
15.9754
17.1674
18.0393
18.0402
16.5079
12.5781
5.02154
-7.43592
-25.9728
-51.0573
-81.5835
-118.436
-169.056
-229.623
-265.523
-255.615
-190.094
-48.8531
138.985
258.051
322.209
355.431
372.257
380.716
384.171
385.978
386.412
17.0774
16.6331
2.37741
-35.327
-82.2388
-106.715
-87.0281
-35.8663
15.8917
45.0046
53.6433
52.0094
46.479
40.9972
37.5589
36.6961
38.2047
41.3911
45.1037
48.2925
50.6207
51.6717
50.9682
48.3157
43.9905
38.3869
32.0441
25.7165
20.3229
16.4917
14.4174
13.8549
14.4668
15.8966
17.6355
19.0915
19.7707
19.0065
15.9701
9.19009
-2.85517
-21.5084
-47.9301
-80.5627
-119.847
-177.118
-252.139
-300.848
-296.981
-244.79
-94.0833
123.505
267.902
331.332
362.74
377.339
384.071
386.518
387.629
387.783
17.9213
21.257
8.8751
-34.3924
-94.089
-126.991
-103.762
-40.4157
22.1709
53.8771
60.5303
55.9061
47.965
40.821
36.5524
35.4691
37.0943
40.5916
44.6752
48.6965
51.8345
53.4215
52.9403
50.1184
45.4084
39.2802
32.2703
25.1692
19.1041
14.9078
12.8373
12.5605
13.5288
15.464
17.8787
20.1819
21.7232
21.8949
20.0664
14.3865
3.18217
-15.0965
-42.7107
-77.7986
-118.278
-179.79
-267.361
-332.315
-330.114
-304.48
-146.101
96.9649
284.754
343.172
372.529
383.816
388.435
389.495
389.739
389.534
17.2473
25.1522
15.6383
-32.6831
-107.507
-150.132
-123.555
-45.2286
29.5908
63.8558
67.9895
60.11
49.4434
40.3624
35.1465
33.8369
35.9102
40.3503
45.2579
49.9098
54.0224
56.1373
55.7615
52.526
47.2312
40.4007
32.564
24.4282
17.4257
12.6865
10.6195
10.7315
12.2169
14.7404
17.7675
20.8434
23.3624
24.8898
24.2012
19.7715
9.94996
-7.0092
-35.4564
-73.5449
-114.4
-177.843
-278.579
-358.219
-361.331
-369.828
-206.309
64.0393
315.667
358.274
384.358
391.67
393.643
393.018
392.251
391.616
16.668
29.9387
22.4643
-30.0334
-122.306
-174.316
-138.962
-50.1871
36.2158
73.5302
75.9492
64.8049
51.0045
39.7288
33.5309
32.15
34.6058
39.3081
44.6061
49.8586
55.1359
58.7958
58.8634
55.148
49.4048
41.845
33.1081
23.8425
15.9281
10.6317
8.69443
9.03033
10.8543
13.6422
16.8731
20.3911
23.5743
25.975
26.7096
24.1274
16.4061
2.88448
-25.9568
-67.1279
-110.171
-171.213
-289.978
-400.361
-428.84
-487.756
-331.925
65.6996
362.115
379.101
398.302
400.797
399.604
397.064
395.151
394.025
-3.87432
32.0277
26.8975
-29.5961
-137.663
-192.811
-159.347
-68.3942
40.1207
88.9
86.0564
69.6894
52.0063
38.1218
30.5707
28.3421
30.2584
37.0484
43.6314
49.2531
56.617
62.742
63.6176
59.9617
52.6475
43.913
34.316
24.1463
15.2771
9.92953
8.12301
8.7087
10.4631
13.1732
16.3303
19.7819
23.3768
26.5631
28.0039
26.6169
20.1641
6.19006
-20.0218
-64.7496
-112.985
-151.057
-240.261
-594.131
-524.921
-545.795
-285.964
144.633
399.428
404.147
414.878
411.729
406.77
401.992
398.758
397.046
28.3987
34.5227
22.1036
-32.8267
-143.317
-201.614
-140.24
-26.912
47.4043
78.2525
79.2296
67.357
50.5019
35.3942
28.0924
28.0554
32.8314
39.3378
42.6701
47.6804
56.448
64.4543
66.2633
62.8012
54.6863
45.1692
34.9279
23.7819
13.6917
7.60561
6.60839
8.19942
10.0952
12.5458
15.5244
19.0947
23.4417
26.1041
28.1734
28.0822
23.1974
13.3887
-9.25946
-56.3034
-110.124
-153.956
-198.561
-185.506
-601.301
-534.931
-208.787
196.848
417.805
422.542
427.349
419.482
411.488
404.963
400.752
398.605
31.9675
28.8789
16.4996
-27.3588
-127.334
-201.306
-171.952
-58.4146
41.248
82.6502
86.745
70.7911
52.2681
36.1346
27.8633
27.1586
30.8845
34.9181
38.8053
47.2729
60.1285
70.0821
72.7015
66.7394
56.1756
45.8332
34.7404
23.0893
13.1005
7.68384
6.9265
8.46171
10.2115
12.472
15.7926
19.2581
23.3008
28.1245
30.9027
31.3714
28.1569
15.582
-18.5916
-65.0464
-113.887
-161.1
-193.427
36.6712
-755.029
-639.581
-159.739
234.737
431.188
429.459
430.83
421.288
412.2
405.065
400.53
398.26
14.4805
23.8274
19.264
-20.5128
-138.927
-228.052
-174.344
-48.5178
50.0784
90.0368
92.9223
75.1649
53.9671
36.8232
26.9639
24.9546
27.6421
31.7806
36.3667
42.8792
54.0449
70.9882
82.3632
71.3033
58.8098
47.3987
34.8202
22.3482
12.3456
8.23554
8.62964
10.9522
13.0805
15.2206
17.686
20.3278
24.0603
27.7112
31.5047
35.4148
32.1744
20.8903
-10.019
-63.4585
-113.655
-158.112
-192.122
-2.00577
-732.792
-653.212
-120.886
293.811
443.674
435.525
432.886
422.316
412.571
405.082
400.362
398.007
-10.008
23.7602
30.8326
-11.6638
-152.96
-254.324
-195.834
-64.2801
45.123
102.066
108.38
84.2845
56.5717
35.8492
24.6829
22.0237
24.5042
29.3152
34.6062
43.2823
53.634
64.6338
70.5571
68.056
59.5366
49.1033
36.8286
24.8398
15.8081
11.2501
10.4159
11.6159
13.477
15.5105
17.9626
21.0493
25.0555
29.2133
32.4693
34.5378
30.0159
17.7942
-11.7812
-65.1386
-117.393
-155.983
-198.37
-108.602
-565.107
-664.499
-175.489
352.466
449.615
437.974
431.35
420.72
411.252
403.992
399.412
397.121
-24.5703
30.8806
43.3684
-1.7164
-170.909
-320.98
-278.883
-90.5229
40.0559
117.384
141.116
100.395
63.4014
38.8768
25.2626
21.3495
22.9132
27.9399
33.7142
42.4067
51.2328
62.4029
70.8868
67.3479
61.5016
52.108
39.456
26.4321
16.5089
10.8615
9.34418
10.8023
13.5505
17.3557
22.091
24.8327
26.8865
30.3114
33.8584
34.4928
28.7792
13.4158
-19.8072
-73.2411
-123.961
-157.239
-192.667
-111.221
-604.423
-697.993
-133.345
331.793
446.462
437.354
431.169
420.69
411.308
404.067
399.488
397.194
12.6939
44.2386
68.2813
11.1927
-181.804
-433.533
-330.143
-92.4028
33.8688
141.723
179.447
115.409
65.8021
38.0614
21.649
17.4919
19.8526
25.0051
31.3154
38.1137
51.2116
68.6533
81.4653
73.4889
62.58
50.8296
37.5418
24.5284
13.4957
7.88749
7.88425
10.2093
12.8846
16.1515
19.0687
20.5914
22.9812
27.0234
31.2519
32.3695
25.9288
9.55275
-24.3659
-76.0064
-123.702
-154.293
-182.229
-115.393
-715.673
-659.073
10.6094
273.169
438.201
433.361
431.874
421.903
412.513
405.138
400.451
398.099
-15.5512
45.584
118.344
23.2955
-158.455
-466.391
-491.118
-162.298
39.6606
207.122
222.748
130.061
68.8715
38.3667
19.2926
14.1139
17.0962
23.8194
34.5402
47.1764
56.2368
66.2862
71.2314
67.0841
60.0275
49.8823
37.7618
25.9136
16.1219
9.27964
8.07757
10.6505
14.0043
18.8755
22.2227
22.7667
23.4914
24.6177
25.6856
23.8958
15.6515
-3.2298
-37.5266
-82.959
-127.576
-159.976
-190.96
-151.749
-634.156
-621.04
82.6923
236.933
419.665
427.158
428.576
420.28
411.832
404.931
400.488
398.235
33.8043
109.313
105.53
-65.8339
-293.51
-409.925
-245.597
-29.207
96.7867
153.397
149.036
96.6092
59.8218
36.4762
22.0967
14.6984
15.3738
21.2383
29.9851
41.0877
53.467
63.4436
67.5111
64.9074
58.1829
48.2327
36.7541
26.2467
17.5049
11.8313
10.1457
11.4269
13.4608
15.6768
18.1352
20.2843
22.4807
23.8588
23.1681
18.6093
6.43533
-16.5693
-51.7167
-94.6984
-133.115
-156.771
-167.904
-121.274
-530.665
-558.084
73.4744
227.45
416.931
421.317
425.009
418.421
411.088
404.813
400.695
398.591
-11.461
53.854
48.881
-44.26
-177.627
-241.699
-178.636
-45.8751
29.7489
93.1512
101.559
75.502
51.7426
33.662
22.1849
17.0439
17.0743
21.2076
28.8859
39.63
51.6512
62.0761
66.943
64.8635
57.7694
47.6238
35.994
25.128
16.548
11.4888
9.8914
11.4078
13.4073
15.7223
17.9234
20.312
23.1039
24.723
25.1982
18.7536
1.24529
-25.6556
-61.0109
-101.632
-134.963
-159.912
-178.899
-213.406
-390.378
-523.717
-147.05
184.637
407.335
406.401
414.603
411.681
406.924
402.232
399.026
397.325
17.3293
31.2727
13.8648
-48.8448
-123.547
-156.093
-115.149
-32.9298
24.7126
63.0113
70.1029
57.5261
43.607
31.6441
23.3988
19.619
20.2167
23.8258
30.3979
39.6024
49.5569
57.8352
61.6813
60.6936
55.2576
46.4021
36.0348
26.2072
18.3949
13.8851
12.842
13.2829
14.4292
15.7753
17.2016
19.1851
21.324
22.4104
20.5665
11.9494
-7.17595
-37.0798
-74.6321
-110.381
-135.943
-161.037
-195.297
-253.541
-307.271
-389.082
-279.488
77.3704
374.65
380.929
398.55
401.017
399.855
397.363
395.471
394.348
15.4468
18.3723
2.27949
-37.7937
-83.9135
-106.092
-80.1498
-27.5506
14.5727
42.0118
49.447
44.8358
37.3294
29.7666
24.238
21.7885
22.6212
26.2425
31.9149
39.674
48.0406
54.9594
57.9629
56.6921
51.9338
44.1822
35.1714
26.4975
19.6156
15.5477
14.1831
14.3339
15.0583
15.9547
16.8577
18.0545
19.1292
18.5505
14.2248
2.9674
-17.4923
-47.5119
-83.411
-117.151
-142.073
-166.412
-204.629
-244.389
-256.875
-264.377
-186.823
42.0089
334.391
358.313
384.37
391.598
393.594
393.045
392.323
391.702
13.3505
10.0041
-4.04632
-30.3076
-59.6805
-74.1338
-57.6738
-23.2207
7.66055
28.5401
36.627
36.5651
32.8792
28.2898
24.7367
23.2994
24.2524
27.3447
32.5403
39.3794
46.5865
52.2911
55.1195
53.9379
49.6335
42.7342
34.7087
26.9285
20.675
16.7962
15.1161
14.828
15.122
15.5814
16.0621
16.5048
16.3533
14.2994
8.1073
-4.66684
-25.592
-54.3394
-86.8249
-116.766
-140.523
-164.311
-199.265
-227.186
-232.783
-211.081
-117.001
67.0832
293.982
341.823
372.235
383.515
388.173
389.313
389.606
389.417
10.2511
5.25125
-6.90604
-25.8507
-45.3072
-54.0067
-43.084
-19.9746
2.91943
19.5345
28.0379
30.5648
29.4818
27.0477
24.9784
24.3255
25.5489
28.5521
33.0809
39.0849
45.4264
50.3833
52.5957
51.5177
47.5986
41.4167
34.2326
27.2399
21.5306
17.7911
15.8922
15.2391
15.1896
15.2448
15.1636
14.6768
13.1636
9.44031
1.70726
-11.9427
-32.5099
-59.221
-88.0506
-115.161
-137.95
-160.555
-188.088
-206.66
-207.583
-169.455
-66.8184
100.355
271.819
330.193
362.767
377.329
384.034
386.515
387.635
387.797
8.42907
2.54769
-8.14266
-22.5254
-36.2591
-41.8162
-33.9
-17.4756
0.17824
14.1121
22.6076
26.3781
26.8959
25.9398
24.9602
24.9079
26.1825
29.0723
33.3408
38.7204
44.2773
48.6652
50.6503
49.6613
46.0606
40.4406
33.8766
27.4594
22.1353
18.4682
16.4188
15.49
15.1347
14.8626
14.3328
13.1576
10.6767
5.86009
-2.77425
-16.6834
-36.3877
-60.6528
-86.3301
-110.895
-132.555
-152.928
-172.549
-182.129
-170.272
-127.282
-24.797
126.315
259.82
322.118
356.065
372.941
381.265
384.7
386.465
386.884
6.39548
0.739694
-8.46137
-20.2864
-30.7137
-34.6446
-28.6851
-15.8301
-1.25519
11.0841
19.3618
23.7302
25.2355
25.1719
24.8914
25.274
26.8437
29.6549
33.7024
38.6286
43.6482
47.5801
49.2586
48.3558
44.9903
39.7636
33.6298
27.5947
22.5097
18.8704
16.6847
15.5503
14.9402
14.3889
13.5048
11.8252
8.72065
3.18267
-6.01489
-19.9271
-38.887
-61.4985
-85.2652
-108.199
-128.871
-147.429
-162.365
-166.633
-151.299
-99.0832
3.98345
139.129
252.838
316.422
351.502
369.933
379.441
383.455
385.732
386.331
4.61384
-0.504155
-8.57668
-19.1587
-28.1215
-31.2843
-26.2414
-14.9491
-1.7987
9.718
17.827
22.4163
24.2683
24.6993
24.7678
25.3592
26.9503
29.7439
33.7081
38.4308
43.1907
46.8488
48.537
47.6892
44.4538
39.4282
33.5143
27.6804
22.73
19.117
16.8641
15.6119
14.8688
14.1764
13.1252
11.2238
7.83804
2.0619
-7.20426
-20.9135
-39.3222
-61.0455
-84.131
-106.486
-126.783
-144.572
-157.521
-159.113
-139.959
-85.1016
17.5559
144.552
249.973
313.71
349.402
368.544
378.512
383.078
385.478
386.159
7.44816
4.93977
4.21851
3.11202
1.79722
0.672804
-0.0902789
-0.0432856
0.837539
2.43874
4.44361
6.58763
8.73873
10.9689
13.4346
16.3073
19.6193
23.3064
27.3267
31.4773
35.4435
38.6297
40.3044
39.8936
37.3802
33.2716
28.3068
23.3036
18.9969
15.8936
14.1144
13.4513
13.5627
14.0177
14.2932
13.7539
11.6206
6.87858
-1.69442
-15.2163
-34.1488
-57.7841
-83.3538
-107.254
-127.828
-144.984
-158.976
-165.258
-151.604
-103.103
-4.13591
128.557
245.397
312.484
350.179
369.685
379.548
384.084
386.358
386.984
8.29267
5.55091
4.26768
3.19092
1.93682
0.754324
-0.112367
-0.147877
0.708411
2.32555
4.35674
6.50265
8.62938
10.8209
13.2634
16.1444
19.4854
23.2063
27.2562
31.4701
35.5694
38.9159
40.7236
40.3419
37.7405
33.4762
28.3433
23.181
18.7599
15.6288
13.9037
13.3305
13.5713
14.1945
14.6664
14.3547
12.4904
7.97935
-0.432551
-14.0534
-33.5329
-58.3151
-85.2165
-110.153
-131.148
-148.165
-162.548
-171.854
-162.439
-117.696
-20.4371
120.412
248.912
315.695
352.961
371.545
380.738
384.781
386.844
387.369
9.07242
5.89875
4.2569
3.3461
2.22232
0.902883
-0.164909
-0.375635
0.446226
2.11169
4.20079
6.35505
8.42594
10.5316
12.9253
15.8215
19.2287
23.0618
27.2193
31.565
35.8603
39.4779
41.5448
41.218
38.4437
33.8859
28.4301
22.9549
18.3048
15.1191
13.5065
13.1475
13.655
14.6437
15.593
15.8544
14.6334
10.6833
2.52396
-11.4122
-32.1742
-59.1034
-88.7386
-115.925
-137.862
-154.409
-169.261
-184.887
-184.671
-148.315
-54.4674
101.834
256.98
322.176
358.567
375.232
382.894
386.237
387.792
388.118
8.05879
5.38917
4.16177
3.71705
2.78446
1.1984
-0.238108
-0.70239
0.0831629
1.84742
4.03335
6.19849
8.16113
10.1205
12.4254
15.3334
18.8311
22.7973
27.0575
31.5554
36.1298
40.2057
42.7031
42.4918
39.475
34.4911
28.5686
22.6532
17.683
14.4278
12.9788
12.9525
13.8557
15.3579
17.0302
18.2077
17.9526
14.9125
7.3409
-6.61824
-28.8141
-58.8219
-92.6128
-123.896
-147.656
-163.267
-177.635
-202.574
-215.767
-192.072
-103.609
69.1407
270.985
331.943
366.647
380.139
386.13
388.219
389.067
389.114
6.16371
4.17376
3.90286
4.30813
3.56295
1.51543
-0.441914
-1.20516
-0.394819
1.60202
3.95696
6.11033
7.89731
9.63155
11.8287
14.778
18.3948
22.498
26.9224
31.6566
36.6433
41.2819
44.2382
44.1441
40.7823
35.2433
28.7382
22.2792
16.915
13.5853
12.3718
12.7001
14.019
16.0928
18.6854
21.1574
22.3975
20.6741
13.984
-0.104114
-23.8824
-57.9444
-97.0788
-131.862
-157.252
-170.235
-184.831
-220.871
-250.64
-243.613
-168.548
28.486
291.948
345.166
376.626
386.071
389.854
390.531
390.558
390.272
2.5568
1.92661
3.39448
5.26967
4.55796
1.841
-0.761907
-1.70933
-0.658336
1.69109
4.16006
6.18005
7.65024
9.0666
11.1675
14.2227
17.977
22.2469
26.788
31.7092
37.1083
42.3605
45.9671
46.0455
42.244
36.0437
28.8637
21.7974
16.0043
12.5749
11.5418
12.1036
13.7681
16.5438
20.2595
24.1224
27.3205
27.9619
23.8621
11.5335
-11.6554
-47.2556
-93.7325
-136.001
-163.154
-174.388
-189.438
-234.827
-277.848
-286.634
-257.589
6.55131
317.836
362.21
387.233
392.58
393.856
393.057
392.228
391.583
-5.76784
-2.65634
2.83906
6.84912
5.88679
1.99359
-1.6354
-2.49494
-0.809286
2.22246
4.74
6.40421
7.32064
8.31399
10.3705
13.6361
17.479
21.6497
26.2195
31.6129
37.7302
43.8139
48.4851
48.531
44.0349
36.9177
28.859
21.0554
14.7137
11.1124
10.0711
10.619
12.1218
14.8433
19.0045
24.7744
30.0741
33.0695
31.4791
21.2265
-0.206423
-34.1592
-83.0807
-131.728
-165.002
-179.559
-196.586
-246.312
-293.979
-332.211
-390.27
22.3443
356.067
384.876
399.386
400.243
398.733
396.301
394.515
393.459
-15.5346
-7.97701
2.32805
9.33821
7.41992
1.12727
-3.82831
-4.0266
-1.03473
3.36476
5.86603
6.82792
6.81536
7.11398
9.20202
12.9162
17.0468
21.1736
25.9667
31.8921
39.3285
47.2556
52.2763
51.4279
45.9671
37.6674
28.6738
19.996
13.0347
9.26351
8.36608
9.01547
10.5076
13.6169
18.5765
24.9601
31.6959
36.233
36.9399
29.2453
10.6193
-19.8607
-65.9683
-119.962
-163.056
-181.609
-191.978
-235.33
-287.265
-423.031
-537.986
124.226
403.197
405.891
412.788
409.173
404.643
400.386
397.518
395.983
-38.3698
-17.8476
0.163546
13.8516
11.6306
1.30858
-5.87528
-6.3575
-0.474854
6.99505
9.18754
8.84451
7.08306
6.14523
8.33423
12.7318
16.8054
20.1244
24.3629
30.68
39.1644
48.4829
54.0659
54.1264
48.2148
38.5918
28.724
19.0692
11.4368
7.49205
6.3374
6.64897
7.59469
9.48685
14.373
21.2006
28.7946
35.6475
39.1804
34.5918
18.2825
-7.74447
-46.8979
-101.68
-152.338
-182.213
-201.896
-179.431
-372.089
-582.964
-294.396
248.054
445.095
425.874
426.462
418.895
411.323
405.095
401.043
398.967
-40.9798
-29.8974
5.32244
35.739
18.1699
-2.44412
-19.316
-15.6266
0.753472
12.5361
13.8683
10.9365
7.07859
5.73119
8.19817
12.8466
17.4081
20.6912
24.5182
31.0929
40.992
52.7384
59.1429
58.4316
48.4829
37.4389
27.456
17.1722
9.31239
6.21096
6.49081
7.43616
9.03945
11.668
16.923
23.8086
31.2687
37.3852
39.2411
34.9363
20.2129
-6.38697
-47.6073
-101.853
-155.496
-186.773
-210.884
-138.348
-708.68
-697.762
-23.8684
277.743
450.175
435.047
433.444
423.881
414.628
407.241
402.498
400.105
52.2955
-37.1209
-35.7101
-5.00765
5.66235
-5.72045
-13.2949
-8.32699
7.68693
22.0747
18.144
11.4856
6.03166
5.01106
8.3039
13.7518
18.8026
22.3777
26.0105
32.8212
43.427
54.0446
59.5418
57.7128
47.4366
36.6489
25.707
14.6791
6.88174
4.06774
5.29223
7.3264
9.56702
13.2162
20.4675
29.0639
37.8124
45.6991
49.2019
46.5566
32.2237
6.97886
-34.9243
-93.9086
-153.129
-195.536
-212.918
-113.098
-875.558
-504.221
143.654
261.713
426.355
431.366
432.335
423.302
414.111
406.645
401.833
399.409
-67.3289
-104.776
-2.92845
91.4896
88.3365
-6.22502
-44.6907
-42.5351
6.53189
35.2511
28.135
18.1116
12.4617
10.8706
12.7264
16.6852
20.631
23.5695
26.7392
33.8539
43.6247
53.2083
57.4437
55.1255
46.7917
36.0779
24.6178
13.4944
6.03926
4.56633
6.96144
9.74065
11.9498
16.1046
24.0104
33.0851
41.9393
49.3909
51.9787
47.6227
34.3092
10.9105
-29.5809
-87.093
-145.855
-194.15
-192.866
-89.0487
-874.148
-452.614
192.26
266.287
405.488
429.637
432.074
423.221
413.992
406.444
401.58
399.133
53.0746
-56.4871
-37.2058
18.6898
0.469474
-63.4797
-66.8879
-29.0997
43.4443
73.983
48.8987
25.4058
15.0693
9.95882
10.5418
13.8506
18.0792
22.306
26.3547
34.6188
46.3141
55.2993
58.4543
55.7659
47.6161
36.6261
24.3319
12.6666
5.14392
3.88462
6.36689
9.46297
11.9469
16.277
24.6552
34.7197
44.1963
50.7113
51.7575
46.7799
32.9945
11.0971
-26.2796
-81.9504
-141.736
-193.118
-186.188
-19.5567
-868.853
-473.046
169.546
263.045
404.302
428.977
431.875
422.925
413.704
406.195
401.367
398.939
-14.1378
-24.5028
0.946287
0.616169
-30.0557
-71.5313
-53.0503
10.6349
54.0367
53.5556
37.6449
25.2656
17.6899
12.5203
10.9679
12.9231
16.6886
20.8976
26.1326
36.8997
49.2098
57.6177
60.0763
55.9904
45.9281
36.0714
23.9124
12.0479
4.6703
3.28131
5.80365
8.79448
11.1512
16.1838
23.8401
31.4124
39.5688
45.9889
48.136
42.9967
29.4018
8.59559
-25.6179
-78.6518
-138.243
-186.241
-221.885
-219.59
-828.469
-369.104
29.2654
258.139
412.741
428.72
430.827
421.759
412.784
405.554
400.917
398.581
-29.5174
-19.1485
-7.27665
1.37896
-30.017
-59.3947
-44.8416
-2.46934
38.6966
51.7046
41.0191
26.435
16.421
10.8154
10.3259
12.3033
15.4186
19.434
23.8592
32.9708
46.1812
56.7619
60.9513
56.6886
48.5517
36.9059
23.6539
10.2913
3.13448
2.55956
4.91974
6.68088
8.06896
15.159
24.4991
31.9191
38.0453
42.6002
43.5633
39.1065
26.6542
6.59521
-27.7541
-78.3361
-136.844
-189.951
-222.848
-232.853
-651.413
-382.321
-125.629
254.59
407.633
426.719
426.893
418.679
410.623
404.091
399.89
397.755
-39.2319
-24.8006
-10.5305
-10.4084
-30.8668
-46.2461
-33.8691
-3.2389
26.3538
36.992
33.6055
25.3419
17.6487
13.4046
12.5631
14.1392
17.252
20.9241
25.4311
32.0001
42.4052
52.3609
56.1808
53.7393
47.1423
36.8047
24.4596
14.0189
8.44154
7.43394
8.10227
9.2332
10.9235
14.9376
21.4716
27.5743
34.9751
39.9818
39.9578
32.743
16.2257
-9.48864
-50.2765
-105.879
-161.577
-188.354
-219.905
-210.717
-415.912
-420.561
-240.862
227.521
398.006
413.6
417.131
412.063
406.254
401.117
397.727
395.955
-42.7918
-24.4298
-11.341
-13.5813
-28.6718
-36.6867
-26.5982
-4.55221
17.2286
27.7499
29.237
23.6313
17.5615
14.4656
14.3388
15.9606
18.7342
22.9503
27.8407
33.2017
40.9433
49.102
52.4106
50.3604
45.098
35.89
23.8062
12.9934
6.54039
4.75047
5.727
7.74341
10.516
14.9499
20.9344
28.6857
35.0041
38.37
35.8655
26.3767
7.39758
-20.4401
-60.578
-108.961
-147.09
-177.205
-224.421
-280.074
-417.217
-414.877
-355.875
86.4914
375.463
401.526
411.46
408.603
404.335
400.09
397.219
395.667
-5.70684
-4.0634
-5.9666
-13.3555
-24.2886
-29.9057
-23.451
-7.42997
9.26097
19.8835
23.6693
22.2367
19.3808
17.5162
17.4982
19.06
21.4597
25.5088
30.4457
36.0521
42.6385
48.4752
50.7831
48.7835
43.1407
34.0263
22.9462
13.2554
7.91497
6.74322
8.02033
11.184
15.0568
19.7469
24.8955
30.7169
35.2662
36.7181
32.6308
20.7139
0.103258
-31.3549
-76.6343
-124.745
-160.609
-191.834
-220.981
-279.476
-308.263
-324.039
-255.434
26.8421
350.913
379.152
400.89
402.814
401.139
398.266
396.158
394.923
-3.32162
-5.54903
-7.36095
-12.8222
-20.3927
-23.8676
-19.1443
-7.37709
6.34419
15.4814
19.9112
20.7847
19.7533
19.2565
19.7794
21.3944
23.924
27.5731
31.8653
36.6094
41.7701
45.9362
47.5245
45.863
40.9092
33.0473
23.6997
15.5315
10.3804
8.74669
9.37984
11.7648
15.1512
19.2434
23.6857
27.9112
30.7741
30.4466
25.2048
11.9572
-10.365
-44.2088
-87.6656
-126.535
-153.102
-182.37
-214.48
-245.321
-254.022
-243.386
-164.635
30.3503
307.967
355.538
384.449
392.137
394.167
393.513
392.719
392.059
2.62997
-1.49886
-5.95947
-11.8023
-17.943
-20.7379
-17.137
-8.00557
3.23558
12.1691
17.4851
19.767
20.2603
20.6423
21.5542
23.2594
25.7844
29.1022
32.8578
36.9421
41.0117
44.0652
45.013
43.3508
38.9225
32.2633
24.563
17.8245
13.3671
11.5616
12.1584
14.1138
16.8857
19.8834
22.741
25.1353
26.3382
24.5505
18.0447
4.44668
-17.7579
-50.1643
-89.5524
-126.274
-154.464
-178.809
-204.441
-220.905
-222.043
-199.44
-115.067
63.1782
279.274
338.375
371.34
383.384
388.326
389.532
389.841
389.661
4.4717
-0.344678
-5.1961
-11.0181
-16.4865
-18.8322
-15.7994
-7.97105
1.8807
10.3457
16.0818
19.2269
20.5229
21.5208
22.6923
24.4409
26.8976
29.995
33.4439
37.0622
40.4134
42.7176
43.2287
41.4918
37.4288
31.5588
24.9446
19.0397
14.9055
12.9208
12.8678
14.2449
16.3275
18.6899
20.8024
22.1165
21.9905
19.035
11.5679
-2.35087
-24.0733
-53.7681
-87.4827
-118.883
-145.19
-168.405
-190.55
-205.148
-195.602
-158.689
-67.4031
94.5684
262.433
326.284
361.101
376.607
383.721
386.411
387.623
387.819
5.35064
0.514353
-4.68293
-10.4834
-15.5979
-17.7096
-15.0352
-8.00379
1.04192
9.26257
15.264
18.8156
20.839
22.1703
23.4925
25.2577
27.6094
30.4719
33.6765
36.9379
39.8482
41.7384
41.9815
40.2082
36.4179
31.1164
25.2316
19.9063
16.0298
14.0005
13.6557
14.543
16.146
17.919
19.3371
19.917
18.9129
15.1176
7.04855
-6.88914
-27.7951
-55.225
-85.3526
-112.878
-136.48
-156.53
-172.765
-177.957
-165.853
-122.326
-27.6724
118.367
252.511
317.766
353.714
371.579
380.378
384.16
386.058
386.534
4.65488
0.357401
-4.38119
-10.0612
-15.0319
-17.0103
-14.5265
-7.91341
0.662943
8.76542
14.8684
18.8111
21.1246
22.6353
24.0377
25.7956
28.0837
30.8384
33.9186
36.9774
39.5886
41.184
41.24
39.435
35.8086
30.854
25.4103
20.4424
16.7242
14.6324
14.0661
14.6739
15.984
17.3951
18.4041
18.4978
16.8988
12.5165
4.07289
-9.76044
-29.8237
-55.5813
-83.2585
-108.78
-130.991
-149.118
-161.932
-165.229
-146.285
-97.2938
-0.0872315
131.333
246.654
312.133
348.907
368.23
378.114
382.74
385.071
385.732
3.84046
-0.167489
-4.35657
-9.93001
-14.8287
-16.7334
-14.3391
-7.92504
0.45067
8.49977
14.6978
18.7937
21.2424
22.8355
24.2761
26.0239
28.2697
30.9682
33.9568
36.9012
39.3817
40.8571
40.8408
39.0355
35.5015
30.7225
25.489
20.6898
17.0433
14.9141
14.2453
14.7183
15.8627
17.106
17.9393
17.8114
15.9542
11.3223
2.71549
-11.0307
-30.5627
-55.2808
-81.7554
-106.481
-128.141
-145.365
-156.599
-157.498
-136.987
-85.1606
11.5939
136.997
243.984
309.382
346.611
366.594
377.031
382.05
384.615
385.371
4.31225
-0.0113705
-7.92558
-18.5372
-27.8002
-31.2243
-26.473
-15.4314
-2.47547
8.84984
16.8715
21.4162
23.2198
23.5519
23.5583
24.1418
25.8076
28.7868
33.0707
38.2994
43.6654
47.9319
49.8564
48.946
45.3587
39.8015
33.3034
26.9681
21.7031
18.0135
15.8895
14.8764
14.3737
13.8651
12.8937
10.9392
7.36697
1.20531
-8.78076
-23.6905
-43.5492
-67.2746
-91.7603
-115.01
-135.451
-153.136
-166.742
-170.76
-155.335
-101.942
8.09102
149.951
265.28
329.327
362.926
379.528
387.402
390.489
391.892
392.091
4.66103
0.752455
-7.05875
-17.579
-26.7711
-30.2944
-26.0484
-15.6735
-3.26831
7.64085
15.4854
20.0098
21.8507
22.2058
22.2482
22.889
24.6543
27.8303
32.415
38.139
44.1644
49.0162
51.1884
50.2082
46.2567
40.1623
33.0781
26.2524
20.7107
17.0259
15.1961
14.4841
14.224
13.8441
12.8283
10.6881
6.74321
-0.0793635
-11.0233
-27.3048
-48.9367
-74.2206
-99.7261
-123.389
-143.541
-160.234
-173.421
-179.579
-168.706
-117.092
0.766464
158.402
283.131
345.93
376.716
390.14
396.095
397.627
397.986
397.709
3.60405
0.853325
-6.36988
-16.2931
-25.1339
-28.6403
-25.0725
-15.6192
-4.06083
6.20675
13.8004
18.285
20.2143
20.6847
20.8456
21.6029
23.522
26.8655
31.6643
37.8093
44.4283
49.8134
52.2499
51.1974
46.8553
40.1972
32.4966
25.1418
19.2505
15.4681
13.5534
12.9243
12.7798
12.4027
11.2567
8.88484
4.56394
-2.68281
-14.2779
-31.3936
-53.8916
-80.0516
-105.795
-129.12
-148.127
-163.312
-176.157
-185.947
-181.192
-131.409
-4.13291
170.147
303.58
363.084
389.961
400.637
404.285
404.27
403.609
402.868
3.36154
1.04566
-5.50787
-14.6609
-22.8905
-26.3894
-23.5582
-15.2803
-4.81172
4.63973
11.7676
16.2007
18.2846
18.9751
19.3365
20.256
22.3443
25.817
30.789
37.3256
44.525
50.3417
53.1011
52.0025
47.3403
40.1863
31.9769
24.253
18.32
14.7531
13.312
13.2419
13.5
13.3973
12.3685
9.73618
4.86911
-2.98327
-15.1983
-32.8342
-55.5936
-81.6374
-106.505
-129.053
-147.091
-161.043
-175.857
-192.808
-195.08
-145.99
-4.9595
184.816
326.179
380.05
402.45
410.299
411.681
410.179
408.579
407.41
1.44269
0.739383
-4.78515
-12.468
-19.8739
-23.5662
-21.6304
-14.6836
-5.54754
2.92953
9.51307
13.8739
16.1964
17.2385
17.9324
19.0992
21.3517
24.9321
30.0496
36.8957
44.5893
50.8818
53.7517
52.3308
47.5311
40.0578
31.5635
23.5533
17.3681
13.7004
12.179
12.0388
12.188
11.9639
10.811
8.19401
3.46616
-4.18086
-15.9626
-33.1751
-55.8276
-81.5828
-106.159
-129.231
-148.327
-162.698
-182.961
-205.464
-212.007
-160.106
-2.82587
199.935
348.639
394.728
413.516
418.405
417.777
414.984
412.615
411.083
2.99094
0.332442
-3.60549
-9.99395
-16.5761
-20.2862
-19.2231
-13.6922
-5.94114
1.48727
7.44188
11.6515
14.2127
15.6586
16.7458
18.1899
20.6067
24.2664
29.4328
36.2941
44.0352
50.4593
53.4367
52.1095
47.327
39.7791
31.2027
23.0953
16.8725
13.3253
12.0096
11.8959
12.0985
11.8991
10.6847
8.0106
3.3113
-4.21592
-15.8697
-32.7603
-55.0625
-80.8634
-105.741
-128.41
-145.67
-156.362
-174.729
-206.568
-215.976
-162.996
1.34677
210.206
363.389
404.934
421.126
423.952
421.941
418.261
415.373
413.589
0.288993
-0.0805037
-2.62183
-7.73354
-13.4218
-16.8461
-16.3489
-12.0339
-5.64855
0.603851
5.78717
9.7209
12.4187
14.2108
15.6916
17.4892
20.1712
24.0118
29.181
35.9513
43.5437
49.9226
52.8088
51.8587
46.8696
39.3699
30.904
22.8876
16.5877
12.8695
11.4757
11.3724
11.6521
11.6266
10.6803
8.35773
3.78392
-3.986
-15.7514
-32.5774
-54.4548
-79.6033
-104.115
-126.894
-145.489
-164.06
-199.41
-227.102
-224.174
-168.691
-1.29889
216.841
373.384
410.518
425.018
426.74
424.015
419.888
416.744
414.837
1.99191
0.953994
-1.00069
-5.1542
-10.1212
-13.4232
-13.7584
-10.7987
-5.66822
-0.282705
4.35761
8.03655
10.7775
12.8062
14.6252
16.731
19.6434
23.6193
28.8408
35.4467
42.7719
48.9631
51.9814
50.9555
45.8702
38.4261
30.0404
21.9559
15.5834
11.9072
10.4584
10.5822
11.0493
11.0951
10.1402
7.87176
3.45294
-3.93429
-15.4421
-32.3266
-54.5233
-80.3342
-104.661
-125.537
-139.363
-155.29
-177.937
-206.736
-214.747
-161.93
-5.97229
210.39
370.452
408.667
424.212
426.333
423.777
419.732
416.632
414.742
1.89707
1.45336
0.0599806
-3.18751
-7.26844
-10.1511
-10.7725
-8.6255
-4.83384
-0.506311
3.53434
6.94425
9.66006
11.8327
13.8937
16.3267
19.4956
23.5706
28.7099
35.0184
41.9443
47.9029
50.8976
49.9678
45.1575
37.984
29.8519
22.0452
15.8122
12.0208
10.597
10.6689
11.3
11.5933
10.9515
8.93736
4.52432
-3.00889
-14.9804
-32.3844
-54.8407
-80.5957
-106.226
-129.195
-147.728
-167.916
-190.04
-208.964
-211.859
-160.885
-13.457
197.502
359.249
402.099
419.842
423.366
421.62
418.074
415.252
413.495
4.0956
2.80175
1.26913
-1.44355
-4.94029
-7.53912
-8.49931
-7.18042
-4.32095
-0.75862
2.81425
6.00506
8.66029
10.9245
13.1778
15.8261
19.1849
23.3941
28.4978
34.5408
40.9936
46.5137
49.3141
48.3228
43.8272
37.0491
29.2918
21.7765
15.7428
11.9347
10.3788
10.4005
11.0855
11.5987
11.2603
9.5606
5.61911
-1.6606
-13.5973
-31.1566
-53.8039
-79.641
-105.941
-129.628
-148.852
-168.225
-191.215
-209.681
-210.553
-160.57
-20.1627
183.246
344.613
392.552
412.901
418.366
417.874
415.132
412.771
411.237
4.38375
3.32387
2.23891
0.142118
-2.74706
-5.06229
-6.19158
-5.5375
-3.4706
-0.55499
2.59571
5.5568
8.15172
10.5012
12.9139
15.7557
19.2739
23.5108
28.4495
34.1137
40.0573
45.102
47.7422
46.9199
42.7723
36.452
29.1836
22.1135
16.36
12.6515
11.0199
10.9415
11.5643
12.2924
12.3009
11.1534
7.8843
1.25485
-10.1256
-27.278
-50.0187
-76.3535
-103.316
-127.542
-147.78
-168.276
-192.458
-208.946
-206.785
-158.12
-25.3457
168.02
326.606
380.087
403.6
411.435
412.594
410.937
409.224
408.001
5.23821
4.05878
3.04555
1.38277
-1.04079
-3.06253
-4.25482
-3.99595
-2.48859
-0.0860134
2.66363
5.36768
7.8152
10.136
12.6069
15.5452
19.1236
23.345
28.145
33.4107
38.7961