/*--------------------------------*- C++ -*----------------------------------*\
| =========                 |                                                 |
| \\      /  F ield         | OpenFOAM: The Open Source CFD Toolbox           |
|  \\    /   O peration     | Version:  2.1.1                                 |
|   \\  /    A nd           | Web:      www.OpenFOAM.org                      |
|    \\/     M anipulation  |                                                 |
\*---------------------------------------------------------------------------*/
FoamFile
{
    version     2.0;
    format      ascii;
    class       volScalarField;
    location    "0.00115";
    object      p_rgh;
}
// * * * * * * * * * * * * * * * * * * * * * * * * * * * * * * * * * * * * * //

dimensions      [1 -1 -2 0 0 0 0];

internalField   nonuniform List<scalar> 
36520
(
11.6752
6.72984
-7.26603
-34.0784
-61.9539
-74.5108
-60.8001
-28.5651
6.25103
30.5216
42.1948
45.0587
43.5035
40.7655
38.7278
38.1986
39.2367
41.4291
44.1225
46.6131
48.3983
49.0309
48.193
45.7786
41.9451
37.0578
31.6546
26.377
21.8227
18.4244
16.3347
15.442
15.4669
16.0456
16.6867
16.8974
16.1525
13.7705
8.87301
0.463706
-12.4919
-30.9378
-54.8507
-83.5186
-117.971
-160.02
-202.379
-223.832
-205.207
-132.302
4.4852
147.277
249.753
313.067
348.25
367.252
377.289
381.9
384.371
385.088
13.2259
8.67322
-5.79234
-34.5508
-65.5488
-79.9224
-65.1812
-29.7763
7.90734
33.0639
44.0822
46.3379
44.0806
40.8717
38.5969
38.0233
39.137
41.4754
44.3057
46.9023
48.7823
49.4695
48.6456
46.194
42.286
37.2894
31.7423
26.3101
21.6304
18.1603
16.0703
15.2268
15.355
16.0558
16.8676
17.2751
16.7458
14.6008
9.9672
1.83689
-10.9206
-29.3574
-53.6521
-82.9286
-118.145
-163.106
-211.458
-237.774
-222.292
-151.396
-11.9473
145.045
252.4
316.118
350.625
368.93
378.53
382.572
384.908
385.533
15.5136
12.3401
-2.5924
-35.1604
-72.5108
-90.7757
-73.9764
-32.1902
11.1633
37.9801
48.1049
48.6769
45.0965
40.9558
38.1902
37.4548
38.642
41.2674
44.4351
47.3803
49.4909
50.337
49.5636
47.0419
42.9755
37.7427
31.8839
26.1126
21.1659
17.5545
15.4461
14.6968
15.0231
16.0123
17.2042
18.0761
18.0771
16.5448
12.615
5.05839
-7.39907
-25.9359
-51.0205
-81.5466
-118.399
-169.019
-229.586
-265.486
-255.577
-190.057
-48.8163
139.022
258.088
322.246
355.468
372.294
380.753
384.208
386.015
386.449
17.1144
16.6701
2.41439
-35.29
-82.2019
-106.678
-86.9911
-35.8293
15.9287
45.0415
53.6803
52.0463
46.516
41.0342
37.5958
36.7331
38.2416
41.4281
45.1407
48.3295
50.6576
51.7087
51.0051
48.3527
44.0275
38.4239
32.0811
25.7535
20.3599
16.5287
14.4544
13.8919
14.5038
15.9336
17.6725
19.1285
19.8077
19.0435
16.0071
9.22707
-2.81819
-21.4714
-47.8931
-80.5257
-119.81
-177.08
-252.1
-300.807
-296.94
-244.752
-94.0461
123.542
267.939
331.369
362.777
377.376
384.108
386.555
387.666
387.82
17.9584
21.2942
8.91225
-34.3553
-94.0519
-126.953
-103.725
-40.3785
22.2081
53.9143
60.5675
55.9432
48.0022
40.8582
36.5896
35.5062
37.1315
40.6288
44.7123
48.7337
51.8717
53.4587
52.9775
50.1556
45.4456
39.3174
32.3075
25.2064
19.1413
14.945
12.8745
12.5977
13.566
15.5012
17.9159
20.2191
21.7604
21.9321
20.1036
14.4237
3.21936
-15.0593
-42.6734
-77.7611
-118.24
-179.75
-267.316
-332.259
-330.057
-304.431
-146.061
97.0022
284.792
343.209
372.566
383.853
388.473
389.532
389.776
389.571
17.2847
25.1896
15.6757
-32.6458
-107.47
-150.094
-123.518
-45.1912
29.6281
63.8931
68.0269
60.1474
49.4808
40.3997
35.1838
33.8743
35.9476
40.3877
45.2953
49.9471
54.0598
56.1747
55.7989
52.5634
47.2686
40.4382
32.6016
24.4658
17.4634
12.7242
10.6572
10.7692
12.2546
14.7781
17.8052
20.8811
23.4002
24.9276
24.2391
19.8094
9.98797
-6.9709
-35.4174
-73.5038
-114.354
-177.788
-278.492
-358.055
-361.111
-369.613
-206.186
64.0823
315.704
358.311
384.396
391.707
393.68
393.055
392.288
391.653
16.7056
29.9763
22.502
-29.9957
-122.269
-174.278
-138.925
-50.1494
36.2534
73.5679
75.9868
64.8425
51.0422
39.7665
33.5686
32.1877
34.6435
39.3459
44.6439
49.8964
55.1737
58.8337
58.9013
55.186
49.4428
41.8831
33.1464
23.8809
15.9667
10.6703
8.73312
9.06913
10.8931
13.6808
16.9117
20.4297
23.6131
26.0138
26.7486
24.1668
16.4468
2.92706
-25.9112
-67.076
-110.102
-171.064
-289.51
-399.355
-427.133
-486.068
-331.174
65.7803
362.153
379.139
398.339
400.834
399.641
397.102
395.189
394.062
-3.83623
32.0658
26.9356
-29.558
-137.624
-192.773
-159.308
-68.3557
40.1589
88.9382
86.0946
69.7276
52.0446
38.1602
30.6091
28.3806
30.2969
37.087
43.67
49.2918
56.6558
62.7809
63.6566
60.0008
52.6867
43.9524
34.3557
24.1862
15.3174
9.97018
8.16424
8.75099
10.5067
13.2172
16.3739
19.8247
23.4191
26.6052
28.0458
26.6582
20.2048
6.23127
-19.9786
-64.7047
-112.938
-150.999
-240.053
-591.188
-514.98
-537.649
-283.907
144.75
399.467
404.185
414.916
411.767
406.808
402.03
398.796
397.084
28.4366
34.5607
22.1415
-32.7888
-143.272
-201.557
-140.184
-26.8655
47.445
78.2916
79.2684
67.3961
50.5415
35.4344
28.1327
28.0952
32.8708
39.3772
42.7096
47.72
56.4877
64.4941
66.3034
62.8416
54.7273
45.2111
34.9713
23.8272
13.7393
7.65551
6.66029
8.25323
10.1512
12.6042
15.5851
19.1569
23.5045
26.1674
28.2367
28.1431
23.251
13.4328
-9.21718
-56.2612
-110.082
-153.914
-198.478
-182.308
-582.278
-519.703
-205.639
196.998
417.843
422.58
427.387
419.52
411.526
405.001
400.79
398.643
32.0047
28.9161
16.5368
-27.3216
-127.295
-201.264
-171.907
-58.3698
41.2886
82.6895
86.7847
70.8319
52.3103
36.178
27.9072
27.2027
30.9283
34.9612
38.8474
47.3136
60.1685
70.1223
72.7423
66.7814
56.219
45.8783
34.788
23.1406
13.1564
7.74328
6.98753
8.52344
10.2739
12.5351
15.8563
19.3222
23.3654
28.1897
30.9673
31.433
28.2149
15.6384
-18.5347
-64.9897
-113.836
-161.057
-193.328
40.0404
-738.061
-626.974
-157.283
234.859
431.226
429.496
430.867
421.326
412.238
405.103
400.567
398.298
14.5173
23.8643
19.3009
-20.476
-138.889
-228.003
-174.286
-48.4662
50.1187
90.074
92.9595
75.2021
54.0047
36.8614
27.0026
24.9937
27.6814
31.8198
36.4055
42.9178
54.0836
71.0277
82.4044
71.3448
58.8513
47.4407
34.8637
22.3925
12.3899
8.27989
8.67409
10.9969
13.1257
15.2665
17.7326
20.3748
24.1074
27.7582
31.5511
35.4599
32.2169
20.9324
-9.97625
-63.4155
-113.613
-158.072
-192.041
1.19855
-713.794
-638.747
-118.169
293.928
443.711
435.562
432.923
422.353
412.608
405.119
400.399
398.044
-9.97159
23.7967
30.869
-11.6274
-152.923
-254.287
-195.797
-64.2436
45.1595
102.103
108.417
84.3216
56.6088
35.8863
24.7202
22.061
24.5417
29.353
34.6439
43.3196
53.6716
64.6748
70.5983
68.0961
59.5752
49.143
36.8761
24.8905
15.8539
11.2909
10.4556
11.6557
13.5273
15.5688
18.0209
21.1018
25.0982
29.2552
32.5124
34.5803
30.0571
17.8347
-11.7407
-65.0982
-117.353
-155.943
-198.312
-106.831
-544.923
-642.63
-169.278
352.764
449.652
438.011
431.387
420.757
411.289
404.028
399.449
397.158
-24.5338
30.9171
43.4048
-1.67974
-170.869
-320.915
-278.749
-90.3947
40.1284
117.424
141.153
100.432
63.4383
38.9136
25.2993
21.3862
22.95
27.9768
33.7513
42.4438
51.27
62.4427
70.928
67.3885
61.5402
52.1466
39.495
26.4788
16.5673
10.9155
9.38695
10.8421
13.5899
17.3959
22.1401
24.8902
26.9439
30.3579
33.8983
34.5325
28.8198
13.4601
-19.7591
-73.1979
-123.921
-157.199
-192.606
-109.481
-585.411
-677.557
-127.179
332.108
446.499
437.39
431.205
420.726
411.344
404.104
399.525
397.231
12.7308
44.2755
68.3186
11.2312
-181.752
-433.372
-329.574
-91.7306
34.2255
141.796
179.484
115.446
65.8391
38.0986
21.6869
17.531
19.8922
25.0447
31.3546
38.1523
51.2497
68.6916
81.5043
73.5276
62.6191
50.8698
37.5823
24.5699
13.5388
7.93132
7.92836
10.2537
12.9294
16.1966
19.1143
20.6383
23.0288
27.0707
31.298
32.4137
25.9721
9.59681
-24.3202
-75.961
-123.661
-154.251
-182.055
-109.86
-699.284
-649.346
12.085
273.238
438.238
433.398
431.911
421.94
412.55
405.175
400.488
398.136
-15.514
45.6234
118.384
23.3415
-158.384
-466.197
-490.395
-161.145
40.3803
207.272
222.788
130.099
68.9108
38.4072
19.334
14.1555
17.1372
23.8589
34.5795
47.2161
56.2765
66.3251
71.2692
67.1217
60.0657
49.9255
37.8173
25.9696
16.1758
9.32691
8.1202
10.6912
14.0441
18.9157
22.2703
22.828
23.5527
24.6759
25.7334
23.9426
15.6989
-3.18164
-37.4784
-82.9119
-127.535
-159.933
-190.738
-144.889
-619.732
-614.239
83.3779
236.977
419.702
427.196
428.613
420.317
411.869
404.968
400.525
398.272
33.8422
109.351
105.568
-65.7894
-293.421
-409.657
-245.22
-28.977
96.8619
153.438
149.074
96.6481
59.8611
36.5159
22.1367
14.7387
15.4146
21.2795
30.0269
41.1292
53.5072
63.4824
67.5495
64.9486
58.238
48.2893
36.8106
26.2952
17.5494
11.8764
10.1919
11.4784
13.5386
15.7713
18.2026
20.33
22.5252
23.904
23.2148
18.6566
6.48209
-16.5224
-51.6706
-94.6552
-133.075
-156.728
-167.656
-113.574
-514.054
-549.842
74.3468
227.498
416.969
421.355
425.047
418.459
411.125
404.851
400.733
398.629
-11.423
53.892
48.919
-44.222
-177.588
-241.656
-178.592
-45.8356
29.7871
93.1892
101.597
75.5402
51.7808
33.7003
22.2234
17.0826
17.1131
21.2464
28.9247
39.6687
51.6898
62.1152
66.984
64.9052
57.8111
47.6648
36.0338
25.1672
16.5882
11.5358
9.94395
11.4604
13.4598
15.7723
17.9672
20.3514
23.1428
24.7623
25.2384
18.794
1.28566
-25.615
-60.9697
-101.591
-134.923
-159.863
-178.54
-209.657
-382.935
-518.541
-145.918
184.708
407.373
406.439
414.641
411.719
406.962
402.27
399.064
397.363
17.3667
31.3101
13.9023
-48.8073
-123.509
-156.056
-115.112
-32.8924
24.75
63.0487
70.1403
57.5636
43.6444
31.6815
23.4362
19.6565
20.2542
23.8633
30.4354
39.6398
49.5944
57.8727
61.7189
60.7311
55.2952
46.4397
36.0724
26.245
18.4328
13.9231
12.88
13.3208
14.467
15.813
17.2393
19.2228
21.3618
22.4483
20.6045
11.9874
-7.13776
-37.0413
-74.5932
-110.341
-135.896
-160.928
-194.911
-252.668
-305.815
-387.619
-278.833
77.4426
374.688
380.967
398.588
401.054
399.893
397.4
395.509
394.385
15.4838
18.4093
2.31648
-37.7567
-83.8765
-106.055
-80.1128
-27.5136
14.6097
42.0488
49.484
44.8728
37.3664
29.8036
24.275
21.8255
22.6582
26.2795
31.9519
39.711
48.0776
54.9964
57.9999
56.7291
51.9707
44.2192
35.2084
26.5345
19.6526
15.5847
14.2201
14.3709
15.0953
15.9917
16.8947
18.0914
19.1662
18.5875
14.2618
3.00439
-17.4554
-47.4749
-83.3738
-117.113
-142.034
-166.371
-204.574
-244.283
-256.692
-264.147
-186.654
42.0579
334.428
358.35
384.407
391.635
393.631
393.082
392.36
391.739
13.3871
10.0407
-4.00973
-30.271
-59.6439
-74.0972
-57.6372
-23.1841
7.69714
28.5767
36.6636
36.6017
32.9158
28.3264
24.7733
23.336
24.289
27.3813
32.5769
39.416
46.6231
52.3277
55.1561
53.9745
49.6701
42.7708
34.7453
26.9651
20.7116
16.8328
15.1527
14.8646
15.1586
15.618
16.0987
16.5414
16.3899
14.336
8.14389
-4.63024
-25.5554
-54.3028
-86.7883
-116.729
-140.486
-164.274
-199.228
-227.147
-232.741
-211.037
-116.957
67.1207
294.019
341.859
372.271
383.552
388.209
389.349
389.643
389.453
10.2875
5.28768
-6.86961
-25.8142
-45.2708
-53.9702
-43.0475
-19.9381
2.95586
19.5709
28.0743
30.6012
29.5182
27.0842
25.0148
24.362
25.5853
28.5885
33.1173
39.1213
45.4628
50.4197
52.6322
51.5542
47.635
41.4531
34.2691
27.2763
21.5671
17.8275
15.9287
15.2755
15.226
15.2812
15.2
14.7132
13.2
9.47674
1.74369
-11.9062
-32.4734
-59.1846
-88.0142
-115.124
-137.913
-160.519
-188.052
-206.623
-207.547
-169.419
-66.7819
100.391
271.856
330.229
362.803
377.365
384.07
386.551
387.671
387.833
8.46558
2.5842
-8.10615
-22.4889
-36.2226
-41.7797
-33.8635
-17.4391
0.214751
14.1486
22.6441
26.4146
26.9324
25.9763
24.9967
24.9444
26.219
29.1088
33.3773
38.7569
44.3138
48.7017
50.6868
49.6978
46.0971
40.4771
33.9131
27.4959
22.1718
18.5047
16.4553
15.5265
15.1712
14.8991
14.3694
13.1941
10.7132
5.8966
-2.73775
-16.6469
-36.3512
-60.6163
-86.2936
-110.858
-132.518
-152.891
-172.513
-182.093
-170.235
-127.246
-24.7605
126.352
259.857
322.154
356.102
372.978
381.301
384.736
386.501
386.921
6.43211
0.776325
-8.42474
-20.2497
-30.6771
-34.608
-28.6484
-15.7934
-1.21856
11.1208
19.3984
23.7669
25.2721
25.2085
24.9281
25.3106
26.8803
29.6916
33.739
38.6653
43.6848
47.6167
49.2952
48.3924
45.0269
39.8002
33.6665
27.6313
22.5463
18.9071
16.7213
15.5869
14.9768
14.4255
13.5414
11.8618
8.75728
3.2193
-5.97826
-19.8904
-38.8504
-61.4619
-85.2286
-108.162
-128.835
-147.392
-162.329
-166.596
-151.263
-99.0465
4.02008
139.166
252.874
316.459
351.539
369.97
379.478
383.492
385.768
386.368
4.65059
-0.467414
-8.53994
-19.1219
-28.0847
-31.2476
-26.2046
-14.9124
-1.76196
9.75474
17.8638
22.453
24.305
24.736
24.8046
25.3959
26.9871
29.7807
33.7448
38.4675
43.2275
46.8855
48.5737
47.7259
44.4906
39.4649
33.5511
27.7171
22.7667
19.1537
16.9008
15.6487
14.9055
14.2132
13.1619
11.2606
7.87478
2.09864
-7.16752
-20.8768
-39.2854
-61.0088
-84.0942
-106.449
-126.746
-144.535
-157.485
-159.076
-139.922
-85.0648
17.5926
144.589
250.01
313.746
349.439
368.581
378.549
383.115
385.515
386.196
7.5291
5.0207
4.29945
3.19296
1.87816
0.753741
-0.00934224
0.0376511
0.918476
2.51968
4.52455
6.66856
8.81967
11.0498
13.5156
16.3882
19.7002
23.3873
27.4076
31.5583
35.5245
38.7107
40.3854
39.9745
37.4611
33.3526
28.3877
23.3845
19.0779
15.9746
14.1954
13.5322
13.6436
14.0987
14.3741
13.8348
11.7016
6.95951
-1.61349
-15.1353
-34.0679
-57.7031
-83.2729
-107.173
-127.748
-144.904
-158.895
-165.177
-151.523
-103.022
-4.05497
128.638
245.478
312.565
350.26
369.766
379.629
384.165
386.439
387.064
8.37361
5.63186
4.34863
3.27186
2.01777
0.835274
-0.031417
-0.066927
0.789361
2.4065
4.43769
6.5836
8.71033
10.9018
13.3444
16.2254
19.5663
23.2872
27.3371
31.5511
35.6503
38.9968
40.8045
40.4228
37.8215
33.5571
28.4243
23.2619
18.8408
15.7098
13.9846
13.4115
13.6523
14.2754
14.7474
14.4356
12.5714
8.0603
-0.3516
-13.9724
-33.4519
-58.2341
-85.1355
-110.072
-131.067
-148.084
-162.467
-171.773
-162.358
-117.615
-20.3561
120.493
248.993
315.776
353.042
371.626
380.819
384.862
386.925
387.45
9.1534
5.97973
4.33788
3.42708
2.3033
0.983863
-0.0839283
-0.294654
0.527207
2.19267
4.28177
6.43603
8.50692
10.6126
13.0063
15.9024
19.3096
23.1427
27.3003
31.646
35.9412
39.5589
41.6258
41.299
38.5246
33.9668
28.5111
23.0359
18.3858
15.2001
13.5875
13.2285
13.736
14.7246
15.674
15.9354
14.7144
10.7643
2.60496
-11.3312
-32.0932
-59.0224
-88.6576
-115.844
-137.781
-154.328
-169.18
-184.806
-184.59
-148.234
-54.3864
101.915
257.061
322.257
358.648
375.313
382.975
386.318
387.873
388.199
8.13984
5.47022
4.24281
3.79809
2.86551
1.27945
-0.157064
-0.621345
0.164207
1.92846
4.1144
6.27954
8.24217
10.2015
12.5064
15.4145
18.9121
22.8784
27.1386
31.6364
36.2109
40.2868
42.7841
42.5729
39.5561
34.5721
28.6497
22.7343
17.764
14.5088
13.0599
13.0335
13.9367
15.439
17.1112
18.2887
18.0337
14.9936
7.42197
-6.53714
-28.7329
-58.7404
-92.5305
-123.813
-147.574
-163.186
-177.554
-202.493
-215.685
-191.989
-103.526
69.2222
271.066
332.024
366.728
380.22
386.211
388.3
389.148
389.195
6.24485
4.25491
3.984
4.38927
3.6441
1.59658
-0.360768
-1.12401
-0.313673
1.68317
4.03811
6.19148
7.97846
9.7127
11.9099
14.8591
18.4759
22.5791
27.0036
31.7377
36.7244
41.363
44.3193
44.2253
40.8635
35.3244
28.8193
22.3604
16.9962
13.6664
12.453
12.7812
14.1001
16.1739
18.7665
21.2386
22.4786
20.7553
14.0651
-0.0229407
-23.8012
-57.863
-96.9968
-131.78
-157.169
-170.152
-184.749
-220.787
-250.547
-243.509
-168.437
28.5816
292.03
345.247
376.707
386.152
389.935
390.612
390.639
390.353
2.63802
2.00782
3.4757
5.35089
4.63917
1.92222
-0.680692
-1.62812
-0.577121
1.77231
4.24127
6.26126
7.73145
9.14781
11.2488
14.3039
18.0582
22.3281
26.8693
31.7904
37.1895
42.4417
46.0483
46.1268
42.3252
36.1249
28.945
21.8786
16.0855
12.6562
11.623
12.1848
13.8493
16.625
20.3407
24.2036
27.4018
28.0432
23.9433
11.6148
-11.5741
-47.1743
-93.6508
-135.919
-163.072
-174.305
-189.353
-234.73
-277.687
-286.34
-257.216
6.77385
317.92
362.291
387.314
392.661
393.937
393.139
392.309
391.664
-5.68682
-2.57532
2.92008
6.93015
5.96781
2.07461
-1.55438
-2.41391
-0.728261
2.30348
4.82102
6.48523
7.40167
8.39502
10.4515
13.7171
17.56
21.7307
26.3005
31.6939
37.8112
43.8949
48.5661
48.612
44.1159
36.9987
28.9401
21.1365
14.7948
11.1935
10.1522
10.7001
12.203
14.9245
19.0857
24.8555
30.1553
33.1507
31.5603
21.3077
-0.125215
-34.0779
-82.9991
-131.647
-164.919
-179.469
-196.475
-246.081
-293.189
-330.353
-388.385
22.8709
356.155
384.957
399.467
400.324
398.814
396.382
394.596
393.54
-15.4541
-7.89644
2.40861
9.41878
7.50049
1.20785
-3.74772
-3.946
-0.954125
3.44536
5.94664
6.90853
6.89597
7.1946
9.28265
12.9969
17.1274
21.2542
26.0474
31.9728
39.4092
47.3363
52.357
51.5086
46.0479
37.7482
28.7546
20.0769
13.1156
9.34454
8.4472
9.09667
10.5888
13.6982
18.6579
25.0415
31.7775
36.3148
37.0218
29.3274
10.7019
-19.7777
-65.8853
-119.88
-162.974
-181.521
-191.756
-233.972
-281.173
-413.979
-532.894
124.779
403.28
405.972
412.868
409.253
404.724
400.467
397.599
396.063
-38.2899
-17.7676
0.243504
13.9316
11.7106
1.38863
-5.79518
-6.27732
-0.394592
7.07541
9.268
8.92508
7.16371
6.2259
8.41489
12.8125
16.8861
20.2052
24.444
30.7613
39.2457
48.5645
54.1479
54.2089
48.2978
38.6756
28.8087
19.1547
11.5227
7.57785
6.42291
6.73403
7.67936
9.57152
14.4582
21.2865
28.8805
35.7334
39.2666
34.6786
18.3705
-7.65518
-46.8073
-101.589
-152.255
-182.127
-201.628
-173.986
-343.373
-557.048
-288.273
248.316
445.175
425.954
426.542
418.975
411.403
405.175
401.123
399.047
-40.8998
-29.8174
5.40263
35.819
18.2499
-2.36371
-19.2349
-15.5446
0.836617
12.6202
13.9529
11.0221
7.16553
5.8199
8.28826
12.9375
17.4988
20.7804
24.6065
31.1802
41.0785
52.8246
59.2294
58.52
48.5756
37.538
27.5641
17.2926
9.44793
6.36117
6.65239
7.60522
9.21324
11.8462
17.1062
23.9964
31.4581
37.5714
39.4185
35.0964
20.3524
-6.25314
-47.4704
-101.715
-155.379
-186.677
-210.53
-123.371
-655.306
-662.131
-19.1879
277.908
450.255
435.127
433.524
423.961
414.708
407.321
402.578
400.185
52.3761
-37.0403
-35.6294
-4.92584
5.74408
-5.63985
-13.2143
-8.2456
7.76976
22.158
18.2275
11.5694
6.11581
5.09574
8.3891
13.8375
18.8888
22.4645
26.0981
32.9096
43.516
54.1344
59.6331
57.8069
47.5345
36.7518
25.8165
14.7957
7.0049
4.19694
5.42718
7.46675
9.71298
13.3703
20.6354
29.2511
38.0123
45.8991
49.3931
46.7286
32.3741
7.11977
-34.7851
-93.7761
-153.025
-195.438
-212.38
-90.6001
-829.637
-483.159
145.703
261.819
426.435
431.447
432.416
423.383
414.191
406.726
401.914
399.49
-67.2481
-104.597
-2.73654
91.6009
88.4177
-6.13973
-44.5922
-42.4317
6.6217
35.335
28.2187
18.1954
12.5456
10.9546
12.8115
16.7703
20.7145
23.6535
26.8343
33.9506
43.7214
53.2944
57.5303
55.2224
46.8925
36.1786
24.719
13.5978
6.14552
4.67565
7.07399
9.85692
12.0712
16.2345
24.1574
33.2537
42.1123
49.5581
52.1286
47.7555
34.4352
11.0302
-29.47
-86.9928
-145.763
-194.051
-191.538
-62.6397
-842.643
-442.199
192.918
266.37
405.569
429.718
432.155
423.301
414.073
406.525
401.66
399.214
53.1554
-56.4051
-37.1034
18.8003
0.61248
-63.2177
-66.4879
-28.767
43.5908
74.0692
48.9831
25.4907
15.1555
10.0457
10.6285
13.9361
18.1628
22.3894
26.442
34.715
46.4109
55.3873
58.5362
55.8499
47.7108
36.7267
24.4284
12.7625
5.2401
3.98087
6.46296
9.55854
12.0422
16.3723
24.7509
34.8173
44.2996
50.8231
51.8744
46.8961
33.1052
11.1985
-26.182
-81.8548
-141.644
-193.023
-185.397
0.868086
-836.474
-459.357
170.785
263.136
404.383
429.058
431.956
423.006
413.785
406.276
401.447
399.02
-14.057
-24.422
1.02816
0.704204
-29.9472
-71.3724
-52.8651
10.7712
54.1233
53.6373
37.7274
25.3488
17.7734
12.6039
11.0517
13.0071
16.7729
20.9825
26.2179
36.9854
49.2968
57.7067
60.1669
56.0818
46.0203
36.1644
24.0064
12.1434
4.76735
3.37842
5.89998
8.88894
11.2447
16.2775
23.9352
31.5107
39.6732
46.1037
48.2563
43.1152
29.5128
8.69573
-25.5211
-78.5555
-138.149
-186.149
-221.6
-206.039
-781.639
-339.955
33.6135
258.324
412.822
428.801
430.908
421.84
412.865
405.635
400.998
398.662
-29.4367
-19.0678
-7.19591
1.45971
-29.9362
-59.3138
-44.7608
-2.38854
38.7774
51.7859
41.1006
26.5168
16.5029
10.8972
10.4077
12.3849
15.5002
19.5156
23.9408
33.0524
46.2628
56.8457
61.036
56.7733
48.6366
36.9984
23.7479
10.3843
3.22593
2.64973
5.00929
6.77076
8.16133
15.2573
24.6004
32.0197
38.1445
42.6997
43.6632
39.2043
26.7487
6.68997
-27.6562
-78.2384
-136.752
-189.859
-222.659
-226.212
-606.318
-342.112
-116.448
255.026
407.715
426.8
426.974
418.76
410.704
404.172
399.971
397.836
-39.1509
-24.7195
-10.4493
-10.3271
-30.7853
-46.1645
-33.7874
-3.15706
26.4359
37.0744
33.6882
25.4251
17.7324
13.4888
12.6482
14.2247
17.3369
21.008
25.514
32.0827
42.489
52.4465
56.2686
53.8282
47.2361
36.9049
24.5582
14.1123
8.53372
7.53703
8.22592
9.34329
11.0176
15.0311
21.5693
27.6744
35.0713
40.0744
40.0491
32.8348
16.3203
-9.39013
-50.1773
-105.782
-161.483
-188.262
-219.737
-207.928
-396.48
-398.81
-232.793
228.072
398.089
413.681
417.212
412.144
406.335
401.198
397.808
396.036
-42.7114
-24.3494
-11.2606
-13.5009
-28.5915
-36.6063
-26.5178
-4.47182
17.309
27.8303
29.3174
23.712
17.6424
14.5466
14.4198
16.0416
18.8152
23.0313
27.9221
33.2835
41.0255
49.1846
52.4939
50.4448
45.184
35.9774
23.8938
13.0815
6.62963
4.84421
5.82318
7.83662
10.603
15.0342
21.0191
28.7728
35.0916
38.4556
35.9499
26.4616
7.48415
-20.3518
-60.4883
-108.87
-146.996
-177.09
-224.045
-277.148
-408.101
-405.613
-351.299
87.0093
375.546
401.606
411.54
408.684
404.415
400.17
397.299
395.748
-5.6269
-3.98345
-5.88664
-13.2756
-24.2086
-29.8256
-23.3708
-7.34975
9.34114
19.9636
23.7498
22.318
19.4621
17.5974
17.5786
19.1403
21.5407
25.5901
30.5267
36.133
42.7196
48.5567
50.8649
48.8656
43.2229
34.1083
23.0282
13.3375
7.99761
6.8261
8.10275
11.2655
15.1379
19.8281
24.9771
30.7993
35.3486
36.7995
32.7117
20.7949
0.18444
-31.2724
-76.549
-124.657
-160.511
-191.654
-219.448
-275.579
-304.669
-321.694
-254.612
26.9857
350.994
379.232
400.97
402.894
401.219
398.346
396.238
395.003
-3.24119
-5.4686
-7.2805
-12.7417
-20.3121
-23.7871
-19.0639
-7.29663
6.42474
15.5621
19.9919
20.8653
19.834
19.3372
19.8603
21.4753
24.0049
27.6538
31.9461
36.6904
41.8512
46.0176
47.6058
45.9443
40.9905
33.1287
23.7812
15.613
10.4618
8.8281
9.46116
11.8461
15.2326
19.3248
23.7671
27.9927
30.8558
30.5284
25.2865
12.0388
-10.2831
-44.126
-87.5799
-126.438
-152.945
-182.053
-214.025
-244.75
-253.505
-243.095
-164.514
30.4324
308.047
355.618
384.529
392.217
394.248
393.594
392.799
392.14
2.71074
-1.41809
-5.8787
-11.7216
-17.8623
-20.6571
-17.0562
-7.9248
3.31634
12.2498
17.5659
19.8478
20.3411
20.7231
21.635
23.3402
25.8652
29.1829
32.9386
37.0228
41.0924
44.1459
45.0937
43.4316
39.0033
32.3441
24.6438
17.9053
13.4478
11.6424
12.2392
14.1946
16.9665
19.9642
22.8217
25.216
26.4189
24.6312
18.1255
4.52744
-17.6771
-50.0835
-89.4715
-126.192
-154.382
-178.724
-204.346
-220.8
-221.944
-199.351
-114.984
63.259
279.354
338.456
371.421
383.465
388.407
389.613
389.922
389.742
4.55266
-0.263723
-5.11515
-10.9371
-16.4055
-18.7512
-15.7184
-7.89009
1.96165
10.4267
16.1627
19.3079
20.6038
21.6018
22.7732
24.5219
26.9786
30.076
33.5249
37.1432
40.4944
42.7986
43.3097
41.5728
37.5098
31.6398
25.0256
19.1206
14.9864
13.0017
12.9487
14.3259
16.4085
18.7708
20.8833
22.1974
22.0715
19.116
11.6489
-2.26991
-23.9924
-53.6872
-87.4017
-118.802
-145.109
-168.324
-190.469
-205.066
-195.521
-158.608
-67.3221
94.6494
262.514
326.365
361.181
376.688
383.802
386.492
387.703
387.9
5.43165
0.59536
-4.60192
-10.4024
-15.5169
-17.6286
-14.9542
-7.92278
1.12293
9.34358
15.345
18.8966
20.92
22.2513
23.5735
25.3387
27.6904
30.5529
33.7575
37.0189
39.9292
41.8194
42.0625
40.2892
36.4989
31.1974
25.3127
19.9873
16.1108
14.0815
13.7367
14.6241
16.227
18
19.4181
19.998
18.9939
15.1986
7.12956
-6.80813
-27.7141
-55.144
-85.2716
-112.797
-136.399
-156.449
-172.684
-177.876
-165.772
-122.245
-27.5914
118.448
252.592
317.847
353.795
371.66
380.459
384.241
386.139
386.615
4.73588
0.438394
-4.3002
-9.98024
-14.9509
-16.9293
-14.4455
-7.83242
0.743936
8.84641
14.9494
18.8921
21.2056
22.7163
24.1187
25.8766
28.1647
30.9194
33.9996
37.0584
39.6696
41.265
41.321
39.516
35.8896
30.935
25.4913
20.5234
16.8052
14.7134
14.1471
14.7549
16.065
17.476
18.4851
18.5788
16.9798
12.5975
4.15388
-9.67945
-29.7427
-55.5003
-83.1775
-108.699
-130.91
-149.037
-161.851
-165.148
-146.204
-97.2128
-0.00623786
131.414
246.735
312.214
348.988
368.311
378.195
382.821
385.152
385.813
3.92142
-0.0865307
-4.27561
-9.84905
-14.7477
-16.6525
-14.2582
-7.84408
0.531629
8.58073
14.7787
18.8746
21.3233
22.9165
24.357
26.1049
28.3506
31.0491
34.0377
36.9822
39.4626
40.9381
40.9217
39.1164
35.5825
30.8035
25.57
20.7708
17.1243
14.9951
14.3262
14.7993
15.9437
17.187
18.0202
17.8924
16.0351
11.4033
2.79644
-10.9497
-30.4818
-55.1999
-81.6744
-106.4
-128.06
-145.284
-156.518
-157.417
-136.906
-85.0797
11.6749
137.078
244.065
309.463
346.692
366.675
377.112
382.131
384.696
385.452
4.35184
0.0282219
-7.88598
-18.4976
-27.7606
-31.1847
-26.4334
-15.3918
-2.43588
8.88943
16.9111
21.4558
23.2594
23.5915
23.5979
24.1814
25.8472
28.8264
33.1103
38.339
43.705
47.9715
49.896
48.9856
45.3983
39.8411
33.3429
27.0077
21.7426
18.0531
15.9291
14.916
14.4133
13.9047
12.9333
10.9788
7.40656
1.2449
-8.74117
-23.6509
-43.5097
-67.2351
-91.7207
-114.971
-135.411
-153.096
-166.702
-170.72
-155.295
-101.902
8.13062
149.991
265.319
329.367
362.966
379.568
387.442
390.529
391.931
392.131
4.70349
0.794917
-7.01629
-17.5366
-26.7286
-30.2519
-26.006
-15.6311
-3.22585
7.68331
15.5279
20.0522
21.8932
22.2483
22.2907
22.9315
24.6967
27.8727
32.4574
38.1815
44.2068
49.0587
51.2308
50.2506
46.2992
40.2048
33.1205
26.2948
20.7531
17.0684
15.2386
14.5265
14.2664
13.8865
12.8707
10.7306
6.78568
-0.0369023
-10.9808
-27.2624
-48.8942
-74.1781
-99.6837
-123.347
-143.499
-160.191
-173.378
-179.536
-168.664
-117.049
0.808925
158.444
283.174
345.973
376.759
390.182
396.138
397.669
398.029
397.751
3.64943
0.898696
-6.32451
-16.2477
-25.0886
-28.5949
-25.0271
-15.5738
-4.01546
6.25212
13.8458
18.3304
20.2597
20.7301
20.891
21.6483
23.5674
26.9109
31.7097
37.8546
44.4737
49.8588
52.2953
51.2428
46.9007
40.2426
32.5419
25.1872
19.2959
15.5135
13.5988
12.9697
12.8252
12.448
11.3021
8.93021
4.60931
-2.63744
-14.2326
-31.3482
-53.8462
-80.0062
-105.749
-129.074
-148.082
-163.267
-176.111
-185.901
-181.146
-131.364
-4.08754
170.193
303.625
363.129
390.007
400.682
404.331
404.315
403.654
402.914
3.40988
1.094
-5.45953
-14.6126
-22.8422
-26.3411
-23.5098
-15.232
-4.76338
4.68807
11.816
16.249
18.333
19.0234
19.3848
20.3044
22.3926
25.8653
30.8373
37.3739
44.5734
50.39
53.1494
52.0509
47.3887
40.2347
32.0252
24.3013
18.3684
14.8014
13.3604
13.2903
13.5484
13.4457
12.4168
9.78453
4.91745
-2.93493
-15.15
-32.7858
-55.5451
-81.5888
-106.456
-129.004
-147.043
-160.994
-175.809
-192.76
-195.032
-145.942
-4.91116
184.864
326.227
380.098
402.498
410.347
411.729
410.227
408.628
407.459
1.49405
0.790746
-4.73379
-12.4166
-19.8225
-23.5148
-21.579
-14.6323
-5.49618
2.98089
9.56443
13.9253
16.2478
17.2899
17.9838
19.1506
21.4031
24.9835
30.1009
36.947
44.6406
50.9331
53.803
52.3821
47.5825
40.1092
31.6149
23.6048
17.4196
13.7519
12.2305
12.0902
12.2394
12.0153
10.8624
8.24543
3.51762
-4.12935
-15.9109
-33.1229
-55.7747
-81.5292
-106.106
-129.178
-148.275
-162.646
-182.91
-205.412
-211.956
-160.054
-2.7745
199.986
348.691
394.779
413.567
418.457
417.828
415.035
412.666
411.134
3.04536
0.386856
-3.55107
-9.93953
-16.5217
-20.2318
-19.1687
-13.6378
-5.88672
1.54168
7.4963
11.7059
14.2671
15.713
16.8002
18.2443
20.6611
24.3208
29.4873
36.3485
44.0896
50.5138
53.4911
52.1639
47.3814
39.8335
31.2571
23.1498
16.9269
13.3797
12.0641
11.9503
12.1529
11.9535
10.7392
8.06515
3.36598
-4.16104
-15.8145
-32.7046
-55.0055
-80.8051
-105.682
-128.352
-145.612
-156.304
-174.675
-206.513
-215.922
-162.941
1.40119
210.26
363.443
404.989
421.18
424.007
421.995
418.315
415.427
413.643
0.346441
-0.0230554
-2.56439
-7.6761
-13.3643
-16.7886
-16.2914
-11.9765
-5.5911
0.6613
5.84462
9.77835
12.4761
14.2683
15.7491
17.5467
20.2287
24.0693
29.2385
36.0087
43.6012
49.9801
52.8662
51.9162
46.9271
39.4273
30.9614
22.9451
16.6452
12.9269
11.5331
11.4299
11.7096
11.6841
10.7378
8.41521
3.8414
-3.92852
-15.6939
-32.5199
-54.3972
-79.5457
-104.057
-126.836
-145.431
-164.002
-199.352
-227.044
-224.116
-168.634
-1.24131
216.899
373.441
410.575
425.075
426.798
424.072
419.945
416.802
414.894
2.05235
1.01443
-0.940251
-5.09377
-10.0608
-13.3628
-13.698
-10.7383
-5.60779
-0.222269
4.41804
8.09699
10.838
12.8666
14.6856
16.7914
19.7038
23.6798
28.9013
35.5072
42.8324
49.0236
52.0419
51.016
45.9308
38.4868
30.1011
22.0168
15.6443
11.9683
10.5195
10.6435
11.1108
11.1568
10.2022
7.9342
3.51604
-3.8705
-15.3776
-32.2612
-54.4564
-80.2653
-104.59
-125.469
-139.298
-155.229
-177.876
-206.676
-214.687
-161.869
-5.91183
210.45
370.512
408.727
424.273
426.394
423.837
419.793
416.692
414.802
1.96043
1.51672
0.123342
-3.12415
-7.20508
-10.0878
-10.7091
-8.56214
-4.77047
-0.442949
3.5977
7.00761
9.72342
11.8961
13.957
16.39
19.5589
23.6339
28.7733
35.0817
42.0076
47.9663
50.961
50.0312
45.2209
38.0474
29.9152
22.1086
15.8756
12.0843
10.6605
10.7324
11.3636
11.657
11.0154
9.00143
4.58851
-2.94457
-14.9159
-32.3198
-54.7758
-80.5306
-106.161
-129.131
-147.664
-167.852
-189.977
-208.901
-211.796
-160.822
-13.3936
197.566
359.312
402.162
419.906
423.429
421.683
418.138
415.316
413.558
4.16186
2.86801
1.3354
-1.37729
-4.87402
-7.47286
-8.43304
-7.11416
-4.25469
-0.692357
2.88052
6.07132
8.72656
10.9908
13.244
15.8924
19.2512
23.4604
28.5641
34.607
41.0599
46.5799
49.3804
48.3891
43.8935
37.1154
29.3581
21.8428
15.809
12.001
10.4451
10.4668
11.1518
11.665
11.3266
9.6269
5.68542
-1.59428
-13.531
-31.0902
-53.7375
-79.5747
-105.875
-129.562
-148.786
-168.158
-191.148
-209.615
-210.487
-160.504
-20.0964
183.312
344.679
392.618
412.968
418.432
417.94
415.198
412.838
411.303
4.45292
3.39304
2.30808
0.211287
-2.67789
-4.99312
-6.12242
-5.46833
-3.40143
-0.48582
2.66488
5.62597
8.22089
10.5704
12.9831
15.8249
19.3431
23.5799
28.5187
34.1828
40.1265
45.1712
47.8114
46.989
42.8414
36.5212
29.2527
22.1826
16.4291
12.7207
11.0891
11.0107
11.6334
12.3616
12.3701
11.2226
7.95348
1.32402
-10.0564
-27.2088
-49.9496
-76.2844
-103.246
-127.473
-147.711
-168.206
-192.389
-208.877
-206.716
-158.051
-25.2765
168.089
326.675
380.156
403.669
411.504
412.663
411.006
409.294
408.07
5.31032
4.13088
3.11766
1.45487
-0.968682
-2.99042
-4.18272
-3.92385
-2.41648
-0.0139082
2.73574
5.43978
7.8873