/*--------------------------------*- C++ -*----------------------------------*\
| =========                 |                                                 |
| \\      /  F ield         | OpenFOAM: The Open Source CFD Toolbox           |
|  \\    /   O peration     | Version:  2.1.1                                 |
|   \\  /    A nd           | Web:      www.OpenFOAM.org                      |
|    \\/     M anipulation  |                                                 |
\*---------------------------------------------------------------------------*/
FoamFile
{
    version     2.0;
    format      ascii;
    class       surfaceScalarField;
    location    "0.00115";
    object      phi;
}
// * * * * * * * * * * * * * * * * * * * * * * * * * * * * * * * * * * * * * //

dimensions      [0 3 -1 0 0 0 0];

internalField   nonuniform List<scalar> 
105695
(
-3.38725e-08
-7.3483e-08
6.7554e-09
1.006e-07
-8.02728e-08
3.24348e-08
6.7373e-08
-5.34076e-08
-1.54824e-07
6.77356e-08
1.00261e-07
-9.34458e-08
-2.24417e-07
7.42245e-08
1.38456e-07
-1.43087e-07
-2.86403e-07
6.48656e-08
1.28217e-07
-1.31097e-07
-3.14368e-07
2.97048e-08
7.89298e-08
-8.067e-08
-3.07146e-07
-6.78954e-09
1.67164e-08
-1.71494e-08
-2.7801e-07
-3.11332e-08
-2.05781e-08
2.25764e-08
-2.50315e-07
-3.30396e-08
-2.83772e-08
3.37209e-08
-2.35974e-07
-2.10495e-08
-1.00703e-08
1.67794e-08
-2.34755e-07
-6.84613e-09
1.06278e-08
-5.00088e-09
-2.42099e-07
2.72078e-09
3.0278e-08
-2.56549e-08
-2.52611e-07
7.67009e-09
4.04793e-08
-3.76372e-08
-2.62968e-07
8.82063e-09
4.53162e-08
-4.37795e-08
-2.70539e-07
7.0547e-09
4.4477e-08
-4.39607e-08
-2.75439e-07
4.92197e-09
4.24791e-08
-4.25013e-08
-2.77659e-07
2.58385e-09
4.03341e-08
-4.06976e-08
-2.78586e-07
1.53729e-09
4.05534e-08
-4.11646e-08
-2.79161e-07
1.75963e-09
4.33603e-08
-4.45442e-08
-2.8074e-07
3.43033e-09
4.88269e-08
-5.06781e-08
-2.84032e-07
6.19312e-09
5.60605e-08
-5.89619e-08
-2.90076e-07
1.00419e-08
6.4565e-08
-6.85633e-08
-2.99183e-07
1.42271e-08
7.2697e-08
-7.78164e-08
-3.11165e-07
1.80111e-08
7.94948e-08
-8.55247e-08
-3.25373e-07
2.10456e-08
8.38352e-08
-9.0672e-08
-3.40986e-07
2.32719e-08
8.48959e-08
-9.25554e-08
-3.56975e-07
2.44193e-08
8.22757e-08
-9.07058e-08
-3.72072e-07
2.38981e-08
7.63831e-08
-8.51843e-08
-3.85268e-07
2.20541e-08
6.84724e-08
-7.73302e-08
-3.95982e-07
1.92426e-08
6.02149e-08
-6.87436e-08
-4.04138e-07
1.59709e-08
5.32031e-08
-6.1018e-08
-4.09997e-07
1.28593e-08
4.83978e-08
-5.5398e-08
-4.1399e-07
1.04411e-08
4.66643e-08
-5.31121e-08
-4.16838e-07
9.11197e-09
4.86668e-08
-5.49315e-08
-4.19674e-07
1.00438e-08
5.38602e-08
-6.10674e-08
-4.24021e-07
1.41513e-08
6.18575e-08
-7.16622e-08
-4.31261e-07
2.13088e-08
7.0921e-08
-8.49902e-08
-4.43243e-07
3.16915e-08
8.0764e-08
-1.00473e-07
-4.62469e-07
4.58877e-08
8.98377e-08
-1.16499e-07
-4.91011e-07
6.36941e-08
9.52906e-08
-1.30443e-07
-5.30521e-07
8.41619e-08
9.38171e-08
-1.38469e-07
-5.81593e-07
1.05466e-07
8.17527e-08
-1.36146e-07
-6.42245e-07
1.26023e-07
5.38568e-08
-1.19228e-07
-7.10542e-07
1.43538e-07
1.36322e-08
-8.8873e-08
-7.88463e-07
1.61645e-07
-3.88055e-08
-4.49188e-08
-8.78155e-07
1.74409e-07
-1.08249e-07
2.35329e-08
-9.53954e-07
1.42547e-07
-2.00435e-07
1.33687e-07
-9.79284e-07
5.22938e-08
-3.20854e-07
2.93889e-07
-9.34939e-07
-5.92509e-08
-4.80014e-07
4.9492e-07
-7.9647e-07
-1.88168e-07
-6.51739e-07
7.01437e-07
-5.72475e-07
-2.9976e-07
-7.73346e-07
8.49111e-07
-3.40008e-07
-3.08904e-07
-7.68867e-07
8.45304e-07
-1.87961e-07
-2.34896e-07
-6.64934e-07
7.47784e-07
-9.35961e-08
-1.68448e-07
-5.42889e-07
6.16971e-07
-4.22239e-08
-1.16289e-07
-4.29085e-07
4.94001e-07
-1.47787e-08
-8.04559e-08
-3.37374e-07
3.90384e-07
-3.1152e-09
-5.64212e-08
-2.65606e-07
3.10364e-07
1.61747e-09
-4.14692e-08
-2.17993e-07
2.5473e-07
1.69906e-09
-3.28001e-08
-1.85561e-07
2.18279e-07
-2.83532e-08
-1.69181e-07
1.99233e-07
-1.49628e-07
-2.93798e-08
2.67411e-08
7.87833e-08
-2.07578e-07
7.97606e-08
9.94143e-08
-8.87899e-08
-2.72809e-07
1.32864e-07
1.20781e-07
-1.20678e-07
-3.44124e-07
1.49674e-07
1.61236e-07
-1.65371e-07
-4.07661e-07
1.32785e-07
1.38979e-07
-1.43361e-07
-4.34447e-07
6.05458e-08
7.95447e-08
-8.35997e-08
-4.22663e-07
-1.51163e-08
4.44282e-09
-7.90027e-09
-3.89132e-07
-6.3661e-08
-3.54661e-08
3.44627e-08
-3.59548e-07
-6.69834e-08
-4.24697e-08
4.68294e-08
-3.45397e-07
-4.11743e-08
-1.99668e-08
2.59411e-08
-3.45426e-07
-1.25885e-08
3.01881e-09
2.7522e-09
-3.53803e-07
6.8395e-09
2.33507e-08
-1.90923e-08
-3.65156e-07
1.65338e-08
3.21635e-08
-2.96738e-08
-3.75925e-07
1.84793e-08
3.58682e-08
-3.47579e-08
-3.83442e-07
1.43637e-08
3.32236e-08
-3.30159e-08
-3.87906e-07
9.61436e-09
3.015e-08
-3.03788e-08
-3.89537e-07
4.63811e-09
2.72511e-08
-2.76745e-08
-3.89862e-07
1.96497e-09
2.65484e-08
-2.66506e-08
-3.90041e-07
2.77083e-09
2.91098e-08
-2.99415e-08
-3.91284e-07
6.06466e-09
3.35136e-08
-3.49059e-08
-3.94092e-07
1.16739e-08
4.00169e-08
-4.26895e-08
-3.99527e-07
1.93116e-08
4.69634e-08
-5.07979e-08
-4.07873e-07
2.79031e-08
5.37963e-08
-5.91265e-08
-4.19027e-07
3.57065e-08
5.90145e-08
-6.55549e-08
-4.32252e-07
4.20032e-08
6.20494e-08
-6.97827e-08
-4.46744e-07
4.63987e-08
6.17709e-08
-7.04053e-08
-4.61497e-07
4.85462e-08
5.82421e-08
-6.76161e-08
-4.75167e-07
4.69826e-08
5.16622e-08
-6.10769e-08
-4.86696e-07
4.26957e-08
4.33561e-08
-5.2468e-08
-4.95688e-07
3.65304e-08
3.49838e-08
-4.32798e-08
-5.01949e-07
2.92324e-08
2.79124e-08
-3.49125e-08
-5.0551e-07
2.19242e-08
2.32921e-08
-2.87962e-08
-5.07173e-07
1.61804e-08
2.17162e-08
-2.57927e-08
-5.07971e-07
1.2408e-08
2.37272e-08
-2.62252e-08
-5.08941e-07
1.30487e-08
2.86531e-08
-3.06882e-08
-5.1154e-07
1.98029e-08
3.63472e-08
-3.93998e-08
-5.17142e-07
3.26509e-08
4.50783e-08
-5.08186e-08
-5.27249e-07
5.18123e-08
5.4695e-08
-6.47085e-08
-5.4356e-07
7.81223e-08
6.3301e-08
-7.92248e-08
-5.67989e-07
1.11993e-07
6.7673e-08
-9.15422e-08
-6.01806e-07
1.51201e-07
6.50231e-08
-9.82447e-08
-6.4635e-07
1.93214e-07
5.20306e-08
-9.5235e-08
-7.00283e-07
2.34693e-07
2.50025e-08
-7.97391e-08
-7.60403e-07
2.70639e-07
-1.4076e-08
-5.29053e-08
-8.27481e-07
3.04951e-07
-6.22546e-08
-1.39733e-08
-9.07969e-07
3.35531e-07
-1.24497e-07
4.38627e-08
-9.85243e-07
2.83296e-07
-2.16336e-07
1.5286e-07
-1.01694e-06
1.01719e-07
-3.50079e-07
3.32351e-07
-9.85468e-07
-1.26662e-07
-5.21048e-07
5.56987e-07
-8.44038e-07
-3.94754e-07
-7.37653e-07
8.02809e-07
-5.84725e-07
-6.49456e-07
-8.73244e-07
9.63627e-07
-3.32594e-07
-6.50251e-07
-8.50277e-07
9.39493e-07
-1.77512e-07
-4.87888e-07
-7.1395e-07
8.11859e-07
-8.40913e-08
-3.46654e-07
-5.76553e-07
6.61339e-07
-3.53113e-08
-2.37476e-07
-4.51486e-07
5.23894e-07
-9.90963e-09
-1.63906e-07
-3.53386e-07
4.11434e-07
-2.72714e-10
-1.14216e-07
-2.77041e-07
3.25199e-07
3.62156e-09
-8.4541e-08
-2.26953e-07
2.66131e-07
2.5023e-09
-6.63104e-08
-1.92718e-07
2.27347e-07
-5.75685e-08
-1.75454e-07
2.07171e-07
-1.9278e-07
4.62856e-08
4.80705e-08
6.90441e-08
-2.53946e-07
1.31959e-07
1.03796e-07
-9.48285e-08
-3.199e-07
2.00997e-07
1.40484e-07
-1.42663e-07
-3.98749e-07
2.3476e-07
1.83275e-07
-1.89511e-07
-4.70001e-07
2.1206e-07
1.53894e-07
-1.61917e-07
-4.98558e-07
9.87402e-08
7.79069e-08
-8.75437e-08
-4.80132e-07
-2.12458e-08
-1.83678e-08
6.07124e-09
-4.36089e-07
-1.00118e-07
-6.49934e-08
5.74066e-08
-3.99344e-07
-1.03522e-07
-6.94752e-08
6.92685e-08
-3.83711e-07
-6.05155e-08
-3.58135e-08
3.95217e-08
-3.85493e-07
-1.52394e-08
-4.45129e-09
8.88416e-09
-3.95784e-07
1.53864e-08
1.90725e-08
-1.7328e-08
-4.08971e-07
2.98166e-08
2.9651e-08
-2.97467e-08
-4.20687e-07
3.1679e-08
3.32317e-08
-3.47155e-08
-4.28428e-07
2.4134e-08
3.01614e-08
-3.21904e-08
-4.32533e-07
1.59058e-08
2.64493e-08
-2.86363e-08
-4.33477e-07
7.50829e-09
2.33295e-08
-2.52559e-08
-4.32842e-07
2.94684e-09
2.24004e-08
-2.40167e-08
-4.31848e-07
3.19796e-09
2.60904e-08
-2.75117e-08
-4.32035e-07
7.20218e-09
3.18307e-08
-3.27807e-08
-4.33941e-07
1.54343e-08
3.97391e-08
-4.15938e-08
-4.38651e-07
2.7516e-08
4.74675e-08
-5.09616e-08
-4.46546e-07
4.15739e-08
5.50013e-08
-6.07775e-08
-4.57504e-07
5.44483e-08
6.06965e-08
-6.84807e-08
-4.70688e-07
6.48949e-08
6.42625e-08
-7.39697e-08
-4.85202e-07
7.21946e-08
6.43371e-08
-7.56191e-08
-5.00144e-07
7.60821e-08
6.10386e-08
-7.36321e-08
-5.14166e-07
7.37357e-08
5.45974e-08
-6.73285e-08
-5.25703e-07
6.59076e-08
4.67458e-08
-5.84212e-08
-5.34475e-07
5.46006e-08
3.91323e-08
-4.84304e-08
-5.40552e-07
4.19147e-08
3.2407e-08
-3.90121e-08
-5.4412e-07
2.92889e-08
2.80211e-08
-3.18179e-08
-5.45554e-07
1.89065e-08
2.67619e-08
-2.80542e-08
-5.4574e-07
1.13994e-08
2.93091e-08
-2.81138e-08
-5.45777e-07
1.05267e-08
3.52032e-08
-3.26446e-08
-5.47036e-07
1.90127e-08
4.40423e-08
-4.19934e-08
-5.5107e-07
3.74364e-08
5.40505e-08
-5.48016e-08
-5.59054e-07
6.55282e-08
6.52037e-08
-7.09358e-08
-5.72619e-07
1.0457e-07
7.55009e-08
-8.8384e-08
-5.94127e-07
1.55782e-07
8.34054e-08
-1.05686e-07
-6.23969e-07
2.15232e-07
8.50263e-08
-1.19216e-07
-6.628e-07
2.80093e-07
7.7595e-08
-1.25643e-07
-7.08685e-07
3.43618e-07
5.81756e-08
-1.21216e-07
-7.55497e-07
3.94618e-07
2.88236e-08
-1.05991e-07
-7.98738e-07
4.37823e-07
-5.0954e-09
-8.45358e-08
-8.51259e-07
4.7466e-07
-3.96456e-08
-4.69628e-08
-9.06791e-07
4.03624e-07
-1.17838e-07
5.30426e-08
-9.49584e-07
1.51324e-07
-2.46401e-07
2.39589e-07
-9.67701e-07
-1.62546e-07
-4.52411e-07
5.06412e-07
-8.93721e-07
-5.60859e-07
-7.19164e-07
8.1129e-07
-6.56415e-07
-9.81157e-07
-9.7288e-07
1.06727e-06
-3.28988e-07
-1.07705e-06
-9.36366e-07
1.03574e-06
-1.62181e-07
-7.78183e-07
-7.43698e-07
8.67186e-07
-6.95659e-08
-5.41684e-07
-5.91518e-07
6.93934e-07
-2.45885e-08
-3.65837e-07
-4.57673e-07
5.41056e-07
-2.59884e-09
-2.50479e-07
-3.56574e-07
4.21157e-07
5.25177e-09
-1.73764e-07
-2.78634e-07
3.30332e-07
6.65854e-09
-1.27721e-07
-2.27624e-07
2.69397e-07
3.89987e-09
-9.96929e-08
-1.93168e-07
2.29309e-07
-8.65473e-08
-1.75826e-07
2.08704e-07
-2.24774e-07
1.534e-07
5.54965e-08
6.21632e-08
-2.81599e-07
1.79718e-07
1.12708e-07
-1.03642e-07
-3.51888e-07
2.74163e-07
1.69181e-07
-1.72057e-07
-4.47683e-07
3.29253e-07
2.29376e-07
-2.28075e-07
-5.39002e-07
3.0569e-07
1.94431e-07
-1.96742e-07
-5.74017e-07
1.46978e-07
8.74891e-08
-1.00712e-07
-5.46316e-07
-2.39584e-08
-4.35055e-08
1.8517e-08
-4.84642e-07
-1.39106e-07
-1.08092e-07
8.54062e-08
-4.35452e-07
-1.40542e-07
-1.05928e-07
9.3757e-08
-4.17014e-07
-7.70431e-08
-5.51984e-08
5.3288e-08
-4.21196e-07
-1.26003e-08
-1.06249e-08
1.21683e-08
-4.34742e-07
2.99569e-08
1.86663e-08
-1.96906e-08
-4.51191e-07
4.90948e-08
3.14654e-08
-3.42952e-08
-4.64703e-07
4.90608e-08
3.42359e-08
-3.81056e-08
-4.73066e-07
3.65056e-08
2.95977e-08
-3.3606e-08
-4.7639e-07
2.297e-08
2.41703e-08
-2.79104e-08
-4.75885e-07
9.65693e-09
2.06667e-08
-2.3321e-08
-4.73422e-07
1.39274e-09
2.07114e-08
-2.16198e-08
-4.70764e-07
6.44639e-11
2.66332e-08
-2.61577e-08
-4.69504e-07
5.18092e-09
3.39219e-08
-3.31611e-08
-4.69924e-07
1.62622e-08
4.3474e-08
-4.38812e-08
-4.73508e-07
3.41703e-08
5.3023e-08
-5.60939e-08
-4.80899e-07
5.56876e-08
6.20928e-08
-6.88151e-08
-4.91888e-07
7.55424e-08
6.88926e-08
-7.89977e-08
-5.05301e-07
9.1351e-08
7.34121e-08
-8.64554e-08
-5.19755e-07
1.02001e-07
7.44132e-08
-8.97654e-08
-5.34711e-07
1.08366e-07
7.1877e-08
-8.92051e-08
-5.48771e-07
1.05494e-07
6.59635e-08
-8.36622e-08
-5.59946e-07
9.32927e-08
5.85476e-08
-7.47573e-08
-5.67627e-07
7.48822e-08
5.14586e-08
-6.40593e-08
-5.7224e-07
5.36134e-08
4.62887e-08
-5.33747e-08
-5.74246e-07
3.19814e-08
4.38946e-08
-4.45808e-08
-5.74186e-07
1.33887e-08
4.564e-08
-4.01828e-08
-5.72611e-07
-1.48008e-09
5.17972e-08
-4.04926e-08
-5.70839e-07
-6.41288e-09
6.14213e-08
-4.62532e-08
-5.70253e-07
2.95692e-09
7.33569e-08
-5.78872e-08
-5.71873e-07
2.69881e-08
8.59699e-08
-7.39015e-08
-5.76285e-07
6.41014e-08
1.0068e-07
-9.4842e-08
-5.84189e-07
1.13809e-07
1.17612e-07
-1.18946e-07
-5.97804e-07
1.81298e-07
1.33361e-07
-1.45262e-07
-6.16276e-07
2.60146e-07
1.43224e-07
-1.69667e-07
-6.38007e-07
3.43656e-07
1.46593e-07
-1.88425e-07
-6.60283e-07
4.23707e-07
1.41781e-07
-1.99594e-07
-6.68285e-07
4.78227e-07
1.23471e-07
-1.99078e-07
-6.47548e-07
5.07381e-07
1.00916e-07
-1.91212e-07
-6.09372e-07
5.37971e-07
7.496e-08
-1.76447e-07
-5.73236e-07
4.51095e-07
-6.1636e-09
-7.7444e-08
-5.91487e-07
1.9883e-07
-1.52964e-07
1.23709e-07
-7.04014e-07
-1.23357e-07
-3.26186e-07
3.99523e-07
-8.2956e-07
-5.89625e-07
-6.2897e-07
7.83283e-07
-7.1791e-07
-1.21111e-06
-1.00224e-06
1.12054e-06
-3.31039e-07
-1.55378e-06
-1.10438e-06
1.19423e-06
-1.33685e-07
-1.12431e-06
-8.04189e-07
9.52961e-07
-4.50597e-08
-7.49134e-07
-6.227e-07
7.41524e-07
-6.76718e-09
-4.96806e-07
-4.73091e-07
5.65769e-07
1.10605e-08
-3.36923e-07
-3.65812e-07
4.34429e-07
1.39687e-08
-2.30508e-07
-2.83433e-07
3.3727e-07
1.17386e-08
-1.68132e-07
-2.30557e-07
2.73199e-07
6.26553e-09
-1.30332e-07
-1.95206e-07
2.31318e-07
-1.12861e-07
-1.77532e-07
2.10111e-07
-2.58772e-07
2.83572e-07
1.0081e-07
2.77906e-08
-3.13913e-07
2.2489e-07
1.26637e-07
-1.16668e-07
-3.90162e-07
3.5209e-07
2.02384e-07
-2.04061e-07
-5.07652e-07
4.30059e-07
2.92717e-07
-2.76032e-07
-6.29494e-07
4.12896e-07
2.5837e-07
-2.43734e-07
-6.73714e-07
2.0774e-07
1.0132e-07
-1.17862e-07
-6.31914e-07
-1.4632e-08
-8.58803e-08
3.47538e-08
-5.42584e-07
-1.67215e-07
-1.81673e-07
1.20453e-07
-4.73707e-07
-1.64848e-07
-1.67399e-07
1.22829e-07
-4.51346e-07
-7.87844e-08
-8.73167e-08
6.66962e-08
-4.58687e-07
2.16635e-09
-2.03924e-08
1.29671e-08
-4.76469e-07
5.54918e-08
2.05854e-08
-2.83377e-08
-4.96838e-07
7.72921e-08
3.88525e-08
-4.66815e-08
-5.12202e-07
7.25458e-08
4.13965e-08
-4.95177e-08
-5.20718e-07
5.29458e-08
3.58328e-08
-4.37567e-08
-5.22506e-07
3.22022e-08
2.76446e-08
-3.50888e-08
-5.19329e-07
1.20017e-08
2.36614e-08
-2.91835e-08
-5.13887e-07
3.44867e-10
2.34719e-08
-2.78658e-08
-5.0706e-07
-5.27226e-09
3.09436e-08
-3.24339e-08
-5.00928e-07
-1.68148e-09
4.06958e-08
-3.99647e-08
-4.96347e-07
8.23034e-09
5.54435e-08
-5.19927e-08
-4.94992e-07
2.92965e-08
7.01794e-08
-6.66607e-08
-4.97907e-07
5.86117e-08
8.2549e-08
-8.25588e-08
-5.0445e-07
8.62293e-08
9.19738e-08
-9.61175e-08
-5.12939e-07
1.0758e-07
9.87401e-08
-1.06479e-07
-5.21101e-07
1.20155e-07
1.02007e-07
-1.12001e-07
-5.28848e-07
1.28232e-07
1.01148e-07
-1.13267e-07
-5.35145e-07
1.23676e-07
9.62216e-08
-1.08106e-07
-5.37971e-07
1.05052e-07
8.89733e-08
-9.79072e-08
-5.37278e-07
7.68227e-08
8.20496e-08
-8.46828e-08
-5.3432e-07
4.39791e-08
7.79223e-08
-7.12459e-08
-5.30566e-07
1.00709e-08
7.77354e-08
-5.95791e-08
-5.28029e-07
-1.9807e-08
8.24635e-08
-5.18041e-08
-5.27585e-07
-4.5172e-08
9.37429e-08
-5.04957e-08
-5.29882e-07
-5.83046e-08
1.10477e-07
-5.62883e-08
-5.33231e-07
-5.47502e-08
1.32063e-07
-7.10061e-08
-5.36192e-07
-3.1461e-08
1.55242e-07
-9.38326e-08
-5.37513e-07
9.03212e-09
1.81297e-07
-1.24906e-07
-5.36401e-07
6.19273e-08
2.12635e-07
-1.61866e-07
-5.33972e-07
1.36851e-07
2.44515e-07
-2.02498e-07
-5.27234e-07
2.25307e-07
2.69592e-07
-2.4149e-07
-5.10401e-07
3.19208e-07
2.83524e-07
-2.75908e-07
-4.78234e-07
4.20915e-07
2.74919e-07
-3.04294e-07
-4.1114e-07
4.84475e-07
2.44424e-07
-3.17766e-07
-2.98477e-07
5.07455e-07
2.04962e-07
-3.17698e-07
-1.67495e-07
5.44435e-07
1.78535e-07
-3.1598e-07
-2.68199e-08
4.60684e-07
7.32055e-08
-2.23469e-07
1.2802e-08
2.17671e-07
-6.27796e-08
4.31655e-09
-1.09843e-07
-5.15925e-08
-1.85282e-07
2.36163e-07
-4.23853e-07
-4.70622e-07
-4.2764e-07
6.22646e-07
-5.88984e-07
-1.23e-06
-9.24677e-07
1.1087e-06
-3.35696e-07
-1.90316e-06
-1.25383e-06
1.34992e-06
-8.23567e-08
-1.54615e-06
-9.02988e-07
1.07149e-06
-5.51594e-09
-9.5502e-07
-6.71204e-07
8.0025e-07
2.47278e-08
-6.22825e-07
-5.00759e-07
5.96535e-07
3.17198e-08
-4.13933e-07
-3.81266e-07
4.51284e-07
2.72472e-08
-2.79453e-07
-2.92567e-07
3.45985e-07
1.94462e-08
-2.01888e-07
-2.36558e-07
2.78115e-07
9.83596e-09
-1.55275e-07
-1.9955e-07
2.34103e-07
-1.33968e-07
-1.81234e-07
2.12176e-07
-3.28742e-07
4.48095e-07
1.83103e-07
-1.88844e-08
-3.58848e-07
2.57187e-07
1.2975e-07
-1.31942e-07
-4.32375e-07
4.17352e-07
2.55394e-07
-2.47129e-07
-5.79399e-07
5.19101e-07
4.01484e-07
-3.43502e-07
-7.43111e-07
5.18112e-07
3.71833e-07
-3.13337e-07
-7.96753e-07
2.74894e-07
1.3984e-07
-1.53352e-07
-7.36521e-07
1.16988e-08
-1.33566e-07
4.70032e-08
-6.08593e-07
-1.69716e-07
-2.75735e-07
1.50308e-07
-5.11931e-07
-1.67615e-07
-2.36528e-07
1.42633e-07
-4.83498e-07
-6.65319e-08
-1.10455e-07
6.97693e-08
-4.93819e-07
2.48971e-08
-1.48677e-08
2.45862e-09
-5.15907e-07
8.43408e-08
3.41287e-08
-4.089e-08
-5.39995e-07
1.0923e-07
5.33584e-08
-6.12083e-08
-5.56654e-07
9.77578e-08
5.1275e-08
-5.98286e-08
-5.61916e-07
6.76222e-08
4.00917e-08
-4.95059e-08
-5.57648e-07
3.85168e-08
2.55739e-08
-3.61563e-08
-5.44593e-07
8.22453e-09
1.89532e-08
-2.8231e-08
-5.272e-07
-1.15451e-08
2.07949e-08
-2.62983e-08
-5.08424e-07
-2.29461e-08
3.28061e-08
-3.39083e-08
-4.8833e-07
-2.90718e-08
5.15173e-08
-4.42208e-08
-4.68204e-07
-2.79092e-08
7.55337e-08
-5.95201e-08
-4.48826e-07
-7.46445e-09
9.36625e-08
-7.62795e-08
-4.32707e-07
3.2232e-08
1.06456e-07
-9.61948e-08
-4.17634e-07
6.95588e-08
1.16484e-07
-1.14886e-07
-3.99786e-07
9.33881e-08
1.24081e-07
-1.27737e-07
-3.76686e-07
1.04588e-07
1.26508e-07
-1.34041e-07
-3.48741e-07
1.12633e-07
1.22936e-07
-1.35282e-07
-3.18546e-07
1.07247e-07
1.13706e-07
-1.27472e-07
-2.87011e-07
8.40838e-08
1.01138e-07
-1.11705e-07
-2.5504e-07
4.79235e-08
8.86693e-08
-9.17408e-08
-2.25335e-07
7.39273e-09
7.65987e-08
-6.97174e-08
-2.04776e-07
-2.79732e-08
6.63448e-08
-4.88595e-08
-1.97028e-07
-5.86034e-08
6.39886e-08
-3.29406e-08
-2.03835e-07
-8.25633e-08
6.84411e-08
-2.42428e-08
-2.22324e-07
-9.58021e-08
8.3894e-08
-2.79075e-08
-2.4436e-07
-1.01347e-07
1.13377e-07
-4.47442e-08
-2.60202e-07
-9.39091e-08
1.5129e-07
-7.30004e-08
-2.63675e-07
-7.36322e-08
1.94659e-07
-1.08522e-07
-2.55275e-07
-4.29458e-08
2.46163e-07
-1.4969e-07
-2.31641e-07
9.24074e-09
2.99829e-07
-1.95852e-07
-1.87614e-07
7.91537e-08
3.41659e-07
-2.39533e-07
-1.17732e-07
1.64847e-07
3.62012e-07
-2.77533e-07
-1.89442e-08
2.85472e-07
3.44532e-07
-3.07877e-07
1.20327e-07
3.6344e-07
2.92508e-07
-3.10744e-07
3.02833e-07
3.80462e-07
2.27182e-07
-2.82695e-07
5.05254e-07
4.29309e-07
1.57158e-07
-2.44453e-07
7.02315e-07
3.65586e-07
3.99107e-08
-1.41874e-07
8.14515e-07
1.26519e-07
-5.19125e-08
3.08648e-08
7.8783e-07
-1.25923e-07
-1.27711e-07
2.28726e-07
5.68215e-07
-4.11761e-07
-3.34796e-07
4.9555e-07
8.00527e-08
-8.96744e-07
-7.37982e-07
8.92885e-07
-2.08949e-07
-1.78183e-06
-1.22358e-06
1.39125e-06
-4.75379e-09
-1.96436e-06
-1.01675e-06
1.23076e-06
6.8566e-08
-1.15411e-06
-7.4091e-07
8.66683e-07
7.21504e-08
-7.20134e-07
-5.38083e-07
6.31807e-07
6.18697e-08
-4.70134e-07
-4.03453e-07
4.69935e-07
4.63312e-08
-3.13108e-07
-3.06295e-07
3.55488e-07
3.04669e-08
-2.23599e-07
-2.45819e-07
2.83395e-07
1.49196e-08
-1.70433e-07
-2.06385e-07
2.37091e-07
-1.46249e-07
-1.87102e-07
2.14304e-07
-3.9521e-07
5.85174e-07
4.01932e-07
-1.43802e-07
-4.17512e-07
2.79561e-07
1.4242e-07
-1.42492e-07
-4.94403e-07
4.71877e-07
3.19253e-07
-2.96886e-07
-6.54562e-07
5.61888e-07
5.37502e-07
-4.2013e-07
-8.51125e-07
5.6336e-07
5.46012e-07
-3.94698e-07
-9.06021e-07
3.09906e-07
2.07069e-07
-1.87184e-07
-8.1718e-07
6.61092e-08
-2.17488e-07
7.42359e-08
-6.562e-07
-6.81095e-08
-4.55362e-07
1.92776e-07
-5.2435e-07
-9.127e-08
-3.78575e-07
1.7038e-07
-4.8578e-07
-1.13452e-08
-1.69732e-07
7.59755e-08
-4.926e-07
6.7307e-08
-2.79828e-08
-7.60656e-09
-5.09752e-07
1.19434e-07
4.47684e-08
-6.271e-08
-5.25893e-07
1.38492e-07
7.49528e-08
-8.80741e-08
-5.32529e-07
1.14297e-07
7.67583e-08
-8.66612e-08
-5.21434e-07
6.27975e-08
6.51201e-08
-7.13903e-08
-4.9712e-07
1.72168e-08
5.06568e-08
-5.36713e-08
-4.64165e-07
-2.03661e-08
3.67175e-08
-4.10818e-08
-4.27732e-07
-4.31794e-08
3.47385e-08
-3.95372e-08
-3.86058e-07
-6.99465e-08
5.04986e-08
-4.51717e-08
-3.38978e-07
-9.73157e-08
7.65729e-08
-5.54095e-08
-2.88837e-07
-1.14398e-07
1.0617e-07
-6.98221e-08
-2.39136e-07
-9.74683e-08
1.31428e-07
-9.11246e-08
-1.875e-07
-5.06713e-08
1.47624e-07
-1.16357e-07
-1.30275e-07
3.54194e-10
1.49616e-07
-1.37636e-07
-6.83339e-08
3.64079e-08
1.44795e-07
-1.49756e-07
-8.28506e-09
5.87557e-08
1.42198e-07
-1.56415e-07
5.79098e-08
6.89379e-08
1.39522e-07
-1.62022e-07
1.31821e-07
6.46261e-08
1.26195e-07
-1.57486e-07
2.1027e-07
4.1543e-08
1.0533e-07
-1.41238e-07
2.86191e-07
3.03544e-09
8.71536e-08
-1.18187e-07
3.53085e-07
-4.07967e-08
7.32737e-08
-9.1978e-08
4.02754e-07
-7.28047e-08
6.21677e-08
-6.70052e-08
4.27329e-07
-9.55299e-08
5.7875e-08
-4.55232e-08
4.26985e-07
-1.12633e-07
6.19154e-08
-3.15012e-08
4.10908e-07
-1.24512e-07
7.11885e-08
-2.64024e-08
3.90314e-07
-1.38802e-07
9.02304e-08
-3.2181e-08
3.78862e-07
-1.53297e-07
1.20859e-07
-5.00196e-08
3.87003e-07
-1.65289e-07
1.62263e-07
-7.87476e-08
4.15245e-07
-1.70143e-07
2.15533e-07
-1.16578e-07
4.61657e-07
-1.48987e-07
2.72418e-07
-1.60602e-07
5.28391e-07
-9.83042e-08
3.14894e-07
-2.0417e-07
6.02562e-07
-3.33415e-09
3.38456e-07
-2.44447e-07
6.90582e-07
1.6089e-07
3.22823e-07
-2.8626e-07
8.2314e-07
2.36497e-07
2.87522e-07
-2.93137e-07
1.00008e-06
1.97571e-07
2.75872e-07
-2.69922e-07
1.24799e-06
1.75585e-07
2.45106e-07
-2.39293e-07
1.52657e-06
1.76545e-07
5.84771e-08
-1.48015e-07
1.72328e-06
-3.14947e-08
-3.85548e-08
-1.42212e-10
1.76284e-06
-2.29765e-07
-8.68011e-08
1.51082e-07
1.6392e-06
-4.15746e-07
-1.80388e-07
3.08012e-07
1.19508e-06
-6.75423e-07
-3.65754e-07
5.88549e-07
4.66699e-07
-1.35455e-06
-8.16524e-07
1.11764e-06
2.00896e-07
-1.98858e-06
-1.10082e-06
1.39085e-06
1.82434e-07
-1.24555e-06
-8.33857e-07
9.43758e-07
1.42833e-07
-7.55313e-07
-5.93087e-07
6.67867e-07
1.06085e-07
-4.8398e-07
-4.38481e-07
4.89075e-07
7.41635e-08
-3.16985e-07
-3.29606e-07
3.65404e-07
4.66047e-08
-2.22428e-07
-2.62462e-07
2.8885e-07
2.21459e-08
-1.67032e-07
-2.1929e-07
2.40349e-07
-1.42148e-07
-1.98487e-07
2.16531e-07
-5.83418e-07
7.84023e-07
5.38627e-07
-1.54058e-07
-4.58899e-07
1.8409e-07
1.50479e-07
-1.79526e-07
-4.18333e-07
3.49249e-07
4.79821e-07
-3.9776e-07
-4.99429e-07
3.58927e-07
8.42432e-07
-5.58374e-07
-6.29185e-07
4.2256e-07
7.90598e-07
-5.20041e-07
-6.06044e-07
2.59739e-07
2.80934e-07
-2.53908e-07
-5.33405e-07
6.90543e-08
-1.35915e-07
6.0331e-08
-4.15697e-07
3.96826e-08
-4.38361e-07
2.12861e-07
-2.62377e-07
1.03196e-07
-5.36536e-07
1.8875e-07
-1.88364e-07
1.31175e-07
-2.9061e-07
7.40766e-08
-1.66281e-07
1.32418e-07
-6.21888e-08
-2.50046e-08
-1.44984e-07
1.31782e-07
4.64173e-08
-8.00612e-08
-1.11779e-07
1.30278e-07
7.3375e-08
-9.83674e-08
-6.43868e-08
1.01768e-07
4.93555e-08
-8.42178e-08
-1.35566e-08
5.51221e-08
7.89159e-09
-5.10464e-08
3.17726e-08
1.51114e-08
-2.47312e-08
-1.84927e-08
7.9001e-08
-8.52297e-09
-6.5276e-08
6.20456e-09
1.37658e-07
-3.40559e-08
-7.93407e-08
1.15598e-08
1.94973e-07
-8.0829e-08
-4.77249e-08
1.29264e-09
2.59546e-07
-1.50203e-07
1.57941e-08
-2.74804e-08
3.31396e-07
-2.11261e-07
7.68289e-08
-5.18155e-08
3.99085e-07
-2.18437e-07
1.34739e-07
-8.14592e-08
4.61454e-07
-1.77425e-07
1.78387e-07
-1.14001e-07
5.35417e-07
-1.2487e-07
1.97048e-07
-1.45787e-07
6.27244e-07
-8.50003e-08
2.00222e-07
-1.70641e-07
7.3528e-07
-5.98508e-08
1.92661e-07
-1.82091e-07
8.52769e-07
-3.99069e-08
1.76736e-07
-1.85381e-07
9.77058e-07
-3.10086e-08
1.50518e-07
-1.79172e-07
1.10389e-06
-4.19045e-08
1.16771e-07
-1.60155e-07
1.21691e-06
-6.29738e-08
8.59629e-08
-1.32977e-07
1.30149e-06
-8.21101e-08
6.50914e-08
-1.08354e-07
1.35797e-06
-9.24062e-08
5.11148e-08
-8.79937e-08
1.38666e-06
-9.39205e-08
4.05584e-08
-7.08618e-08
1.38895e-06
-9.31019e-08
3.47856e-08
-5.66046e-08
1.37046e-06
-9.26931e-08
3.53019e-08
-4.86312e-08
1.34336e-06
-1.0103e-07
3.78235e-08
-4.84954e-08
1.32621e-06
-1.23207e-07
4.78817e-08
-6.08254e-08
1.32837e-06
-1.58402e-07
7.66234e-08
-8.56625e-08
1.35035e-06
-2.07347e-07
1.34817e-07
-1.19597e-07
1.39188e-06
-2.45755e-07
2.23266e-07
-1.68024e-07
1.462e-06
-2.62381e-07
3.11924e-07
-2.17965e-07
1.5626e-06
-2.00962e-07
3.67946e-07
-2.70918e-07
1.687e-06
-1.47526e-08
3.7097e-07
-3.19736e-07
1.7926e-06
1.21598e-07
3.16213e-07
-3.06909e-07
1.87958e-06
1.25161e-07
2.46312e-07
-2.60886e-07
2.14227e-06
-1.59971e-09
1.58666e-07
-2.44172e-07
2.53935e-06
-1.20151e-07
9.57663e-08
-1.96151e-07
2.67933e-06
-1.4953e-07
2.32889e-09
-2.42642e-08
2.66034e-06
-2.16874e-07
-8.64726e-08
9.2568e-08
2.52467e-06
-3.2106e-07
-1.66338e-07
2.07319e-07
2.14508e-06
-4.70085e-07
-2.66693e-07
4.40952e-07
1.23372e-06
-9.22808e-07
-5.57209e-07
1.03682e-06
5.50751e-07
-1.61948e-06
-1.15027e-06
1.46414e-06
3.73538e-07
-1.13913e-06
-9.42425e-07
1.01322e-06
2.63725e-07
-6.75096e-07
-6.69926e-07
6.99522e-07
1.83498e-07
-4.14965e-07
-4.93338e-07
5.04549e-07
1.23529e-07
-2.59933e-07
-3.70005e-07
3.72921e-07
7.56018e-08
-1.73074e-07
-2.93795e-07
2.92369e-07
3.53921e-08
-1.23579e-07
-2.45229e-07
2.41985e-07
-1.02292e-07
-2.21955e-07
2.17491e-07
-4.37922e-07
5.87053e-07
1.83763e-06
-1.20274e-06
-3.4899e-07
1.39342e-07
3.26884e-07
-3.71068e-07
-1.48699e-07
1.87435e-07
2.63491e-07
-3.01967e-07
1.43378e-07
9.58753e-08
3.54545e-07
-3.83572e-07
5.65362e-07
1.66298e-07
1.25599e-07
-2.91321e-07
7.83239e-07
2.12917e-07
-8.65131e-08
-8.45424e-08
7.72155e-07
1.61975e-07
-1.52075e-07
7.02373e-08
7.27508e-07
7.10526e-08
-1.35966e-07
1.49244e-07
7.73989e-07
1.38314e-08
-9.85071e-08
1.41391e-07
8.93472e-07
-2.95674e-09
-6.09432e-08
7.55917e-08
1.04069e-06
6.33139e-09
-2.7631e-08
6.50342e-09
1.19218e-06
2.43728e-08
-1.16575e-08
-3.24261e-08
1.34114e-06
4.07461e-08
-7.76509e-09
-5.16643e-08
1.46208e-06
4.17375e-08
-1.02014e-08
-5.07079e-08
1.52006e-06
4.80491e-08
-1.10885e-08
-3.98211e-08
1.51467e-06
5.72115e-08
-9.28368e-09
-2.74217e-08
1.46277e-06
6.95936e-08
-6.46503e-09
-1.97563e-08
1.39264e-06
6.39791e-08
-4.27413e-09
-2.36314e-08
1.33321e-06
1.82047e-08
-3.08594e-09
-3.65125e-08
1.29909e-06
-6.45282e-08
-1.12464e-09
-5.04331e-08
1.30753e-06
-1.61274e-07
2.26665e-09
-6.06975e-08
1.36559e-06
-2.15339e-07
9.93945e-09
-7.10888e-08
1.45525e-06
-2.01693e-07
1.97469e-08
-8.51433e-08
1.55888e-06
-1.52885e-07
2.61739e-08
-1.01786e-07
1.68412e-06
-1.14531e-07
2.58585e-08
-1.21573e-07
1.83006e-06
-9.59578e-08
1.87005e-08
-1.2853e-07
1.97868e-06
-7.40878e-08
1.4589e-08
-1.29028e-07
2.11554e-06
-5.2804e-08
1.15609e-08
-1.26628e-07
2.23375e-06
-4.76287e-08
7.7536e-09
-1.20241e-07
2.32358e-06
-5.10562e-08
7.01262e-09
-1.08757e-07
2.38156e-06
-5.32395e-08
7.19626e-09
-9.40477e-08
2.41777e-06
-5.2945e-08
5.00608e-09
-8.06745e-08
2.44084e-06
-4.9552e-08
1.06371e-09
-6.85039e-08
2.44996e-06
-4.59179e-08
5.3711e-10
-5.68391e-08
2.4461e-06
-3.93624e-08
7.89151e-10
-5.0268e-08
2.42688e-06
-3.17661e-08
1.38636e-09
-5.14232e-08
2.39912e-06
-3.53603e-08
3.18618e-09
-6.32705e-08
2.3811e-06
-6.03295e-08
4.71696e-09
-8.47738e-08
2.38474e-06
-1.05288e-07
4.97338e-09
-1.10671e-07
2.40898e-06
-1.38776e-07
7.78361e-09
-1.39005e-07
2.44458e-06
-1.47615e-07
1.4235e-08
-1.64597e-07
2.51094e-06
-9.72182e-08
2.92957e-08
-1.99404e-07
2.62963e-06
4.96922e-08
5.04107e-08
-2.33547e-07
2.8198e-06
1.44546e-07
6.03014e-08
-2.73414e-07
3.03691e-06
1.07774e-07
5.30327e-08
-2.52756e-07
3.10266e-06
3.6337e-08
1.56502e-08
-1.19337e-07
3.05108e-06
-6.04028e-08
-9.19415e-09
1.01711e-09
2.91648e-06
-3.43744e-08
-3.47742e-08
5.42269e-08
2.79351e-06
-5.10708e-08
-1.41958e-07
9.91178e-08
2.63521e-06
-9.53325e-08
-2.38421e-07
1.70993e-07
2.32601e-06
-1.61725e-07
-3.61443e-07
3.62283e-07
1.52647e-06
-3.42687e-07
-7.86203e-07
1.00563e-06
8.05761e-07
-4.77926e-07
-1.95198e-06
1.53113e-06
5.14602e-07
-3.12765e-07
-1.6243e-06
1.08909e-06
3.36671e-07
-1.60193e-07
-1.07819e-06
7.41221e-07
2.22049e-07
-8.12609e-08
-7.46405e-07
5.27322e-07
1.44218e-07
-3.70303e-08
-5.30862e-07
3.85791e-07
8.63294e-08
-1.32906e-08
-4.01732e-07
2.99837e-07
4.02956e-08
-7.36226e-10
-3.23536e-07
2.46727e-07
3.73971e-09
-2.86928e-07
2.21192e-07
-2.19235e-07
2.80648e-07
1.81845e-06
-1.29281e-06
-2.18796e-07
2.5285e-07
2.22124e-07
-3.36071e-07
-9.08065e-08
2.16279e-07
1.58187e-07
-3.15019e-07
2.84691e-08
1.64027e-07
1.85823e-07
-3.7325e-07
2.07219e-07
2.16689e-07
1.21422e-07
-3.50563e-07
4.45851e-07
1.45535e-07
5.05021e-08
-2.21752e-07
7.0574e-07
2.41413e-09
-3.47355e-08
-6.55921e-08
8.94011e-07
-1.05206e-07
-6.76138e-08
5.56015e-08
1.05905e-06
-1.69584e-07
-5.37897e-08
7.21631e-08
1.21544e-06
-1.6843e-07
-2.71697e-08
3.62519e-08
1.3412e-06
-1.00302e-07
-1.79397e-08
-1.1839e-09
1.43549e-06
-3.49372e-08
-1.40668e-08
-2.09104e-08
1.51393e-06
1.42783e-08
-1.37389e-08
-3.82342e-08
1.57192e-06
3.37846e-08
-1.38308e-08
-3.62126e-08
1.60538e-06
4.75905e-08
-1.08245e-08
-2.21744e-08
1.61571e-06
6.08141e-08
-8.0128e-09
-5.92268e-09
1.61604e-06
6.907e-08
-7.29438e-09
7.49684e-09
1.6065e-06
6.84513e-08
-8.11583e-09
1.31834e-08
1.5635e-06
5.52927e-08
-9.39759e-09
1.53066e-08
1.4693e-06
2.72222e-08
-6.64735e-09
9.09495e-09
1.34384e-06
-2.31883e-08
-2.84797e-10
-1.23404e-08
1.24867e-06
-9.22585e-08
9.87836e-09
-3.77863e-08
1.22248e-06
-1.31892e-07
1.94001e-08
-6.30173e-08
1.25737e-06
-1.28569e-07
2.0953e-08
-8.01575e-08
1.34163e-06
-1.17158e-07
1.36779e-08
-9.53126e-08
1.44704e-06
-1.03988e-07
3.34198e-09
-1.00721e-07
1.55619e-06
-8.28187e-08
-2.93376e-09
-9.74774e-08
1.65412e-06
-5.45401e-08
-3.09165e-09
-9.311e-08
1.72698e-06
-3.23066e-08
-2.00523e-09
-8.61765e-08
1.7734e-06
-2.16363e-08
-5.73391e-10
-7.52635e-08
1.80244e-06
-2.0478e-08
-4.07997e-10
-6.13894e-08
1.82291e-06
-2.60378e-08
-8.7678e-10
-4.65021e-08
1.83848e-06
-3.02647e-08
-1.58401e-09
-3.32788e-08
1.85065e-06
-3.54528e-08
-1.8639e-09
-2.07646e-08
1.85676e-06
-3.36149e-08
-1.85481e-09
-1.0006e-08
1.85812e-06
-2.87927e-08
-1.38657e-09
-2.94219e-09
1.85379e-06
-2.75832e-08
-5.78094e-10
-2.87257e-09
1.83626e-06
-3.04108e-08
1.66823e-10
-1.2559e-08
1.81708e-06
-5.12316e-08
5.40775e-10
-3.54171e-08
1.81623e-06
-8.00199e-08
5.13141e-09
-6.30389e-08
1.84194e-06
-9.21554e-08
1.09571e-08
-9.21177e-08
1.94567e-06
-7.71737e-08
1.59331e-08
-1.39711e-07
2.15499e-06
3.98912e-09
1.10683e-08
-1.74688e-07
2.39015e-06
6.94104e-08
2.89433e-09
-1.62918e-07
2.50748e-06
6.80234e-08
6.03462e-09
-8.36175e-08
2.43229e-06
7.06945e-08
1.87674e-08
2.20653e-08
2.20297e-06
8.19045e-08
3.77945e-08
4.92201e-08
2.04965e-06
3.214e-08
-2.3777e-08
1.10579e-07