/*--------------------------------*- C++ -*----------------------------------*\
| =========                 |                                                 |
| \\      /  F ield         | OpenFOAM: The Open Source CFD Toolbox           |
|  \\    /   O peration     | Version:  2.1.1                                 |
|   \\  /    A nd           | Web:      www.OpenFOAM.org                      |
|    \\/     M anipulation  |                                                 |
\*---------------------------------------------------------------------------*/
FoamFile
{
    version     2.0;
    format      ascii;
    class       volSymmTensorField;
    location    "0.00115";
    object      R;
}
// * * * * * * * * * * * * * * * * * * * * * * * * * * * * * * * * * * * * * //

dimensions      [0 2 -2 0 0 0 0];

internalField   nonuniform List<symmTensor> 
36520
(
(0.0959744 0.00146216 0.0265152 0.0289086 0.00465181 0.0391699)
(0.198191 -0.0216253 0.0477961 0.0691286 -0.00470923 0.0631062)
(0.31807 -0.0212448 0.0898577 0.114768 -0.00885419 0.106737)
(0.352829 -0.0222216 0.109924 0.132868 -0.0111078 0.125995)
(0.383132 -0.0181682 0.124823 0.145058 -0.00888134 0.141486)
(0.384805 -0.017314 0.129611 0.147793 -0.00715178 0.147191)
(0.383945 -0.018039 0.130391 0.148046 -0.00608386 0.148714)
(0.381029 -0.0203576 0.129007 0.14723 -0.00697323 0.147768)
(0.383538 -0.0219839 0.128383 0.147447 -0.00804531 0.147098)
(0.385921 -0.0229687 0.128056 0.14754 -0.00932404 0.146297)
(0.383907 -0.0224724 0.126819 0.146127 -0.00964002 0.144195)
(0.377731 -0.021772 0.124781 0.143231 -0.00967464 0.141142)
(0.366383 -0.0205147 0.121319 0.138619 -0.00911143 0.136525)
(0.352263 -0.0196748 0.116906 0.133012 -0.00862856 0.130992)
(0.335715 -0.0188949 0.111544 0.126588 -0.00811758 0.124565)
(0.318339 -0.0184328 0.105654 0.119784 -0.0078335 0.117615)
(0.300321 -0.0179976 0.0993699 0.112742 -0.0076932 0.110335)
(0.282898 -0.0174931 0.0931613 0.105818 -0.00764141 0.103129)
(0.265502 -0.0167759 0.0869262 0.098903 -0.00758334 0.0959173)
(0.248841 -0.0157536 0.0809765 0.0921926 -0.00740505 0.0889908)
(0.232038 -0.0144221 0.075076 0.0854527 -0.00707313 0.0821218)
(0.215433 -0.0128016 0.0693713 0.0788021 -0.00654358 0.0754525)
(0.198324 -0.0110031 0.0636803 0.0720675 -0.0058426 0.0688228)
(0.18097 -0.00918311 0.0580645 0.0653567 -0.00503359 0.0623364)
(0.163315 -0.00744241 0.0524436 0.0586663 -0.00418773 0.0559313)
(0.145896 -0.00587246 0.0469486 0.0521752 -0.00336311 0.0497484)
(0.128891 -0.00454746 0.0416131 0.0459398 -0.00261536 0.0438276)
(0.112735 -0.00351314 0.0365434 0.0400868 -0.00198698 0.0382865)
(0.0976744 -0.00277464 0.0317844 0.034679 -0.00150831 0.0331545)
(0.0840257 -0.00228014 0.0274305 0.029803 -0.00117338 0.0285097)
(0.0719012 -0.00195582 0.0235174 0.0254874 -0.0009547 0.0243715)
(0.0614083 -0.00174142 0.0200855 0.0217647 -0.000825726 0.0207668)
(0.0525093 -0.00158086 0.0171323 0.0186172 -0.000755244 0.017678)
(0.0451142 -0.00142491 0.0146403 0.0160122 -0.000712564 0.015079)
(0.0390668 -0.00124743 0.012568 0.0138971 -0.00067891 0.0129204)
(0.0341896 -0.0010316 0.0108699 0.0122066 -0.000640298 0.0111526)
(0.0302714 -0.000768263 0.00948911 0.0108625 -0.000582722 0.00971635)
(0.0271087 -0.000459912 0.00836723 0.00978807 -0.000503268 0.00855244)
(0.0245039 -0.000102305 0.00744957 0.00891113 -0.00039516 0.00760106)
(0.0222537 0.000294347 0.006683 0.00816304 -0.000255852 0.00680627)
(0.0201646 0.000698187 0.00601559 0.00747826 -9.03348e-05 0.00611596)
(0.0180688 0.00106025 0.00539861 0.00679754 8.79591e-05 0.00548026)
(0.015925 0.00132998 0.00480439 0.00610285 0.000259613 0.00487998)
(0.0138598 0.00149255 0.00424382 0.00542305 0.000408241 0.00434124)
(0.0120023 0.00158446 0.00374974 0.00480586 0.000542879 0.0039001)
(0.00990437 0.00156245 0.00319574 0.00409102 0.000656339 0.00343277)
(0.00762514 0.00137862 0.00254938 0.00329586 0.000728961 0.00294297)
(0.00538671 0.0010186 0.00177311 0.00246615 0.000712404 0.00240126)
(0.0036184 0.000569881 0.000925209 0.00172279 0.000576111 0.00184663)
(0.00203864 0.000208394 0.00031251 0.00104564 0.000379864 0.00116553)
(0.000669617 4.10889e-05 6.45511e-05 0.000483279 0.000198346 0.000470942)
(0.000150365 8.17861e-06 2.99582e-05 0.000248027 0.000124351 0.000190005)
(0.000111859 -1.64119e-05 2.06131e-06 0.000193958 9.8288e-05 0.000149806)
(0.000108667 -1.36001e-05 2.50831e-06 0.000159073 7.53867e-05 0.000130863)
(0.000114152 -2.11415e-05 -1.58205e-05 0.000139598 5.95126e-05 0.000123161)
(0.000108152 -8.70459e-06 3.16121e-06 0.0001242 4.53194e-05 0.000114829)
(0.000116198 -1.3325e-05 -1.8446e-05 0.000119389 3.64073e-05 0.000114744)
(0.000109817 -2.55033e-06 9.494e-06 0.000113682 2.90938e-05 0.000110757)
(0.000118426 -7.22471e-06 -1.8749e-05 0.000115285 2.55727e-05 0.000113873)
(0.00013308 -9.69204e-06 1.92278e-05 0.000131866 2.43784e-05 0.000129963)
(0.0546013 -0.00309999 0.00920551 0.0152245 -0.00057477 0.0155355)
(0.0625908 -0.00667603 0.0145446 0.0218192 -0.00162209 0.0196948)
(0.0721353 -0.00446082 0.0197676 0.0262073 -0.00186288 0.0245391)
(0.0606886 -0.00316414 0.0183335 0.02305 -0.00150296 0.0220412)
(0.0501172 -0.0020002 0.0157993 0.0193995 -0.000905694 0.0189355)
(0.0395784 -0.00164191 0.0127643 0.0156647 -0.000604401 0.0154943)
(0.0362616 -0.00171252 0.0116747 0.0144379 -0.000541019 0.0142816)
(0.0355296 -0.00190094 0.0113531 0.0141055 -0.00062554 0.0139042)
(0.0357213 -0.00195771 0.0112826 0.0140171 -0.000687215 0.0137546)
(0.0355993 -0.00191581 0.0111864 0.0138522 -0.000732801 0.0135336)
(0.0351931 -0.00178913 0.0110558 0.0136163 -0.000720167 0.0132716)
(0.0341718 -0.00165763 0.0107658 0.0131822 -0.000689243 0.0128328)
(0.0322467 -0.00149394 0.0101859 0.0124331 -0.000625746 0.0120804)
(0.0300001 -0.00136247 0.00947836 0.0115653 -0.000569591 0.0112117)
(0.0278211 -0.00125053 0.00876505 0.0107248 -0.000522811 0.0103557)
(0.0262322 -0.00118286 0.00822788 0.010094 -0.000500921 0.00970086)
(0.0250233 -0.00112812 0.00780156 0.00959945 -0.000490702 0.00917562)
(0.0242317 -0.00107928 0.0075116 0.00924762 -0.000486941 0.00879614)
(0.0235641 -0.00102277 0.0072651 0.00894158 -0.000483675 0.00846085)
(0.0228803 -0.000941467 0.00702512 0.00862315 -0.000468345 0.00812579)
(0.0219683 -0.000838099 0.00672484 0.00822707 -0.00044112 0.0077209)
(0.0208005 -0.000711498 0.00635796 0.00774271 -0.000399027 0.00724167)
(0.0192044 -0.00057128 0.00587225 0.00711674 -0.000344403 0.00663831)
(0.0172477 -0.000429654 0.00528112 0.00637331 -0.000280985 0.00593425)
(0.0150954 -0.000301793 0.00462798 0.00557442 -0.000218456 0.00518193)
(0.0129414 -0.00019626 0.00396949 0.0047869 -0.000162538 0.00444268)
(0.0108628 -0.000116452 0.00332823 0.00403514 -0.000116664 0.00373895)
(0.00894965 -6.12972e-05 0.00272861 0.00334802 -8.17194e-05 0.00309723)
(0.00732833 -2.7927e-05 0.00220856 0.00276802 -5.90864e-05 0.00255388)
(0.00604276 -8.21578e-06 0.00178401 0.00230857 -4.63979e-05 0.00212178)
(0.00509342 4.08082e-06 0.00145727 0.00196976 -4.04067e-05 0.00180097)
(0.00445816 1.31354e-05 0.00122178 0.0017442 -3.91135e-05 0.00158348)
(0.0040993 2.2015e-05 0.0010658 0.00161889 -4.10903e-05 0.00145601)
(0.00397094 3.21891e-05 0.000973655 0.00157717 -4.52369e-05 0.00140187)
(0.00403227 4.52591e-05 0.000930348 0.00160542 -5.12253e-05 0.00140605)
(0.00423027 6.46847e-05 0.00091725 0.00168562 -5.79755e-05 0.00145085)
(0.00449927 9.43461e-05 0.000910765 0.00179534 -6.38253e-05 0.00151677)
(0.00480199 0.000137483 0.000895626 0.00192127 -6.74781e-05 0.00159462)
(0.00512245 0.000196375 0.000863308 0.00205742 -6.75245e-05 0.00168293)
(0.00543874 0.000268795 0.000802719 0.00219591 -6.34859e-05 0.00178084)
(0.00573979 0.000346066 0.000701573 0.00232958 -5.66362e-05 0.00189124)
(0.00604457 0.000414893 0.000549032 0.00245872 -5.1506e-05 0.0020245)
(0.00644456 0.000463274 0.000340028 0.00260776 -5.38527e-05 0.0022124)
(0.00713022 0.000496018 7.06351e-05 0.00283348 -6.7784e-05 0.00251873)
(0.00816183 0.000526868 -0.000259835 0.00313622 -9.61137e-05 0.00296873)
(0.00948184 0.000548689 -0.000655221 0.00347781 -0.000138051 0.00355953)
(0.0111442 0.000519129 -0.00112216 0.00387196 -0.000175567 0.00434371)
(0.0127261 0.000391424 -0.00151169 0.0042007 -0.000169341 0.0051338)
(0.0134561 0.000167407 -0.00154643 0.00427378 -8.99234e-05 0.00545237)
(0.00992883 -3.87869e-05 -0.00100487 0.00314606 6.81122e-05 0.00408609)
(0.00379329 -0.000104074 -0.0003724 0.00127963 9.33115e-05 0.00162298)
(0.000357798 -2.81153e-05 -4.84275e-05 0.000134145 1.28817e-05 0.00016582)
(2.56517e-05 -4.34049e-06 -3.71145e-06 2.00588e-05 3.15442e-06 2.54558e-05)
(1.87174e-05 -3.31346e-06 -1.25852e-06 1.90732e-05 2.24711e-06 2.26551e-05)
(2.17082e-05 -3.03019e-06 -1.68732e-06 2.09908e-05 1.71368e-06 2.3684e-05)
(2.25253e-05 -2.30666e-06 -1.21398e-07 2.20596e-05 1.23876e-06 2.39326e-05)
(2.43748e-05 -1.82176e-06 -1.28771e-06 2.30639e-05 9.71762e-07 2.45145e-05)
(2.4049e-05 -1.13411e-06 6.09635e-07 2.34173e-05 7.32892e-07 2.4464e-05)
(2.86819e-05 -9.05859e-07 -1.27378e-06 2.71703e-05 6.615e-07 2.81936e-05)
(8.65778e-05 -9.22148e-06 1.50021e-06 8.4824e-05 7.76518e-07 8.66902e-05)
(0.0256231 -0.00141422 0.00185355 0.00643396 -0.000339182 0.00645175)
(0.0173368 -0.00191724 0.00378412 0.00603651 -0.000551668 0.00546639)
(0.0158944 -0.000973472 0.00421281 0.00577416 -0.000490122 0.00545473)
(0.0104672 -0.000481308 0.0030763 0.00400612 -0.00027806 0.00384024)
(0.00675866 -0.000219805 0.00206273 0.00266649 -0.000125706 0.00257647)
(0.00427763 -0.000140235 0.00130844 0.00174164 -6.02305e-05 0.00167472)
(0.00366012 -0.000146706 0.0010901 0.00150683 -4.94674e-05 0.00143162)
(0.00348894 -0.000162621 0.00102296 0.00142404 -6.0191e-05 0.0013487)
(0.00346137 -0.000162232 0.00100037 0.00138956 -7.1214e-05 0.0013127)
(0.00342472 -0.000151934 0.000984399 0.00135951 -7.81388e-05 0.00128465)
(0.00338916 -0.000134911 0.000972709 0.00133901 -7.85118e-05 0.00126588)
(0.00332079 -0.000119826 0.000951403 0.00131281 -7.64436e-05 0.00124004)
(0.00311582 -0.000100763 0.00088506 0.00123719 -7.06482e-05 0.00116546)
(0.00288473 -8.60013e-05 0.000805652 0.00115219 -6.54213e-05 0.00108085)
(0.00268853 -7.54456e-05 0.000732671 0.00107974 -6.24326e-05 0.0010082)
(0.00259834 -7.13053e-05 0.000691004 0.00104633 -6.26514e-05 0.000973639)
(0.00257798 -7.00325e-05 0.000669427 0.00103824 -6.47341e-05 0.0009651)
(0.00261268 -6.95166e-05 0.000664259 0.00104972 -6.77999e-05 0.000976587)
(0.00267436 -6.86901e-05 0.000666611 0.00107123 -7.09678e-05 0.000998101)
(0.00271999 -6.42112e-05 0.000662774 0.0010866 -7.26359e-05 0.00101431)
(0.00272848 -5.73159e-05 0.000645966 0.00108912 -7.30712e-05 0.00101845)
(0.00268894 -4.74818e-05 0.00061246 0.00107504 -7.21607e-05 0.00100794)
(0.00257722 -3.62685e-05 0.000554559 0.00103673 -6.99423e-05 0.000976156)
(0.00240595 -2.51748e-05 0.00047353 0.00097918 -6.73284e-05 0.000928207)
(0.00221494 -1.63673e-05 0.000379749 0.000917191 -6.57994e-05 0.000877313)
(0.0020415 -1.07774e-05 0.000283639 0.00086382 -6.62376e-05 0.00083571)
(0.00190285 -8.88716e-06 0.000190706 0.000824635 -6.87879e-05 0.000808825)
(0.00181239 -1.05945e-05 0.000104104 0.000803761 -7.33633e-05 0.000800989)
(0.00178845 -1.51955e-05 3.03347e-05 0.000807078 -7.9952e-05 0.000816658)
(0.00182975 -2.10487e-05 -3.04157e-05 0.000833453 -8.83269e-05 0.000854258)
(0.00193005 -2.69863e-05 -8.08004e-05 0.000880761 -9.85278e-05 0.000911216)
(0.00208781 -3.24073e-05 -0.000123917 0.000948501 -0.000110876 0.000987023)
(0.00230458 -3.6406e-05 -0.000162934 0.00103768 -0.000125942 0.00108131)
(0.00258763 -3.83578e-05 -0.000201812 0.00115151 -0.000144574 0.00119641)
(0.00294905 -3.74923e-05 -0.000242491 0.00129512 -0.000167593 0.00133447)
(0.00340487 -3.2835e-05 -0.000288684 0.00147491 -0.000195796 0.0015004)
(0.00397793 -2.39236e-05 -0.000347829 0.00169953 -0.000230506 0.00170304)
(0.00469717 -9.3076e-06 -0.000429095 0.00197869 -0.00027353 0.00195332)
(0.00560398 1.21187e-05 -0.000543098 0.00232544 -0.000327013 0.00226396)
(0.0067483 3.89307e-05 -0.000703429 0.00275442 -0.000393088 0.00265182)
(0.00820252 6.51031e-05 -0.000930154 0.00328509 -0.000473925 0.00314561)
(0.0100644 7.93005e-05 -0.00124515 0.00393954 -0.000573287 0.00378132)
(0.0124982 6.45291e-05 -0.00167408 0.00476038 -0.000693814 0.00462355)
(0.0157925 9.33478e-06 -0.00225459 0.00581331 -0.000837604 0.00576845)
(0.0203579 -6.79244e-05 -0.00302609 0.00718693 -0.00102143 0.007334)
(0.0265345 -0.000139649 -0.00395709 0.00890893 -0.00125556 0.00937496)
(0.0344265 -0.000285112 -0.00500571 0.0109708 -0.00145799 0.0119209)
(0.0418901 -0.000530419 -0.00568645 0.0127317 -0.00146905 0.0143027)
(0.04336 -0.000757772 -0.00500352 0.0127531 -0.00113742 0.0145902)
(0.0321871 -0.000504753 -0.00295909 0.00948771 -0.00042659 0.0108927)
(0.0139608 -0.000277361 -0.00117286 0.00444184 7.17018e-05 0.00504029)
(0.00206055 -0.000121768 -0.000240293 0.000705341 4.04962e-05 0.000804052)
(8.64362e-05 -7.55237e-06 -1.20034e-05 3.03975e-05 1.86879e-06 3.50811e-05)
(4.96224e-06 -6.79966e-07 -5.37614e-07 3.44762e-06 2.11816e-07 4.15036e-06)
(3.14318e-06 -4.20461e-07 -2.11687e-07 2.92114e-06 1.06595e-07 3.34317e-06)
(3.0775e-06 -3.19254e-07 -7.94127e-08 2.94524e-06 5.98522e-08 3.22202e-06)
(3.16413e-06 -2.26008e-07 -9.23107e-08 2.96436e-06 3.60319e-08 3.1603e-06)
(3.14203e-06 -1.54661e-07 2.99261e-10 3.03604e-06 2.22482e-08 3.17938e-06)
(6.91515e-06 -2.20388e-07 -8.10072e-08 6.56001e-06 2.5014e-08 6.80145e-06)
(7.15321e-05 -7.77421e-06 -4.19802e-07 7.00391e-05 1.66616e-07 7.14772e-05)
(0.0128488 -0.00070931 0.000128973 0.00306902 -0.000291096 0.00320765)
(0.00505599 -0.000595315 0.00106601 0.00174826 -0.000200522 0.00161616)
(0.00371779 -0.000222868 0.000949421 0.00134718 -0.000137584 0.00128722)
(0.0020143 -8.00035e-05 0.000556036 0.000783511 -5.99343e-05 0.000750339)
(0.00115596 -3.72186e-05 0.000286687 0.000486065 -2.13302e-05 0.000458544)
(0.000816836 -5.26818e-05 0.00011457 0.000384822 -3.33927e-06 0.000354679)
(0.000979559 -0.000115104 1.59268e-05 0.00049012 9.25872e-06 0.000451414)
(0.000811271 -8.45936e-05 4.39526e-05 0.000394728 -3.79084e-06 0.000362564)
(0.000623764 -3.38447e-05 9.00481e-05 0.000285467 -1.79093e-05 0.000263155)
(0.000606688 -2.44653e-05 9.08667e-05 0.000272546 -2.24775e-05 0.000255253)
(0.000629292 -2.15656e-05 8.41444e-05 0.00028391 -2.55887e-05 0.000269574)
(0.000666735 -2.12226e-05 7.45517e-05 0.000304976 -2.88005e-05 0.000293028)
(0.00069461 -2.17071e-05 5.58971e-05 0.000324412 -3.1863e-05 0.000315523)
(0.000731885 -2.45223e-05 3.3491e-05 0.000348751 -3.53385e-05 0.000343563)
(0.000788566 -2.96746e-05 9.35013e-06 0.000381024 -3.99222e-05 0.000380177)
(0.000870282 -3.65792e-05 -1.3232e-05 0.000422885 -4.55641e-05 0.000426813)
(0.000973726 -4.47041e-05 -3.68151e-05 0.000472626 -5.23534e-05 0.000482372)
(0.00109807 -5.3375e-05 -6.26624e-05 0.000530359 -6.02773e-05 0.000546658)
(0.00124302 -6.26241e-05 -9.22608e-05 0.000596034 -6.9235e-05 0.000620164)
(0.0014098 -7.24253e-05 -0.000128788 0.000670684 -7.94721e-05 0.000704092)
(0.00159977 -8.37805e-05 -0.000173857 0.000755346 -9.07844e-05 0.000799209)
(0.00181881 -9.69481e-05 -0.000229894 0.000852942 -0.00010358 0.000908203)
(0.00207039 -0.000113733 -0.00030033 0.000965834 -0.00011798 0.00103559)
(0.00236761 -0.000136081 -0.00038902 0.00109983 -0.00013456 0.00118966)
(0.00272379 -0.000165921 -0.000497188 0.00126038 -0.000153148 0.00137754)
(0.00315282 -0.000204924 -0.000625364 0.00145256 -0.000173699 0.0016045)
(0.00365526 -0.000254755 -0.000771638 0.00167564 -0.000195279 0.00186968)
(0.00422705 -0.000316556 -0.000934918 0.00192611 -0.000216502 0.00217301)
(0.00483388 -0.000386896 -0.00110401 0.00218747 -0.000236539 0.00249677)
(0.00544166 -0.000459824 -0.00126728 0.00244127 -0.000256337 0.00281908)
(0.0060255 -0.000529661 -0.00141638 0.00267508 -0.00027816 0.00312454)
(0.00657677 -0.000590622 -0.00154874 0.00288463 -0.000305436 0.00340762)
(0.00708616 -0.000634687 -0.00165961 0.0030649 -0.000341768 0.00365758)
(0.00760648 -0.000663755 -0.00176127 0.00323994 -0.000391001 0.00389163)
(0.00807036 -0.000657502 -0.00182577 0.00338217 -0.00045876 0.00406349)
(0.00857111 -0.000627533 -0.00187143 0.00353647 -0.000549633 0.00421316)
(0.00949694 -0.000649814 -0.00201202 0.00386518 -0.000658523 0.00453332)
(0.0108256 -0.000707081 -0.00223576 0.00434609 -0.000791512 0.00501035)
(0.0126489 -0.0008022 -0.00255926 0.00500245 -0.000954059 0.00567559)
(0.0151242 -0.000957832 -0.00300589 0.00588319 -0.00115172 0.00656525)
(0.0185025 -0.00121681 -0.00362455 0.00706232 -0.0013903 0.00775909)
(0.0230437 -0.00164018 -0.00445872 0.00859298 -0.00167225 0.00933393)
(0.0290448 -0.00230998 -0.00555222 0.0105389 -0.00199984 0.0113734)
(0.0368668 -0.00327689 -0.00694445 0.0129874 -0.00235135 0.0140015)
(0.0468197 -0.00445654 -0.0085476 0.0158883 -0.00272716 0.0171846)
(0.0597371 -0.00567386 -0.0101938 0.0193246 -0.00322498 0.0209615)
(0.0805527 -0.00737606 -0.0125259 0.0247616 -0.00393622 0.0268629)
(0.102193 -0.00803185 -0.0138795 0.029891 -0.00447727 0.0324985)
(0.101575 -0.00570471 -0.0108403 0.0285037 -0.00395127 0.0309236)
(0.0767059 -0.00248648 -0.00634411 0.0216167 -0.00232275 0.0230751)
(0.0364603 -0.000657119 -0.00277843 0.0110161 -0.000619948 0.0115021)
(0.00797119 -0.000321055 -0.000771478 0.00262789 4.93873e-05 0.00281839)
(0.000476994 -3.51211e-05 -6.06843e-05 0.000157489 7.48082e-06 0.000172577)
(1.68832e-05 -1.28904e-06 -2.00813e-06 5.71637e-06 2.09862e-07 6.2704e-06)
(7.85124e-07 -8.13775e-08 -7.43565e-08 4.9252e-07 1.63571e-08 5.60943e-07)
(3.60347e-07 -3.66994e-08 -1.50094e-08 3.32028e-07 6.14347e-09 3.65855e-07)
(3.17572e-07 -2.24661e-08 -9.11432e-09 2.93484e-07 2.81225e-09 3.13966e-07)
(3.83416e-07 -1.87936e-08 -4.05111e-09 3.66962e-07 1.85814e-09 3.84714e-07)
(4.06864e-06 -1.40249e-07 -3.04127e-08 3.85938e-06 1.05319e-08 3.99944e-06)
(6.8803e-05 -7.47367e-06 -7.29264e-07 6.71866e-05 1.94763e-07 6.86065e-05)
(0.00670463 -0.000410776 -0.00024325 0.00156172 -0.000151353 0.00175641)
(0.00158681 -0.000189741 0.000311721 0.000553261 -7.37242e-05 0.000533689)
(0.00105237 -7.52374e-05 0.000188149 0.000411463 -4.19636e-05 0.000400473)
(0.00087119 -9.34643e-05 5.07676e-07 0.000425121 -1.33237e-05 0.000407132)
(0.00159585 -0.000258797 -0.000243989 0.000871041 1.69143e-05 0.000817638)
(0.00367343 -0.00072427 -0.000738599 0.00205498 0.000103297 0.00190227)
(0.00794375 -0.00178162 -0.00176655 0.00431995 0.000297366 0.00399234)
(0.00526274 -0.00126035 -0.0012295 0.00286624 0.000173105 0.00264401)
(0.00137008 -0.000274515 -0.000290211 0.000765995 5.21898e-06 0.000724872)
(0.000685365 -8.31239e-05 -0.000105072 0.000381994 -2.84245e-05 0.000371378)
(0.00073378 -7.52181e-05 -0.000110742 0.000402602 -3.81001e-05 0.00039707)
(0.0009011 -9.18873e-05 -0.000147216 0.000490954 -4.66165e-05 0.000489732)
(0.00111788 -0.000116927 -0.000200178 0.000607131 -5.59976e-05 0.000612644)
(0.00139241 -0.000152987 -0.000272124 0.000754258 -6.55934e-05 0.000770634)
(0.00172801 -0.000199115 -0.000364339 0.00092925 -7.71237e-05 0.000961659)
(0.00211504 -0.000251715 -0.000474313 0.00112443 -9.17681e-05 0.00117924)
(0.0025651 -0.000310209 -0.000606435 0.001343 -0.000110701 0.00143164)
(0.00312576 -0.000380363 -0.000773997 0.00160804 -0.000134326 0.00174304)
(0.00385021 -0.000471183 -0.000991903 0.00194394 -0.000162576 0.00213971)
(0.00474465 -0.000579057 -0.00126406 0.00234976 -0.000195322 0.00261684)
(0.00591649 -0.000724082 -0.00162499 0.0028794 -0.000229863 0.00323158)
(0.00744478 -0.00091661 -0.00209699 0.00356696 -0.000266782 0.00401862)
(0.00945284 -0.00117962 -0.00271774 0.00446895 -0.000308046 0.00504462)
(0.0121141 -0.0015415 -0.00354866 0.00566444 -0.000351541 0.00641431)
(0.0156205 -0.00203787 -0.00465959 0.0072388 -0.000391511 0.00823195)
(0.0202066 -0.00271236 -0.00612155 0.00928797 -0.000423846 0.010595)
(0.0260522 -0.00362084 -0.00797216 0.0118853 -0.000436511 0.0135609)
(0.0333431 -0.00483657 -0.0102653 0.0151026 -0.000394445 0.0172358)
(0.0415645 -0.00632633 -0.0128289 0.0187168 -0.000276058 0.0213787)
(0.0500608 -0.00800857 -0.0154337 0.022423 -8.80839e-05 0.0256367)
(0.0585564 -0.00987454 -0.0179529 0.0261148 0.000172332 0.0298368)
(0.0672714 -0.0119626 -0.0204458 0.0298805 0.000488762 0.0340788)
(0.0759521 -0.0142471 -0.0228109 0.0335454 0.000817838 0.0381625)
(0.0740776 -0.0143632 -0.0220922 0.0324015 0.000963523 0.0370298)
(0.062177 -0.0120938 -0.0185881 0.0267784 0.000808743 0.0311183)
(0.0473375 -0.00879091 -0.0142985 0.0198904 0.00038286 0.0238833)
(0.0367074 -0.00616732 -0.0110915 0.0149236 -0.000142747 0.0186412)
(0.0342508 -0.00539496 -0.0100925 0.0136296 -0.000520972 0.01724)
(0.036373 -0.00566199 -0.0103732 0.0143084 -0.0008029 0.0179564)
(0.0404323 -0.00632211 -0.0111347 0.0157347 -0.00109133 0.0194429)
(0.0469765 -0.00754755 -0.0124587 0.0180967 -0.00139797 0.0218452)
(0.0564352 -0.00948701 -0.0143929 0.0215479 -0.00176872 0.0252537)
(0.0696558 -0.0124071 -0.0170561 0.0265033 -0.00223262 0.0299687)
(0.0879234 -0.0165623 -0.0207451 0.0333739 -0.0026762 0.036544)
(0.110186 -0.021316 -0.0247361 0.0412356 -0.0030016 0.0441826)
(0.131266 -0.0246126 -0.027127 0.0469677 -0.00352877 0.0497745)
(0.164766 -0.0285748 -0.029656 0.0552342 -0.00483203 0.0581674)
(0.200647 -0.0274405 -0.0294489 0.0621714 -0.00709328 0.0656586)
(0.190729 -0.0161007 -0.0215847 0.0550628 -0.00783805 0.0587143)
(0.148554 -0.0059745 -0.0125262 0.0418462 -0.00657709 0.0436802)
(0.0801356 -0.00119486 -0.00596256 0.0235051 -0.00307013 0.0234315)
(0.0228462 -0.000478939 -0.00183503 0.00715394 -0.000267595 0.00729841)
(0.00206282 -0.000119358 -0.000227416 0.000666077 1.99749e-05 0.000703649)
(9.86421e-05 -6.48941e-06 -1.08923e-05 3.15813e-05 8.62261e-07 3.33815e-05)
(3.17579e-06 -2.09344e-07 -3.28363e-07 1.04305e-06 2.28191e-08 1.11052e-06)
(1.18799e-07 -9.19595e-09 -9.6094e-09 6.45795e-08 1.19523e-09 7.06912e-08)
(3.6698e-08 -2.51663e-09 -1.28716e-09 3.25922e-08 3.22144e-10 3.50029e-08)
(1.27256e-07 -6.25613e-09 -1.96361e-09 1.20777e-07 6.60316e-10 1.2584e-07)
(3.8079e-06 -1.34566e-07 -3.22174e-08 3.59692e-06 1.16385e-08 3.71734e-06)
(6.84299e-05 -7.43556e-06 -8.34608e-07 6.6563e-05 2.32487e-07 6.78256e-05)
(0.0039207 -0.000282264 -0.000293819 0.000925668 -0.000151306 0.00115418)
(0.000955713 -0.000145019 -1.31523e-05 0.000442251 -2.98959e-05 0.000440069)
(0.00218338 -0.000360314 -0.000335114 0.00114076 -2.90089e-05 0.00113036)
(0.00699862 -0.00123347 -0.00129887 0.0037143 -3.9572e-05 0.00360291)
(0.0200158 -0.00378131 -0.00390991 0.0107556 0.000107346 0.0100988)
(0.0473793 -0.0100316 -0.00973374 0.0256829 0.000941493 0.0233568)
(0.0923821 -0.0220388 -0.0201641 0.0484553 0.00269434 0.0436312)
(0.0667681 -0.017153 -0.015545 0.0352632 0.00196371 0.0317893)
(0.0188669 -0.00480264 -0.00473144 0.0102985 0.000437056 0.0095487)
(0.00549126 -0.00117247 -0.00133778 0.00307553 1.91357e-05 0.00299149)
(0.00456277 -0.000856189 -0.00107446 0.002545 -4.10852e-05 0.00253279)
(0.00567395 -0.00103536 -0.00134717 0.00312115 -6.62443e-05 0.00313538)
(0.00717081 -0.0013019 -0.00173156 0.00391464 -8.76653e-05 0.00396016)
(0.00906934 -0.00166454 -0.00225135 0.00493455 -9.87859e-05 0.00503713)
(0.0112029 -0.00209001 -0.00287795 0.0060845 -0.000105565 0.0062756)
(0.0134648 -0.00254345 -0.00359763 0.00729876 -0.000126179 0.0076279)
(0.0163679 -0.00311674 -0.00455048 0.00884704 -0.000159553 0.00939386)
(0.0209051 -0.00400081 -0.00601346 0.011198 -0.000215404 0.0120584)
(0.0262656 -0.00496538 -0.00777481 0.0138803 -0.000315652 0.0151785)
(0.0324913 -0.00597452 -0.00986259 0.0168897 -0.000468228 0.0187416)
(0.0401885 -0.00714361 -0.0124387 0.0205308 -0.000664135 0.0229933)
(0.0505679 -0.00872577 -0.0158222 0.025388 -0.000913635 0.0284625)
(0.0678276 -0.0116932 -0.0212605 0.0334945 -0.0011608 0.0372592)
(0.0929918 -0.0162066 -0.0291406 0.0452224 -0.00136219 0.0498486)
(0.12809 -0.0226783 -0.0402359 0.0614597 -0.00149371 0.0673758)
(0.174947 -0.0313122 -0.0551472 0.0829614 -0.00166104 0.0909193)
(0.235771 -0.0425797 -0.0742627 0.110552 -0.00195485 0.121249)
(0.319404 -0.0584958 -0.0998777 0.14767 -0.00195203 0.161793)
(0.423257 -0.0792517 -0.130986 0.193024 -0.00108213 0.211268)
(0.531958 -0.102358 -0.162672 0.239812 0.000593619 0.262415)
(0.630307 -0.125641 -0.189388 0.28181 0.00277963 0.307247)
(0.70624 -0.146501 -0.2073 0.313795 0.00520308 0.339619)
(0.713991 -0.154141 -0.204426 0.315607 0.0076628 0.338801)
(0.650301 -0.146127 -0.182329 0.2866 0.00939521 0.305404)
(0.536816 -0.125454 -0.149188 0.236364 0.0102378 0.251042)
(0.409031 -0.0988975 -0.11498 0.180267 0.010152 0.192386)
(0.296247 -0.0730873 -0.0859171 0.130392 0.00895586 0.141611)
(0.216948 -0.0535489 -0.0654321 0.0946782 0.00732132 0.105843)
(0.174813 -0.0425185 -0.0542715 0.0750119 0.00601115 0.0865486)
(0.160226 -0.0385437 -0.0501524 0.0676883 0.00519752 0.0796742)
(0.162803 -0.0390241 -0.0506718 0.0679817 0.00469756 0.0805155)
(0.172563 -0.0411554 -0.0528349 0.0714064 0.00400051 0.0843903)
(0.18862 -0.0450987 -0.0558503 0.0777931 0.00259682 0.0906712)
(0.224354 -0.0542461 -0.0638259 0.0929943 0.00164887 0.106824)
(0.264197 -0.0630228 -0.0708311 0.107918 0.000137864 0.12299)
(0.297622 -0.070077 -0.0738965 0.117331 -0.000910001 0.131013)
(0.328149 -0.0726224 -0.0741125 0.122174 -0.00267613 0.134954)
(0.333739 -0.0615102 -0.0668896 0.114947 -0.00663414 0.129113)
(0.298847 -0.03881 -0.0497099 0.095455 -0.0108505 0.107183)
(0.242145 -0.0152726 -0.0280891 0.073208 -0.0126702 0.0772418)
(0.155202 -0.00203708 -0.012315 0.0459683 -0.00816759 0.0447351)
(0.0536767 -0.000227916 -0.0037238 0.015996 -0.00154895 0.0157181)
(0.00718975 -0.000254181 -0.000624397 0.00224696 4.85443e-06 0.00229197)
(0.000475289 -2.62812e-05 -4.65988e-05 0.000149711 2.54814e-06 0.000154251)
(2.18442e-05 -1.26519e-06 -2.07039e-06 6.88145e-06 1.10973e-07 7.12924e-06)
(6.13564e-07 -3.56762e-08 -5.59674e-08 1.95897e-07 2.70919e-09 2.04171e-07)
(1.61393e-08 -9.96469e-10 -1.12243e-09 8.31726e-09 8.99747e-11 8.74807e-09)
(1.03249e-07 -5.20265e-09 -1.79263e-09 9.74005e-08 5.56706e-10 1.00874e-07)
(3.77504e-06 -1.35118e-07 -3.53163e-08 3.54732e-06 1.16951e-08 3.65884e-06)
(6.84116e-05 -7.41539e-06 -9.27352e-07 6.6257e-05 2.40828e-07 6.74219e-05)
(0.00506764 -0.000738371 -0.000815753 0.00179018 -0.000121294 0.00221542)
(0.00786262 -0.00141913 -0.00132788 0.00413576 -0.000182918 0.00432116)
(0.0298461 -0.00583969 -0.00555293 0.0152171 -0.000897445 0.015736)
(0.0957863 -0.0187271 -0.0176355 0.0475424 -0.00294239 0.0480215)
(0.243206 -0.0508575 -0.0453148 0.120493 -0.00494269 0.116163)
(0.497571 -0.116838 -0.094839 0.248468 -0.0012829 0.228595)
(0.797482 -0.202915 -0.159115 0.389909 0.00750312 0.351898)
(0.619357 -0.165636 -0.13361 0.310768 0.00875356 0.277477)
(0.258798 -0.0705492 -0.0626839 0.135896 0.00433345 0.123483)
(0.0944969 -0.0240765 -0.0240758 0.0503153 0.00102356 0.0479153)
(0.0609975 -0.014489 -0.0149538 0.0325538 6.42898e-05 0.0317383)
(0.0756973 -0.0175656 -0.0185629 0.0397708 4.43071e-05 0.0391289)
(0.100259 -0.0231931 -0.0247688 0.0522157 0.000336601 0.0513692)
(0.133538 -0.0310875 -0.033475 0.0693009 0.00105034 0.0680907)
(0.168633 -0.0397471 -0.0430272 0.0876493 0.00214947 0.0860132)
(0.198821 -0.047558 -0.051883 0.103761 0.00313468 0.101729)
(0.237131 -0.0576154 -0.0635741 0.123937 0.00381957 0.121836)
(0.271557 -0.0663683 -0.0753694 0.142089 0.00405123 0.141421)
(0.312155 -0.0760667 -0.0892258 0.162691 0.00389304 0.165245)
(0.352438 -0.0850684 -0.103216 0.182159 0.00316323 0.189255)
(0.387103 -0.0917737 -0.11592 0.197768 0.00207771 0.209433)
(0.411379 -0.0945315 -0.125727 0.207328 0.00037494 0.222991)
(0.450094 -0.100122 -0.139366 0.224297 -0.00214167 0.243512)
(0.551069 -0.121401 -0.169845 0.272661 -0.00512822 0.294928)
(0.728802 -0.163118 -0.219957 0.358443 -0.0076463 0.382222)
(0.953347 -0.217307 -0.280709 0.463746 -0.00832664 0.487464)
(1.17772 -0.273986 -0.341807 0.568774 -0.00737309 0.592959)
(1.43432 -0.339442 -0.410814 0.688316 -0.00664725 0.71372)
(1.74801 -0.41797 -0.492548 0.83096 -0.00432516 0.857842)
(2.07733 -0.500346 -0.573639 0.973763 0.000153111 1.00302)
(2.3382 -0.566612 -0.63112 1.07873 0.00463482 1.10988)
(2.48536 -0.603491 -0.656387 1.12838 0.00854577 1.16064)
(2.53287 -0.616502 -0.654608 1.13239 0.0137445 1.16518)
(2.4356 -0.598328 -0.618726 1.07774 0.0201651 1.10781)
(2.18361 -0.54678 -0.55082 0.963781 0.0268693 0.988347)
(1.83248 -0.47229 -0.465426 0.813484 0.0329395 0.832362)
(1.45423 -0.387853 -0.37815 0.653463 0.0365592 0.670029)
(1.11022 -0.306079 -0.3 0.50654 0.0366696 0.524806)
(0.839027 -0.236673 -0.236966 0.38711 0.0337475 0.407929)
(0.626272 -0.178286 -0.184642 0.289915 0.0281051 0.311918)
(0.485536 -0.137864 -0.146835 0.223771 0.0221132 0.244059)
(0.41277 -0.11525 -0.124548 0.18772 0.0166496 0.204907)
(0.380238 -0.105213 -0.113342 0.171606 0.0128321 0.18569)
(0.37516 -0.104083 -0.111413 0.16929 0.0122176 0.183433)
(0.382847 -0.105381 -0.113941 0.172162 0.0130556 0.189829)
(0.388131 -0.104662 -0.112539 0.172941 0.0104317 0.191812)
(0.390397 -0.0989715 -0.105052 0.169776 0.00379035 0.186113)
(0.372001 -0.0830285 -0.0889725 0.152864 -0.00312935 0.167512)
(0.32795 -0.0580849 -0.0655541 0.12366 -0.00907992 0.13517)
(0.273958 -0.0307618 -0.0401512 0.092723 -0.0126562 0.0992302)
(0.216582 -0.00776865 -0.0186832 0.0654911 -0.0112368 0.0670503)
(0.108646 0.000235874 -0.00638918 0.0316183 -0.00409952 0.0312436)
(0.0212583 -0.000216405 -0.00128427 0.00639526 -0.000216031 0.00636588)
(0.00188918 -7.61747e-05 -0.000147978 0.000581645 1.31712e-06 0.000586494)
(0.000105997 -5.18054e-06 -8.49455e-06 3.28368e-05 2.87816e-07 3.33779e-05)
(3.58691e-06 -1.82725e-07 -2.83082e-07 1.11539e-06 1.01684e-08 1.14115e-06)
(7.79283e-08 -4.02477e-09 -5.84954e-09 2.63793e-08 2.13763e-10 2.71629e-08)
(1.01665e-07 -5.17022e-09 -1.83875e-09 9.45924e-08 4.77776e-10 9.7607e-08)
(3.75579e-06 -1.3545e-07 -3.63276e-08 3.50715e-06 9.32685e-09 3.6098e-06)
(6.83998e-05 -7.37269e-06 -9.23947e-07 6.59008e-05 2.01793e-07 6.69633e-05)
(0.038375 -0.00654994 -0.00553934 0.0185853 -0.00732657 0.0215019)
(0.0812979 -0.0210412 -0.0134656 0.0436711 -0.00178656 0.0455199)