/*--------------------------------*- C++ -*----------------------------------*\
| =========                 |                                                 |
| \\      /  F ield         | OpenFOAM: The Open Source CFD Toolbox           |
|  \\    /   O peration     | Version:  2.1.1                                 |
|   \\  /    A nd           | Web:      www.OpenFOAM.org                      |
|    \\/     M anipulation  |                                                 |
\*---------------------------------------------------------------------------*/
FoamFile
{
    version     2.0;
    format      ascii;
    class       volScalarField;
    location    "0.00115";
    object      T;
}
// * * * * * * * * * * * * * * * * * * * * * * * * * * * * * * * * * * * * * //

dimensions      [0 0 0 1 0 0 0];

internalField   nonuniform List<scalar> 
36520
(
378.751
379.184
379.204
379.221
379.232
379.241
379.248
379.255
379.261
379.267
379.272
379.277
379.282
379.288
379.294
379.301
379.308
379.314
379.321
379.328
379.336
379.345
379.356
379.371
379.391
379.417
379.45
379.493
379.546
379.61
379.688
379.777
379.885
380.012
380.017
379.864
379.662
379.487
379.348
379.254
379.202
379.177
379.167
379.165
379.167
379.17
379.173
379.176
379.179
379.18
379.183
379.183
379.185
379.185
379.186
379.186
379.186
379.186
379.182
378.465
381.843
382.304
382.289
382.329
382.362
382.392
382.412
382.434
382.457
382.489
382.524
382.568
382.614
382.665
382.719
382.78
382.845
382.916
382.99
383.067
383.144
383.224
383.31
383.409
383.531
383.685
383.877
384.112
384.399
384.75
385.162
385.577
385.92
386.04
385.471
384.097
382.696
382.421
382.41
382.406
382.405
382.405
382.405
382.406
382.406
382.407
382.407
382.408
382.408
382.408
382.408
382.408
382.408
382.409
382.409
382.409
382.409
382.409
382.404
381.609
382.057
382.609
382.658
382.712
382.779
382.85
382.929
383.02
383.121
383.242
383.376
383.533
383.705
383.899
384.109
384.342
384.593
384.865
385.152
385.454
385.766
386.101
386.468
386.889
387.393
388.001
388.726
389.574
390.574
391.779
393.206
394.678
395.912
396.496
395.102
390.814
384.534
382.537
382.487
382.487
382.487
382.487
382.487
382.487
382.487
382.487
382.487
382.487
382.487
382.487
382.487
382.487
382.487
382.487
382.487
382.487
382.487
382.487
382.482
381.685
382.273
382.902
383.044
383.192
383.364
383.55
383.751
383.98
384.234
384.534
384.866
385.251
385.671
386.145
386.659
387.228
387.838
388.498
389.195
389.925
390.675
391.469
392.333
393.31
394.474
395.882
397.565
399.534
401.869
404.756
408.3
412.103
415.219
416.885
415.267
407.944
391.908
382.834
382.494
382.488
382.488
382.488
382.488
382.488
382.488
382.488
382.488
382.488
382.488
382.488
382.488
382.488
382.488
382.488
382.488
382.488
382.488
382.488
382.483
381.686
382.65
383.463
383.802
384.142
384.5
384.872
385.26
385.695
386.169
386.723
387.331
388.027
388.782
389.621
390.529
391.53
392.596
393.747
394.972
396.262
397.591
398.998
400.524
402.234
404.251
406.68
409.589
412.998
417.052
422.155
428.559
435.443
440.725
443.667
443.562
437.336
411.986
384.184
382.529
382.489
382.488
382.488
382.488
382.488
382.488
382.488
382.488
382.488
382.488
382.488
382.488
382.488
382.488
382.488
382.488
382.488
382.488
382.488
382.483
381.686
383.318
384.395
385.004
385.61
386.201
386.81
387.411
388.08
388.793
389.611
390.506
391.511
392.589
393.782
395.085
396.538
398.111
399.842
401.742
403.812
405.992
408.327
410.827
413.52
416.56
420.099
424.338
429.324
435.2
442.482
450.829
458.132
463.06
466.321
468.73
469.028
445.914
388.538
382.695
382.495
382.489
382.488
382.488
382.488
382.488
382.488
382.488
382.488
382.488
382.488
382.488
382.488
382.488
382.488
382.488
382.488
382.488
382.488
382.483
381.686
384.235
385.786
386.811
387.818
388.674
389.539
390.352
391.254
392.219
393.326
394.543
395.924
397.428
399.127
401.058
403.298
405.78
408.575
411.888
415.637
419.494
423.733
428.095
432.217
436.572
441.083
445.779
450.616
455.739
461.113
465.121
466.993
469.168
471.451
474.473
480.414
473.202
396.777
383.269
382.524
382.489
382.488
382.488
382.488
382.488
382.488
382.488
382.488
382.488
382.488
382.488
382.488
382.488
382.488
382.488
382.488
382.488
382.488
382.483
381.686
386.03
388.253
389.639
390.908
392.041
393.257
394.336
395.621
397.092
398.835
400.792
403.022
405.381
408.013
411.098
414.337
417.633
421.064
424.49
427.702
431.028
434.683
438.778
443.371
448.712
455.106
462.681
470.97
477.02
472.479
456.857
450.6
451.175
453.852
459.368
472.148
484.647
403.26
384.458
382.606
382.493
382.488
382.488
382.488
382.488
382.488
382.488
382.488
382.488
382.488
382.488
382.488
382.488
382.488
382.488
382.488
382.488
382.488
382.483
381.686
386.256
389.771
392.314
394.401
395.781
397.354
398.871
402.274
406.165
410.309
413.991
417.481
420.864
422.868
424.044
426.348
428.971
432.391
435.782
436.523
437.599
439.177
441.127
443.494
446.434
450.251
454.989
460.233
466.144
472.55
472.365
455.3
441.244
441.245
446.902
461.413
484.957
418.427
387.211
382.845
382.504
382.489
382.488
382.488
382.488
382.488
382.488
382.488
382.488
382.488
382.488
382.488
382.488
382.488
382.488
382.488
382.488
382.488
382.483
381.686
387.22
391.414
394.022
396.446
398.007
399.472
400.772
402.993
406.452
411.443
417.826
425.52
432.573
436.048
435.273
436.609
440.754
444.292
446.365
447.348
447.601
447.318
447.353
448.356
449.826
451.92
454.862
458.695
463.772
470.959
473.379
457.807
442.418
441.481
446.87
460.982
484.358
425.152
388.477
382.967
382.51
382.489
382.488
382.488
382.488
382.488
382.488
382.488
382.488
382.488
382.488
382.488
382.488
382.488
382.488
382.488
382.488
382.488
382.483
381.686
390.296
393.394
399.742
401.386
403.05
404.871
406.427
407.931
409.373
410.944
412.623
414.359
416.168
418.288
420.013
421.781
423.747
425.764
427.878
429.863
431.952
434.342
437.338
441.228
445.693
450.226
454.617
458.864
462.844
466.392
468.027
460.562
445.955
441.559
445.387
455.35
473.636
448.866
392.394
383.279
382.524
382.489
382.488
382.488
382.488
382.488
382.488
382.488
382.488
382.488
382.488
382.488
382.488
382.488
382.488
382.488
382.488
382.488
382.483
381.686
390.523
394.134
398.74
401.431
402.514
403.852
405.147
406.654
408.367
410.504
413.055
415.922
418.741
421.213
423.331
425.363
427.487
429.72
431.938
434.048
436.172
438.447
440.624
442.762
445.656
446.847
445.786
448.43
458.202
466.007
460.796
451.597
440.85
432.297
434.38
439.117
451.198
449.514
392.366
383.191
382.516
382.489
382.488
382.488
382.488
382.488
382.488
382.488
382.488
382.488
382.488
382.488
382.488
382.488
382.488
382.488
382.488
382.488
382.483
381.686
390.945
395.266
400.027
401.719
402.663
404.163
405.562
407.286
409.152
411.321
413.759
416.453
419.051
421.274
423.258
425.167
427.149
429.423
431.754
433.824
436.1
438.568
441.371
444.684
448.025
73.0842
-165.727
-85.9004
264.53
419.319
444.892
445.318
433.572
423.728
428.889
436.151
449.164
448.544
392.424
383.206
382.517
382.489
382.488
382.488
382.488
382.488
382.488
382.488
382.488
382.488
382.488
382.488
382.488
382.488
382.488
382.488
382.488
382.488
382.483
381.686
390.6
393.919
403.87
407.039
407.163
408.374
409.88
411.523
413.086
414.64
416.135
417.691
419.358
421.025
422.619
424.131
425.652
427.339
429.335
431.627
434.179
437.188
440.737
444.804
449.179
429.556
428.271
446.161
458.923
464.25
466.521
463.157
449.359
443.202
446.768
455.347
472.072
450.453
392.591
383.284
382.523
382.489
382.488
382.488
382.488
382.488
382.488
382.488
382.488
382.488
382.488
382.488
382.488
382.488
382.488
382.488
382.488
382.488
382.483
381.686
387.895
391.633
394.426
398.205
401.743
404.702
406.712
409.006
412.116
415.252
417.054
417.332
417.401
417.915
419.045
421.374
425.855
433.979
435.646
438.099
439.534
440.64
446.061
446.705
448.654
450.256
453.008
457.171
462.648
470.423
476.631
468.228
450.916
443.784
447.362
455.861
472.753
440.199
390.156
383.049
382.512
382.489
382.488
382.488
382.488
382.488
382.488
382.488
382.488
382.488
382.488
382.488
382.488
382.488
382.488
382.488
382.488
382.488
382.483
381.686
386.52
389.931
392.39
395.023
397.8
401.358
403.924
406.411
408.8
411.203
413.424
415.48
417.161
418.68
420.265
422.268
425.366
429.854
432.464
434.589
436.856
441.256
443.379
445.224
447.897
451.185
457.936
466.186
476.863
483.954
477.668
462.013
448.612
444.965
448.627
458.458
475.525
434.972
388.823
382.915
382.505
382.489
382.488
382.488
382.488
382.488
382.488
382.488
382.488
382.488
382.488
382.488
382.488
382.488
382.488
382.488
382.488
382.488
382.483
381.686
386.46
388.627
390.007
391.422
392.765
394.213
395.453
396.858
398.303
399.907
401.612
403.707
406.059
408.537
411.08
413.427
415.901
418.927
422.482
425.253
427.659
431.577
436.266
440.431
444.093
448.651
454.536
462.98
474.583
481.86
469.48
454.01
448.665
451.011
456.55
467.872
483.921
409.97
384.65
382.604
382.492
382.488
382.488
382.488
382.488
382.488
382.488
382.488
382.488
382.488
382.488
382.488
382.488
382.488
382.488
382.488
382.488
382.488
382.483
381.686
384.399
385.787
386.798
387.749
388.603
389.434
390.176
390.969
391.779
392.659
393.59
394.624
395.705
396.816
397.948
399.133
400.388
401.763
403.251
404.847
406.539
408.444
410.662
413.25
416.442
420.431
425.336
431.28
438.939
449.029
460.129
464.189
464.504
466.923
470.308
475.531
464.762
391.417
382.996
382.511
382.489
382.488
382.488
382.488
382.488
382.488
382.488
382.488
382.488
382.488
382.488
382.488
382.488
382.488
382.488
382.488
382.488
382.488
382.483
381.686
383.482
384.381
384.996
385.561
386.133
386.694
387.225
387.803
388.396
389.06
389.762
390.534
391.336
392.163
393
393.884
394.795
395.761
396.767
397.805
398.873
400.046
401.409
403.06
405.155
407.806
411.013
414.746
419.16
424.604
431.517
439.33
445.514
449.372
451.171
447.504
421.078
385.174
382.598
382.492
382.488
382.488
382.488
382.488
382.488
382.488
382.488
382.488
382.488
382.488
382.488
382.488
382.488
382.488
382.488
382.488
382.488
382.488
382.483
381.686
382.774
383.513
383.884
384.227
384.589
384.952
385.316
385.716
386.141
386.625
387.144
387.722
388.327
388.964
389.617
390.318
391.048
391.828
392.635
393.469
394.329
395.277
396.382
397.74
399.477
401.676
404.323
407.414
411.052
415.384
420.465
425.348
428.734
430.591
429.409
421.423
397.872
383.234
382.511
382.489
382.488
382.488
382.488
382.488
382.488
382.488
382.488
382.488
382.488
382.488
382.488
382.488
382.488
382.488
382.488
382.488
382.488
382.488
382.483
381.686
382.328
382.981
383.175
383.366
383.572
383.782
383.995
384.233
384.49
384.786
385.106
385.466
385.844
386.248
386.666
387.124
387.606
388.128
388.672
389.244
389.842
390.505
391.272
392.209
393.394
394.882
396.67
398.76
401.246
404.244
407.629
411.033
413.528
413.807
410.455
401.534
387.177
382.661
382.492
382.488
382.488
382.488
382.488
382.488
382.488
382.488
382.488
382.488
382.488
382.488
382.488
382.488
382.488
382.488
382.488
382.488
382.488
382.488
382.483
381.686
382.085
382.639
382.719
382.802
382.887
382.971
383.06
383.157
383.262
383.382
383.511
383.655
383.806
383.967
384.133
384.314
384.502
384.705
384.914
385.132
385.361
385.614
385.906
386.263
386.709
387.261
387.917
388.674
389.552
390.541
391.628
392.641
393.255
393.187
391.388
387.29
383.229
382.508
382.488
382.487
382.487
382.487
382.487
382.487
382.487
382.487
382.487
382.487
382.487
382.487
382.487
382.487
382.487
382.487
382.487
382.487
382.487
382.487
382.482
381.685
381.85
382.276
382.314
382.394
382.432
382.467
382.489
382.511
382.53
382.558
382.584
382.616
382.646
382.677
382.706
382.738
382.77
382.803
382.836
382.869
382.901
382.936
382.98
383.04
383.122
383.233
383.373
383.545
383.74
383.954
384.177
384.359
384.432
384.356
383.903
383.052
382.503
382.436
382.428
382.422
382.418
382.416
382.414
382.413
382.412
382.411
382.411
382.411
382.411
382.411
382.411
382.41
382.411
382.41
382.411
382.41
382.411
382.41
382.406
381.611
378.944
379.446
379.451
379.454
379.456
379.459
379.461
379.464
379.468
379.471
379.475
379.479
379.483
379.488
379.493
379.498
379.503
379.509
379.515
379.521
379.528
379.537
379.55
379.569
379.596
379.633
379.683
379.747
379.824
379.913
380.004
380.094
380.174
380.245
380.264
380.19
380.071
379.922
379.786
379.676
379.598
379.546
379.512
379.49
379.475
379.466
379.459
379.456
379.453
379.451
379.45
379.449
379.449
379.448
379.448
379.447
379.448
379.447
379.443
378.72
378.972
379.451
379.455
379.457
379.459
379.461
379.463
379.465
379.468
379.471
379.474
379.478
379.482
379.486
379.49
379.494
379.499
379.504
379.509
379.514
379.52
379.528
379.538
379.553
379.574
379.604
379.644
379.696
379.759
379.833
379.914
379.995
380.071
380.138
380.145
380.081
379.979
379.847
379.727
379.632
379.566
379.524
379.496
379.48
379.469
379.463
379.459
379.457
379.455
379.454
379.454
379.453
379.454
379.453
379.453
379.453
379.454
379.453
379.449
378.726
381.853
382.297
382.309
382.368
382.401
382.427
382.442
382.46
382.472
382.497
382.523
382.555
382.586
382.617
382.645
382.675
382.706
382.738
382.769
382.799
382.829
382.862
382.9
382.95
383.02
383.117
383.244
383.403
383.586
383.774
383.961
384.102
384.126
383.979
383.539
382.889
382.486
382.434
382.427
382.422
382.419
382.417
382.415
382.414
382.414
382.413
382.413
382.413
382.413
382.413
382.413
382.413
382.413
382.413
382.413
382.413
382.413
382.412
382.408
381.613
382.061
382.599
382.65
382.706
382.764
382.824
382.887
382.957
383.032
383.12
383.215
383.323
383.436
383.557
383.682
383.817
383.959
384.11
384.267
384.43
384.6
384.787
384.999
385.257
385.578
385.982
386.473
387.051
387.715
388.434
389.155
389.769
390.024
389.709
388.304
385.58
382.986
382.5
382.488
382.487
382.487
382.487
382.487
382.487
382.487
382.487
382.487
382.487
382.487
382.487
382.487
382.487
382.487
382.487
382.487
382.487
382.487
382.487
382.482
381.685
382.238
382.886
383.037
383.193
383.359
383.53
383.708
383.902
384.11
384.354
384.619
384.917
385.226
385.552
385.884
386.244
386.621
387.017
387.426
387.849
388.287
388.764
389.306
389.964
390.801
391.876
393.214
394.809
396.67
398.815
401.184
403.445
404.938
404.916
402.447
395.948
385.973
382.609
382.491
382.488
382.488
382.488
382.488
382.488
382.488
382.488
382.488
382.488
382.488
382.488
382.488
382.488
382.488
382.488
382.488
382.488
382.488
382.488
382.483
381.686
382.569
383.373
383.717
384.039
384.373
384.713
385.059
385.431
385.83
386.295
386.804
387.369
387.947
388.541
389.139
389.791
390.481
391.204
391.95
392.719
393.507
394.365
395.321
396.461
397.918
399.837
402.287
405.252
408.781
412.964
417.848
422.875
427.266
429.689
428.412
420.46
398.659
383.293
382.51
382.489
382.488
382.488
382.488
382.488
382.488
382.488
382.488
382.488
382.488
382.488
382.488
382.488
382.488
382.488
382.488
382.488
382.488
382.488
382.483
381.686
383.063
384.087
384.603
385.097
385.588
386.09
386.575
387.091
387.633
388.265
388.948
389.691
390.434
391.173
391.908
392.71
393.549
394.416
395.316
396.244
397.193
398.222
399.364
400.731
402.498
404.874
407.981
411.827
416.566
422.447
429.779
438.399
445.892
452.537
454.721
451.861
428.633
386.008
382.606
382.492
382.488
382.488
382.488
382.488
382.488
382.488
382.488
382.488
382.488
382.488
382.488
382.488
382.488
382.488
382.488
382.488
382.488
382.488
382.483
381.686
383.845
385.16
385.868
386.568
387.213
387.889
388.52
389.212
389.939
390.771
391.669
392.622
393.559
394.46
395.342
396.301
397.322
398.354
399.423
400.52
401.615
402.766
403.986
405.406
407.247
409.773
413.154
417.448
422.87
430.002
438.971
449.415
458.223
464.81
469.476
474.182
466.301
392.48
382.915
382.505
382.489
382.488
382.488
382.488
382.488
382.488
382.488
382.488
382.488
382.488
382.488
382.488
382.488
382.488
382.488
382.488
382.488
382.488
382.483
381.686
384.991
386.823
387.863
388.877
389.731
390.646
391.501
392.442
393.45
394.594
395.835
397.147
398.421
399.623
400.793
402.145
403.657
405.217
407.035
409.27
411.399
413.465
415.152
416.708
418.917
422.592
427.708
434.292
442.774
454.317
466.134
468.125
465.356
466.745
471.331
478.29
488.215
406.003
383.952
382.559
382.49
382.488
382.488
382.488
382.488
382.488
382.488
382.488
382.488
382.488
382.488
382.488
382.488
382.488
382.488
382.488
382.488
382.488
382.483
381.686
386.93
389.593
390.866
392.237
393.358
394.662
395.932
397.504
399.222
401.236
403.434
405.908
408.441
410.723
412.926
415.812
419.073
421.965
424.783
427.334
429.716
432.352
435.187
438.36
442.085
446.61
452.454
460.268
470.296
478.46
469.886
455.481
447.918
448.884
454.354
466.005
484.441
422.87
386.182
382.707
382.496
382.489
382.488
382.488
382.488
382.488
382.488
382.488
382.488
382.488
382.488
382.488
382.488
382.488
382.488
382.488
382.488
382.488
382.483
381.686
387.444
391.79
394.368
396.998
398.171
399.592
401.67
405.283
410.241
416.323
423.179
430.571
437.642
441.931
442.163
441.46
443.287
447.106
449.136
448.175
446.95
447.793
448.182
448.087
449.66
452.877
457.329
462.546
469.576
478.231
478.329
438.278
430.225
439.422
446.461
459.374
479.557
434.345
389.551
383.02
382.511
382.489
382.488
382.488
382.488
382.488
382.488
382.488
382.488
382.488
382.488
382.488
382.488
382.488
382.488
382.488
382.488
382.488
382.483
381.687
387.783
392.384
396.451
399.439
401.708
404.194
406.885
410.45
414.505
418.801
423.212
427.709
431.759
434.158
434.583
434.912
437.171
440.426
442.019
442.735
444.33
445.873
447.023
448.544
450.709
453.719
457.52
461.8
466.467
472.309
478.331
467.489
448.031
443.223
447.004
458.453
478.032
436.93
390.294
383.093
382.515
382.489
382.488
382.488
382.488
382.488
382.488
382.488
382.488
382.488
382.488
382.488
382.488
382.488
382.488
382.488
382.488
382.488
382.483
381.686
389.443
393.567
397.397
401.468
404.991
408.26
411.198
413.991
416.574
418.864
421.653
424.259
426.805
428.936
430.579
432.17
434.031
436.065
438.079
440.156
442.345
444.62
446.841
448.327
449.438
451.842
455.216
459.303
464.548
472.3
479.68
473.301
453.174
443.873
447.352
455.556
473.051
446.191
391.831
383.211
382.52
382.489
382.488
382.488
382.488
382.488
382.488
382.488
382.488
382.488
382.488
382.488
382.488
382.488
382.488
382.488
382.488
382.488
382.483
381.686
390.196
394.121
398.227
401.992
405.637
408.462
411.043
413.488
415.74
417.828
419.944
422.063
423.956
425.585
426.83
428.018
429.506
431.295
433.249
435.468
437.94
440.644
443.507
446.392
449.149
451.767
454.739
458.588
463.662
471.057
479.191
473.175
452.578
442.437
445.812
453.81
470.906
447.779
392.236
383.254
382.522
382.489
382.488
382.488
382.488
382.488
382.488
382.488
382.488
382.488
382.488
382.488
382.488
382.488
382.488
382.488
382.488
382.488
382.483
381.686
388.421
392.487
396.23
399.831
402.262
405.001
406.422
407.984
409.579
411.133
412.604
414.202
416.175
418.514
420.432
422.608
425.207
428.287
432.025
436.453
440.003
443.106
446.418
449.608
452.403
454.732
457.652
461.109
464.719
468.743
473.065
463.867
445.766
441.524
445.34
456.841
476.696
439.328
390.972
383.174
382.519
382.489
382.488
382.488
382.488
382.488
382.488
382.488
382.488
382.488
382.488
382.488
382.488
382.488
382.488
382.488
382.488
382.488
382.483
381.686
388.463
393.017
396.571
398.202
399.597
400.986
401.846
403.177
404.542
406.166
407.778
409.677
411.77
414.009
416.356
418.808
421.423
424.119
426.781
429.388
432.086
435.842
439.692
443.718
446.483
449.237
453.249
457.903
463.151
467.606
464.454
453.581
437.913
431.396
434.89
444.153
462.04
442.174
391.033
383.145
382.516
382.489
382.488
382.488
382.488
382.488
382.488
382.488
382.488
382.488
382.488
382.488
382.488
382.488
382.488
382.488
382.488
382.488
382.483
381.686
389.459
393.307
394.848
396.311
397.514
397.584
398.485
399.618
401.021
402.862
404.937
407.271
409.484
411.626
413.74
415.94
418.242
420.648
423.306
426.108
428.974
431.184
433.658
436.379
439.542
442.937
448.366
455.834
464.898
465.198
458.233
454.919
450.785
444.482
440.288
439.042
449.951
427.946
386.97
382.756
382.498
382.489
382.488
382.488
382.488
382.488
382.488
382.488
382.488
382.488
382.488
382.488
382.488
382.488
382.488
382.488
382.488
382.488
382.483
381.686
385.639
388.775
391.016
393.227
394.582
396.293
396.579
397.45
398.646
400.377
402.506
404.987
407.117
409.058
411.008
412.892
414.703
416.446
418.024
419.799
421.739
423.865
426.651
430.243
433.724
438.118
444.533
451.426
454.71
450.67
450.499
456.358
456.129
447.01
438.565
430.513
436.573
420.082
385.861
382.686
382.495
382.489
382.488
382.488
382.488
382.488
382.488
382.488
382.488
382.488
382.488
382.488
382.488
382.488
382.488
382.488
382.488
382.488
382.483
381.687
384.446
386.474
387.868
389.226
390.495
391.828
393.106
394.45
395.901
397.593
399.418
401.421
403.631
406.113
408.345
409.93
411.634
413.803
416.254
418.879
421.579
424.253
427.412
430.327
433.997
438.581
443.215
447.626
452.424
456.033
452.624
450.549
452.007
455.225
460.584
468.357
456.124
395.972
383.355
382.533
382.49
382.488
382.488
382.488
382.488
382.488
382.488
382.488
382.488
382.488
382.488
382.488
382.488
382.488
382.488
382.488
382.488
382.488
382.483
381.686
383.369
384.666
385.647
386.628
387.585
388.534
389.45
390.371
391.313
392.377
393.567
394.902
396.244
397.577
398.917
400.354
401.976
403.812
405.813
407.972
410.259
412.663
415.316
418.37
422.077
426.659
432.103
438.27
445.262
452.289
457.663
460.573
462.667
464.494
468.052
461.215
424.584
386.463
382.679
382.495
382.489
382.488
382.488
382.488
382.488
382.488
382.488
382.488
382.488
382.488
382.488
382.488
382.488
382.488
382.488
382.488
382.488
382.488
382.483
381.686
382.7
383.57
384.057
384.542
385.041
385.532
386.018
386.509
387.006
387.565
388.159
388.818
389.479
390.153
390.827
391.549
392.326
393.176
394.075
395.028
396.023
397.087
398.302
399.788
401.688
404.131
407.173
410.839
415.346
420.902
427.66
434.579
439.326
441.684
437.735
425.137
399.439
383.543
382.525
382.489
382.488
382.488
382.488
382.488
382.488
382.488
382.488
382.488
382.488
382.488
382.488
382.488
382.488
382.488
382.488
382.488
382.488
382.488
382.483
381.686
382.315
382.987
383.209
383.441
383.696
383.948
384.212
384.485
384.77
385.093
385.436
385.819
386.209
386.618
387.03
387.475
387.948
388.461
388.997
389.559
390.133
390.742
391.436
392.289
393.381
394.773
396.48
398.51
400.943
403.873
407.317
410.71
413.219
413.953
410.528
401.447
387.628
382.707
382.494
382.488
382.488
382.488
382.488
382.488
382.488
382.488
382.488
382.488
382.488
382.488
382.488
382.488
382.488
382.488
382.488
382.488
382.488
382.488
382.483
381.686
382.079
382.633
382.718
382.811
382.908
383.007
383.112
383.225
383.342
383.477
383.621
383.782
383.948
384.125
384.304
384.499
384.704
384.925
385.155
385.395
385.638
385.895
386.186
386.54
386.988
387.551
388.232
389.028
389.959
391.042
392.222
393.357
394.179
394.278
392.338
388.002
383.466
382.517
382.488
382.487
382.487
382.487
382.487
382.487
382.487
382.487
382.487
382.487
382.487
382.487
382.487
382.487
382.487
382.487
382.487
382.487
382.487
382.487
382.482
381.685
381.829
382.228
382.279
382.361
382.412
382.451
382.484
382.513
382.538
382.57
382.604
382.644
382.684
382.724
382.761
382.799
382.839
382.883
382.926
382.969
383.01
383.051
383.098
383.161
383.248
383.368
383.521
383.708
383.933
384.199
384.485
384.761
384.954
384.962
384.395
383.321
382.541
382.432
382.423
382.417
382.414
382.412
382.411
382.41
382.41
382.409
382.409
382.409
382.409
382.409
382.409
382.409
382.409
382.409
382.409
382.409
382.409
382.409
382.404
381.61
378.781
379.358
379.367
379.376
379.38
379.385
379.389
379.394
379.398
379.402
379.407
379.412
379.416
379.421
379.427
379.432
379.437
379.443
379.448
379.453
379.459
379.466
379.475
379.489
379.509
379.537
379.575
379.625
379.687
379.763
379.851
379.948
380.052
380.16
380.168
380.064
379.924
379.77
379.633
379.529
379.46
379.417
379.391
379.377
379.368
379.363
379.36
379.358
379.358
379.357
379.357
379.357
379.357
379.357
379.357
379.356
379.357
379.356
379.353
378.631
379.04
379.615
379.617
379.617
379.62
379.624
379.629
379.634
379.642
379.651
379.661
379.672
379.685
379.699
379.713
379.729
379.747
379.765
379.784
379.805
379.827
379.854
379.887
379.93
379.987
380.06
380.15
380.253
380.36
380.467
380.569
380.653
380.705
380.718
380.665
380.484
380.302
380.134
379.986
379.868
379.784
379.728
379.691
379.666
379.65
379.64
379.633
379.628
379.625
379.623
379.62
379.619
379.618
379.618
379.617
379.617
379.617
379.616
379.612
378.885
379.318
379.919
379.933
379.94
379.952
379.964
379.979
379.995
380.017
380.042
380.071
380.104
380.141
380.181
380.225
380.274
380.327
380.383
380.443
380.507
380.576
380.653
380.747
380.859
380.985
381.124
381.266
381.409
381.549
381.68
381.791
381.856
381.845
381.733
381.469
380.978
380.604
380.41
380.261
380.145
380.066
380.013
379.978
379.957
379.943
379.935
379.928
379.924
379.92
379.918
379.916
379.915
379.914
379.913
379.913
379.912
379.912
379.912
379.907
379.173
379.681
380.317
380.371
380.41
380.451
380.496
380.543
380.597
380.663
380.736
380.822
380.915
381.019
381.132
381.255
381.39
381.536
381.691
381.853
382.021
382.191
382.35
382.509
382.688
382.896
383.126
383.364
383.601
383.827
384.034
384.209
384.309
384.27
384.038
383.32
382.023
380.994
380.699
380.551
380.443
380.372
380.326
380.297
380.28
380.269
380.263
380.259
380.257
380.255
380.254
380.252
380.252
380.251
380.251
380.25
380.25
380.25
380.25
380.245
379.503
380.021
380.777
380.926
381.048
381.169
381.296
381.428
381.576
381.743
381.924
382.124
382.334
382.561
382.795
383.039
383.288
383.538
383.78
384.009
384.219
384.413
384.626
384.881
385.196
385.575
386
386.452
386.918
387.387
387.856
388.318
388.73
389.033
388.721
387.339
384.498
381.616
380.925
380.758
380.652
380.584
380.542
380.517
380.502
380.494
380.489
380.486
380.485
380.484
380.483
380.483
380.483
380.483
380.483
380.483
380.483
380.483
380.483
380.478
379.73
380.368
381.314
381.611
381.874
382.127
382.385
382.648
382.925
383.221
383.525
383.84
384.151
384.463
384.766
385.06
385.338
385.597
385.832
386.051
386.269
386.517
386.822
387.214
387.698
388.294
388.995
389.768
390.596
391.468
392.385
393.341
394.327
395.145
395.099
393.556
389.243
382.928
381.078
380.832
380.711
380.634
380.588
380.56
380.544
380.534
380.529
380.526
380.524
380.523
380.522
380.522
380.522
380.522
380.521
380.521
380.521
380.521
380.521
380.516
379.768
380.56
381.588
381.956
382.27
382.568
382.857
383.145
383.432
383.717
383.993
384.262
384.519
384.765
384.999
385.224
385.438
385.646
385.853
386.072
386.326
386.606
386.917
387.3
387.789
388.414
389.17
390.02
390.944
391.932
392.981
394.086
395.264
396.087
396.059
394.555
390.373
383.423
381.033
380.747
380.612
380.527
380.474
380.443
380.425
380.414
380.408
380.404
380.402
380.401
380.4
380.399
380.399
380.399
380.398
380.398
380.398
380.398
380.398
380.393
379.647
380.139
381.155
381.594
381.969
382.291
382.579
382.854
383.125
383.387
383.641
383.884
384.116
384.339
384.552
384.759
384.962
385.16
385.358
385.558
385.774
386.02
386.317
386.694
387.179
387.783
388.496
389.296
390.17
391.116
392.137
393.229
394.384
395.571
396.665
396.426
393.348
385.236
380.989
380.588
380.428
380.328
380.266
380.229
380.208
380.195
380.187
380.182
380.179
380.177
380.176
380.175
380.174
380.174
380.173
380.173
380.172
380.173
380.172
380.167
379.427
379.35
380.202
380.454
380.686
380.901
381.128
381.331
381.549
381.752
381.963
382.168
382.369
382.571
382.763
382.969
383.189
383.427
383.687
383.984
384.342
384.812
385.28
385.737
386.238
386.841
387.495
388.117
388.682
389.29
390.024
390.955
391.822
392.324
392.218
391.072
387.7
382.256
380.523
380.248
380.082
379.976
379.911
379.873
379.851
379.838
379.83
379.826
379.823
379.821
379.82
379.819
379.818
379.818
379.817
379.817
379.817
379.816
379.816
379.811
379.079
378.847
379.572
379.679
379.777
379.867
379.96
380.051
380.145
380.24
380.336
380.435
380.534
380.636
380.74
380.848
380.959
381.075
381.193
381.319
381.453
381.598
381.755
381.936
382.159
382.433
382.747
383.082
383.435
383.813
384.208
384.607
384.968
385.245
385.299
384.69
382.971
380.797
380.112
379.851
379.671
379.553
379.479
379.434
379.408
379.392
379.383
379.377
379.373
379.371
379.369
379.368
379.367
379.366
379.365
379.365
379.364
379.364
379.363
379.358
378.637
378.688
379.398
379.482
379.558
379.632
379.704
379.777
379.849
379.922
379.994
380.065
380.134
380.201
380.266
380.328
380.387
380.443
380.497
380.549
380.602
380.661
380.733
380.829
380.954
381.114
381.306
381.524
381.766
382.035
382.33
382.644
382.959
383.254
383.457
383.175
382.063
380.532
379.954
379.692
379.505
379.381
379.301
379.252
379.223
379.204
379.193
379.185
379.181
379.177
379.175
379.174
379.173
379.172
379.171
379.17
379.169
379.169
379.168
379.164
378.447
378.813
379.511
379.589
379.657
379.719
379.783
379.845
379.909
379.977
380.045
380.115
380.185
380.257
380.329
380.402
380.473
380.542
380.61
380.675
380.739
380.807
380.884
380.98
381.104
381.261
381.451
381.672
381.921
382.202
382.514
382.853
383.211
383.577
383.905
383.689
382.539
380.76
380.026
379.772
379.601
379.491
379.422
379.38
379.356
379.341
379.333
379.327
379.324
379.322
379.321
379.32
379.32
379.319
379.319
379.319
379.318
379.318
379.317
379.313
378.593
378.893
379.55
379.594
379.631
379.668
379.707
379.747
379.789
379.835
379.882
379.934
379.988
380.045
380.103
380.164
380.227
380.29
380.353
380.415
380.478
380.542
380.614
380.701
380.811
380.95
381.12
381.316
381.533
381.773
382.037
382.32
382.61
382.908
382.984
382.57
381.556
380.448
380.034
379.83
379.685
379.592
379.534
379.5
379.48
379.468
379.461
379.458
379.456
379.454
379.454
379.453
379.453
379.453
379.453
379.453
379.452
379.453
379.452
379.448
378.725
378.892
379.519
379.537
379.552
379.567
379.584
379.601
379.62
379.642
379.665
379.69
379.717
379.746
379.777
379.809
379.842
379.877
379.913
379.949
379.985
380.024
380.067
380.119
380.186
380.271
380.378
380.505
380.653
380.812
380.98
381.153
381.316
381.446
381.48
381.228
380.705
380.23
379.991
379.823
379.697
379.616
379.564
379.533
379.514
379.503
379.497
379.493
379.491
379.489
379.489
379.488
379.488
379.488
379.488
379.488
379.488
379.488
379.488
379.484
378.76
378.885
379.477
379.484
379.489
379.494
379.5
379.507
379.514
379.522
379.531
379.541
379.552
379.563
379.576
379.589
379.602
379.617
379.631
379.647