/*--------------------------------*- C++ -*----------------------------------*\
| =========                 |                                                 |
| \\      /  F ield         | OpenFOAM: The Open Source CFD Toolbox           |
|  \\    /   O peration     | Version:  2.1.1                                 |
|   \\  /    A nd           | Web:      www.OpenFOAM.org                      |
|    \\/     M anipulation  |                                                 |
\*---------------------------------------------------------------------------*/
FoamFile
{
    version     2.0;
    format      ascii;
    class       volScalarField;
    location    "0.00115";
    object      TLS;
}
// * * * * * * * * * * * * * * * * * * * * * * * * * * * * * * * * * * * * * //

dimensions      [0 1 0 0 0 0 0];

internalField   nonuniform List<scalar> 
36520
(
0.000392472
0.00032963
0.000291891
0.000283245
0.000277075
0.000276167
0.000275963
0.000276132
0.000275739
0.000275525
0.000276158
0.000277493
0.000279742
0.000282614
0.000286126
0.00029007
0.000294463
0.000299075
0.000304069
0.000309292
0.000315027
0.000321241
0.000328265
0.000336159
0.000345168
0.000355286
0.000366675
0.000379328
0.00039331
0.000408509
0.000424847
0.000442053
0.000459837
0.0004778
0.000495525
0.000512586
0.000528711
0.000543804
0.000558015
0.000571851
0.000586209
0.000602399
0.00062138
0.000642871
0.000665953
0.000697225
0.000739423
0.000797763
0.000871188
0.00100029
0.00128795
0.00162439
0.00171363
0.00176959
0.00179228
0.00182786
0.00182285
0.00184347
0.00182552
0.00176889
0.000670438
0.000358729
0.000331343
0.000327923
0.000330103
0.000341679
0.000344932
0.000343653
0.000342691
0.000342619
0.000342855
0.000343908
0.000348142
0.000354577
0.000362244
0.000368533
0.00037342
0.000376206
0.000377925
0.000379329
0.000381331
0.00038419
0.000388691
0.00039501
0.000403101
0.000412515
0.000423088
0.000434339
0.000444986
0.000453258
0.000457357
0.000456214
0.000450361
0.000441533
0.000431511
0.000421017
0.000409324
0.000395751
0.000380081
0.000362084
0.00034186
0.000320081
0.000298064
0.000277561
0.000260337
0.000246455
0.000235674
0.000228259
0.000222496
0.000220395
0.000234691
0.000273785
0.000527395
0.000952733
0.000975647
0.000972126
0.00097786
0.000972526
0.00100465
0.00285149
0.000818498
0.000388852
0.000365579
0.000367676
0.000379004
0.000401095
0.000401156
0.000403218
0.000408331
0.00041192
0.000413362
0.000414271
0.000420348
0.000428309
0.000435588
0.00043801
0.000436655
0.000432487
0.000426987
0.00042157
0.000416558
0.000411808
0.000407109
0.000401512
0.000393965
0.000383805
0.000371321
0.000357496
0.000344282
0.000332788
0.000323242
0.000315423
0.000308916
0.000303171
0.000297913
0.000292742
0.000287306
0.000281472
0.000275304
0.000268921
0.00026249
0.000256285
0.000250453
0.00024502
0.00024008
0.00023614
0.000232804
0.000230053
0.000228727
0.000227161
0.000235785
0.000263222
0.000303682
0.000500719
0.00077334
0.000767946
0.000765361
0.000756192
0.000874465
0.00299111
0.000975159
0.000418228
0.000395102
0.000384469
0.000326915
0.000233641
0.000182331
0.000215553
0.000355335
0.00041816
0.000420179
0.000411891
0.000402689
0.000392707
0.000382836
0.000374128
0.000366021
0.000358219
0.000350312
0.00034225
0.000334118
0.000325906
0.000317582
0.000309241
0.000301172
0.0002936
0.000286752
0.000280754
0.000275831
0.000271959
0.000268964
0.000266711
0.00026547
0.000264892
0.000265999
0.000267441
0.00026491
0.0002608
0.000256155
0.000251408
0.00024675
0.000242378
0.000238382
0.000234668
0.00023135
0.000228217
0.000221596
0.000213643
0.000215485
0.000227517
0.000240436
0.000262103
0.000295
0.000319834
0.000469379
0.000681006
0.000671387
0.000675393
0.000961483
0.00302119
0.00114709
0.00040145
0.000283009
0.000175945
0.000143911
0.000134172
0.000129948
0.00013607
0.00016794
0.000248501
0.000275989
0.000274455
0.000271798
0.000268827
0.000267315
0.000269007
0.000272974
0.000274291
0.000271267
0.000266876
0.000260823
0.000254237
0.000247431
0.000240657
0.000234073
0.000227814
0.000221955
0.000216418
0.000211401
0.000206919
0.000202732
0.000198511
0.000194069
0.000193489
0.000197542
0.000207271
0.000221576
0.000228352
0.000227522
0.000225577
0.000222982
0.000220179
0.000217154
0.000213509
0.00020961
0.000206362
0.000195344
0.000175713
0.000177023
0.00019823
0.000233619
0.000262492
0.000291817
0.000312537
0.000323743
0.000420061
0.000619494
0.00070064
0.00100657
0.00302757
0.00130518
0.000188309
0.000149958
0.000139899
0.000135042
0.000130303
0.000126319
0.000129737
0.000142389
0.00016629
0.000177428
0.000178385
0.00017965
0.000181555
0.000184812
0.000190605
0.00019766
0.000201545
0.000203901
0.000205643
0.00020677
0.00020675
0.00020359
0.000199755
0.000195735
0.000191816
0.000188132
0.000184272
0.000180274
0.000176555
0.000173382
0.000170666
0.000169041
0.000168605
0.000169443
0.000171661
0.000175598
0.000180864
0.000185616
0.000188188
0.00018893
0.000189547
0.000189831
0.000185062
0.000175769
0.000161949
0.000133057
0.000101175
9.15663e-05
9.64077e-05
0.000131449
0.000242299
0.000288049
0.000309721
0.000318233
0.000324982
0.000382904
0.000715183
0.0010123
0.00303011
0.00118093
0.000152403
0.000144381
0.000138886
0.000133895
0.000128632
0.000123093
0.000125151
0.000134144
0.000147235
0.000157193
0.000158665
0.000158903
0.000159077
0.000159409
0.000160491
0.000162007
0.00016507
0.000167083
0.000168222
0.000169757
0.000172176
0.000174622
0.000174596
0.000172274
0.000169455
0.000166921
0.000164532
0.000162104
0.00015992
0.000158278
0.000157103
0.000156373
0.000156322
0.000156568
0.000157116
0.000158241
0.000160189
0.000162672
0.000165808
0.000168532
0.000169729
0.000168893
0.00016265
0.000144481
0.000102356
6.34209e-05
4.92024e-05
4.35272e-05
4.54049e-05
6.05382e-05
0.000171912
0.000280429
0.000306003
0.000319241
0.000327578
0.00033927
0.000711308
0.00101245
0.00303303
0.000686692
0.000148995
0.000140945
0.000133405
0.000126957
0.000122313
0.00011861
0.000119096
0.000123464
0.000132505
0.000143226
0.000143677
0.000142228
0.000140468
0.000138494
0.0001371
0.000138456
0.000142454
0.000147355
0.000149677
0.000150371
0.000150398
0.000150015
0.000149522
0.000148779
0.000147558
0.00014623
0.000145205
0.000144441
0.000143771
0.000143072
0.000141873
0.000140312
0.000140442
0.000141621
0.000143839
0.000146074
0.00014787
0.000150005
0.000153218
0.000157247
0.000160449
0.000162732
0.000165788
0.000167776
0.000157091
9.08582e-05
3.82645e-05
3.39469e-05
3.61601e-05
4.69856e-05
0.000149773
0.00028569
0.000313054
0.000329071
0.000339215
0.000347032
0.000684847
0.0010123
0.00303691
0.000585607
0.000155403
0.000144281
0.000139555
0.000126008
0.000111242
0.000110991
0.000120823
0.000128353
0.000130055
0.000130086
0.000129293
0.000128164
0.000127148
0.000126589
0.000127332
0.000128686
0.000130446
0.00013289
0.000135628
0.000137944
0.000139366
0.000139915
0.000140099
0.000140142
0.000139622
0.000138254
0.000136265
0.000134138
0.00013221
0.000130684
0.000129389
0.000127876
0.000126095
0.000124453
0.000123684
0.000124104
0.000124994
0.000126392
0.000129811
0.000138869
0.000153499
0.000158696
0.000162622
0.000167363
0.000172549
0.000129419
3.54335e-05
3.16552e-05
3.5019e-05
4.57795e-05
0.000147336
0.000318185
0.000345088
0.000359258
0.000368442
0.000374891
0.000616403
0.00101197
0.0030398
0.00060387
0.00015919
0.000147396
0.000144785
0.000143496
0.000138638
0.000132257
0.000132674
0.000139588
0.000142591
0.000142597
0.000141641
0.000139884
0.000138485
0.000137796
0.000137428
0.000138143
0.000139934
0.000141907
0.000143744
0.000144627
0.000144921
0.000145335
0.000145325
0.000144918
0.000143902
0.000141911
0.000138314
0.000133886
0.000131049
0.000130277
0.000130443
0.000130653
0.00013106
0.00013168
0.000132443
0.000133092
0.000133356
0.000134808
0.000139026
0.000145559
0.00015137
0.000154699
0.000158721
0.000173592
0.000195763
0.000136556
4.03039e-05
3.67831e-05
4.06179e-05
5.35304e-05
0.00017469
0.000337968
0.000360631
0.000372106
0.000379482
0.000384608
0.000604725
0.00101201
0.00303952
0.000653326
0.000171187
0.000157592
0.000151807
0.000147223
0.000127546
0.000113273
0.000117413
0.000132226
0.000138624
0.000140247
0.000142068
0.000143219
0.000143325
0.000142951
0.000142746
0.000142717
0.000142868
0.000142841
0.000141864
0.00014003
0.000138232
0.000136739
0.000138213
0.000139931
0.000140259
0.000138764
0.000138232
0.000138644
0.000139029
0.000139237
0.000139247
0.000139201
0.000139172
0.000139255
0.000139845
0.00014096
0.000142422
0.000144074
0.000147334
0.000153918
0.000158573
0.000163705
0.000170683
0.000181546
0.000190602
0.000142027
3.82028e-05
3.38611e-05
3.65939e-05
4.70846e-05
0.00015878
0.000304866
0.000329646
0.000345203
0.000355838
0.00036348
0.000578059
0.00101288
0.00304077
0.000676671
0.000176156
0.000160924
0.000143338
0.000135815
0.000130291
0.000125858
0.00012682
0.000128041
0.000130386
0.00013192
0.000132779
0.000133071
0.00013307
0.000133098
0.000133224
0.000133165
0.000132888
0.000133159
0.000134247
0.000134838
0.000131282
0.000133294
0.000137418
0.000141403
0.000139507
0.00012719
0.000122234
0.000127831
0.000134863
0.000137057
0.000137368
0.000123491
0.000115968
0.000116946
0.000123938
0.00013831
0.000141208
0.000141626
0.000145001
0.000150335
0.00015589
0.000162135
0.000169276
0.000175925
0.000180657
0.000155725
4.04418e-05
3.0811e-05
3.1897e-05
3.59606e-05
8.70562e-05
0.000247628
0.000269402
0.000285712
0.000298395
0.000308296
0.000574839
0.00101373
0.00303978
0.000632609
0.000172209
0.000159897
0.000143569
0.000131628
9.99772e-05
6.94324e-05
7.01097e-05
9.24332e-05
0.000125571
0.000133251
0.00013368
0.000133796
0.00013375
0.000133486
0.000133303
0.000133305
0.000133254
0.000133352
0.000134047
0.000135046
0.000132741
0.000132802
0.000135864
0.000139891
0.000139571
0.000138526
0.000126647
0.000113585
0.000118105
0.000132754
0.000138192
0.000139196
0.00013847
0.000126418
0.000118351
0.000119981
0.000134963
0.000147621
0.000150727
0.000152496
0.000150691
0.000151061
0.000165943
0.000176687
0.000179232
0.000148933
3.98962e-05
3.03238e-05
3.14355e-05
3.54594e-05
8.37164e-05
0.000242569
0.000264983
0.000281777
0.000294941
0.000305223
0.000574074
0.00101361
0.00303999
0.000639117
0.000173006
0.000147743
0.00013953
0.000118759
6.88053e-05
3.97558e-05
3.66605e-05
4.6253e-05
9.64465e-05
0.000139056
0.000143729
0.000145543
0.000145606
0.000144273
0.000142375
0.00014169
0.000142079
0.000142697
0.000143198
0.000142868
0.000142321
0.000143173
0.000146572
0.000148114
0.000147442
0.000147616
0.000146353
0.000144052
0.000143119
0.000142888
0.000142796
0.000143062
0.000143492
0.000143688
0.000142958
0.000142655
0.000143554
0.000145502
0.000149161
0.000152942
0.00015594
0.00015984
0.00016847
0.000183677
0.00018915
9.95197e-05
3.53983e-05
3.40545e-05
3.70243e-05
5.27657e-05
0.000197885
0.000298679
0.000325482
0.000342452
0.000353654
0.000361487
0.000592583
0.00101282
0.00304026
0.000619438
0.000177558
0.00014318
0.000129882
0.000105262
6.54752e-05
3.72411e-05
3.05229e-05
3.41389e-05
6.56874e-05
0.000128926
0.000137413
0.000138505
0.000137682
0.000136618
0.000136515
0.000137458
0.000139833
0.000140514
0.000140454
0.000141759
0.000144667
0.000147787
0.00014893
0.000148893
0.000141825
0.000126797
0.000127043
0.000130066
0.000139231
0.000146917
0.000150923
0.000153072
0.000153339
0.000142646
0.000127818
0.000129233
0.000133622
0.000148051
0.00015074
0.000152395
0.000155602
0.000162175
0.000172758
0.000193084
0.000199882
9.66291e-05
3.76986e-05
3.76867e-05
4.2048e-05
7.41438e-05
0.000272651
0.000331248
0.000354429
0.00036648
0.00037359
0.000378423
0.000642228
0.00101234
0.00303889
0.000654997
0.000174535
0.00015053
0.000132352
8.93621e-05
5.1098e-05
4.24709e-05
5.20142e-05
9.01375e-05
0.000126931
0.000136944
0.000137848
0.000137493
0.000137029
0.000136665
0.000136411
0.000136093
0.000136102
0.000136056
0.000137273
0.000140691
0.000143824
0.000144572
0.000140291
0.000122787
0.000122622
0.000124101
0.000135126
0.000142287
0.000142902
0.000142835
0.000137259
0.000113842
0.000104899
0.000124567
0.000151954
0.000155648
0.000155952
0.000155214
0.000156211
0.000160016
0.000164609
0.000172399
0.000184852
0.000196778
0.000196745
8.83342e-05
3.54293e-05
3.56183e-05
3.96817e-05
6.63409e-05
0.000255918
0.000320493
0.000342917
0.000355663
0.000363647
0.000369363
0.000653696
0.00101194
0.00303922
0.000775085
0.000156191
0.000145409
0.000139427
0.000133682
0.000121945
0.000119968
0.000128536
0.000135779
0.000142768
0.000150064
0.000155963
0.000156993
0.000155754
0.000153741
0.000151396
0.000150013
0.000149074
0.000148737
0.000150187
0.000152554
0.000153229
0.000149901
0.000148962
0.000149319
0.000150465
0.000151838
0.000152361
0.000150165
0.00013907
0.000131767
0.000131677
0.000131445
0.000134646
0.000144287
0.000153513
0.000157116
0.000159451
0.000160378
0.000162443
0.000165423
0.000168636
0.000170917
0.000174284
0.000179683
0.000168627
6.95506e-05
3.58619e-05
3.462e-05
3.81949e-05
5.56456e-05
0.000191658
0.000285071
0.000307349
0.000321687
0.000331355
0.000339783
0.000691905
0.00101253
0.00303835
0.00121404
0.000166979
0.000159783
0.000154989
0.000148496
0.000141563
0.000137139
0.000139045
0.000143438
0.000150281
0.000160716
0.000169308
0.000170971
0.00017152
0.000170741
0.000168682
0.000165388
0.000163019
0.000162549
0.000164108
0.000166163
0.000167681
0.000169968
0.000171909
0.000170813
0.000168952
0.000166864
0.00016485
0.000163067
0.000161537
0.000160546
0.000160408
0.000161053
0.000162402
0.000164675
0.000167468
0.000169451
0.000170468
0.00017019
0.000169799
0.000168961
0.000167453
0.000165725
0.000163117
0.000151594
0.000103284
6.04742e-05
4.6078e-05
4.12405e-05
4.36856e-05
6.02005e-05
0.00017435
0.000270476
0.000296087
0.000310584
0.000320419
0.000342082
0.000711505
0.00101249
0.00303332
0.00118064
0.000235852
0.00017045
0.000158179
0.00015192
0.000147858
0.000144206
0.000145588
0.000150115
0.000162494
0.000189752
0.000201003
0.000201203
0.000199956
0.00019725
0.00019374
0.000189855
0.000185152
0.000184425
0.000189455
0.00019667
0.000204868
0.000210152
0.000209161
0.000207263
0.000205046
0.000203011
0.000201622
0.000201117
0.000201557
0.000203432
0.000206593
0.000210205
0.000213314
0.000214764
0.000213804
0.000210416
0.000205554
0.000199864
0.000193895
0.000187693
0.000181553
0.000174913
0.000167416
0.000162159
0.000158462
0.00014198
0.000107102
8.69958e-05
8.35057e-05
0.00010308
0.000210659
0.000277348
0.000299311
0.000310257
0.000323268
0.000461179
0.000712516
0.00101193
0.00303013
0.00102699
0.000428349
0.000340323
0.000204715
0.00016701
0.00015714
0.000151611
0.000154226
0.000169892
0.000234037
0.000301476
0.000309958
0.000307265
0.000302651
0.000295959
0.000287328
0.000277187
0.000265784
0.000264613
0.000274159
0.00028292
0.000287455
0.000286175
0.000283064
0.00027982
0.000276501
0.000273299
0.000270306
0.000267447
0.000264519
0.000261345
0.000257576
0.000253049
0.00024778
0.000241795
0.000235215
0.000228125
0.000220665
0.000212949
0.000205075
0.000197105
0.000189108
0.000180862
0.000176395
0.000177384
0.000181827
0.00018612
0.000186515
0.000184959
0.000188129
0.000202339
0.000244874
0.000279318
0.000302373
0.000315553
0.000408582
0.000618191
0.000697209
0.00100533
0.00302685
0.000878688
0.000418577
0.000405264
0.000413104
0.000361907
0.00025786
0.000208191
0.000228072
0.000317435
0.000386938
0.000392456
0.000386941
0.000379916
0.000372527
0.000364922
0.000357721
0.000351014
0.000344817
0.000341736
0.000340171
0.000337635
0.000333989
0.000329435
0.000324453
0.000319204
0.00031376
0.000308268
0.000302791
0.000297328
0.000291773
0.00028601
0.000279905
0.000273383
0.000266378
0.000258832
0.000250746
0.000242142
0.000233085
0.000223761
0.000214496
0.000205677
0.000197596
0.00019059
0.000185191
0.000184736
0.00018853
0.000193723
0.000200166
0.000206726
0.000213828
0.000223695
0.00024663
0.000285084
0.000310597
0.000374566
0.00064725
0.000672017
0.000686331
0.000970294
0.00302313
0.000770124
0.00039233
0.000376262
0.000386781
0.0004029
0.000429081
0.00043142
0.000433781
0.000437366
0.000438445
0.000438686
0.000439218
0.000439086
0.000440748
0.000443355
0.000442606
0.000438314
0.00043252
0.000427047
0.000421655
0.000416114
0.000410151
0.000403427
0.0003956
0.000386398
0.000375628
0.000363836
0.000351857
0.000340312
0.000329418
0.000319136
0.000309069
0.000298782
0.000288022
0.000276694
0.000264752
0.000252145
0.000238947
0.00022543
0.000212037
0.000199232
0.00018722
0.000178447
0.000174645
0.000175822
0.000181347
0.000189447
0.00019972
0.000207267
0.000210084
0.000219939
0.000249155
0.000291046
0.00040051
0.00075636
0.000780006
0.000780855
0.000776374
0.00089737
0.00299992
0.000659088
0.000364261
0.000342523
0.000344548
0.000348611
0.000359749
0.000361808
0.000362273
0.00036299
0.00036421
0.000365954
0.000368726
0.000372007
0.000377294
0.000385746
0.000394518
0.000402179
0.00040731
0.000411888
0.000415724
0.00041885
0.00042087
0.000422824
0.000426633
0.000432555
0.000440068
0.000448135
0.000455205
0.000459755
0.000460362
0.000456443
0.000448336
0.000436704
0.000421903
0.000404313
0.000384313
0.000362053
0.000337744
0.000311695
0.000284319
0.000256979
0.000234395
0.000219519
0.000212938
0.000211794
0.000211539
0.000209871
0.00020557
0.000203029
0.000205911
0.000221411
0.00025987
0.000487098
0.000974846
0.00100542
0.00100294
0.00100563
0.00100007
0.00102892
0.00288617
0.000371889
0.000335091
0.000301393
0.000295042
0.000289849
0.00028863
0.000288146
0.000288401
0.000288753
0.000289374
0.000290661
0.000292448
0.00029519
0.000298488
0.000302575
0.000307257
0.000312601
0.000318208
0.000324107
0.000330087
0.000336497
0.000343342
0.000350989
0.0003594
0.000368934
0.000379608
0.000391505
0.000404448
0.000418415
0.0004332
0.000448557
0.000464073
0.000479531
0.000494705
0.000509474
0.000523643
0.000537193
0.000550354
0.000563554
0.000577832
0.000594779
0.000617539
0.000649925
0.000690347
0.000737754
0.000795155
0.000869348
0.000968135
0.00109077
0.00123876
0.00146393
0.00170147
0.00177573
0.00181758
0.00183598
0.00186732
0.00186393
0.00188546
0.00187046
0.00183622
0.000398888
0.000352598
0.000313714
0.00030462
0.000296278
0.000292478
0.000289586
0.000288438
0.000288433
0.000289162
0.000290977
0.000293216
0.000296467
0.000300085
0.000304488
0.000309266
0.000314582
0.00032023
0.000326314
0.000332692
0.000339662
0.000347154
0.000355528
0.000364844
0.000375394
0.000387086
0.000399983
0.00041392
0.000428839
0.000444481
0.000460632
0.000476969
0.000493264
0.000509135
0.000524208
0.000538102
0.000550776
0.000562515
0.000573891
0.000586079
0.000600552
0.000620659
0.000650208
0.000687623
0.000730792
0.000780454
0.000841262
0.000922366
0.00103067
0.00116792
0.00138854
0.0016881
0.00178856
0.00183046
0.00184698
0.00187672
0.00187199
0.00189229
0.00187489
0.00181724
0.000684261
0.000384355
0.000358602
0.000354261
0.000348134
0.00034777
0.000345979
0.000347149
0.000348704
0.0003515
0.000354503
0.000359925
0.00036547
0.000373068
0.000380997
0.000388799
0.000396691
0.000402763
0.000407539
0.000411417
0.000414857
0.000418261
0.000422485
0.000428034
0.000435058
0.000442551
0.000449211
0.000453416
0.000453888
0.000449878
0.000441798
0.000430627
0.000417436
0.000402871
0.000387174
0.000370203
0.000351646
0.000331344
0.000309542
0.000286892
0.000265539
0.0002469
0.00023232
0.000222361
0.000215691
0.000210307
0.000204742
0.000198693
0.000192579
0.000190932
0.000202086
0.000236251
0.000393984
0.00093124
0.00098766
0.000986017
0.00099275
0.000986293
0.00101992
0.00287013
0.000845965
0.000418096
0.000397379
0.000398081
0.000394172
0.000397952
0.000397873
0.00040229
0.000406059
0.000410821
0.000414867
0.000421448
0.000426235
0.000431321
0.000433624
0.000432704
0.000429266
0.000423569
0.0004167
0.000409153
0.000401126
0.000392506
0.000383006
0.000372159
0.000359763
0.000346443
0.000333137
0.000320621
0.000309213
0.000298948
0.000289603
0.000280789
0.000272218
0.000263653
0.000254858
0.000245657
0.000235968
0.000225817
0.000215481
0.000205368
0.000195698
0.000186638
0.000179423
0.000176041
0.00017673
0.000181501
0.000186097
0.000190174
0.00019336
0.000192854
0.000200761
0.000228589
0.00026905
0.000357532
0.00072265
0.000760642
0.000765951
0.000762201
0.000894369
0.00299823
0.000995396
0.000449925
0.000432058
0.000436105
0.000430244
0.000426749
0.000415785
0.00040327
0.000389408
0.000376102
0.000363758
0.000352507
0.000342784
0.000334279
0.000327019
0.00032079
0.000315102
0.000309886
0.000304944
0.00029994
0.000294471
0.000288894
0.000283293
0.000277751
0.000272394
0.000267376
0.000262812
0.000258634
0.000254698
0.000250831
0.000246771
0.000242109
0.000236495
0.000229723
0.000221845
0.000213041
0.000203554
0.000193684
0.000183812
0.000174299
0.000165358
0.000156925
0.000148842
0.000143019
0.000142366
0.000146709
0.000155184
0.000165257
0.000176911
0.000188405
0.000202014
0.00022626
0.00026284
0.000291233
0.000328322
0.000589124
0.000646904
0.000676526
0.000976744
0.0030247
0.00113988
0.000462032
0.000420506
0.000373191
0.000339883
0.000315416
0.000299724
0.00028718
0.000277011
0.000268537
0.000261237
0.00025498
0.000249824
0.000245788
0.000242852
0.000240871
0.000239439
0.000238053
0.000237757
0.000237744
0.000236831
0.000234759
0.000232103
0.000229481
0.000227105
0.000225137
0.000223646
0.000222413
0.000221094
0.000219581
0.000217812
0.00021547
0.00021213
0.000207501
0.00020162
0.000194729
0.000187086
0.000178925
0.000170443
0.000161918
0.000153593
0.000145894
0.000138816
0.000132454
0.000129548
0.000132421
0.000141506
0.000152517
0.000156437
0.000158105
0.000167329
0.000206352
0.000255619
0.000284137
0.000297168
0.000313977
0.000487882
0.000702592
0.00100941
0.00302854
0.00126171
0.000325235
0.000256013
0.000230335
0.000221705
0.000214584
0.000207949
0.000201811
0.0001962
0.000191494
0.000187434
0.000183965
0.000181155
0.000178875
0.000177241
0.000176332
0.00017612
0.000176644
0.000178173
0.000180761
0.000183203
0.000184289
0.00018383
0.000182606
0.000181177
0.000180093
0.000179934
0.000180711
0.000181979
0.00018334
0.000185053
0.000187346
0.000189651
0.000190647
0.000189499
0.000186392
0.000180878
0.000173713
0.00016586
0.000157869
0.000149945
0.000142479
0.000135087
0.000127992
0.000125347
0.000127325
0.000132584
0.000134772
0.000115163
9.35992e-05
9.09189e-05
0.000129275
0.000238349
0.000270374
0.000284205
0.000295161
0.000330427
0.000716921
0.00101364
0.00303078
0.00131334
0.000194061
0.000181073
0.000175256
0.000173348
0.0001714
0.00016913
0.000166849
0.000164652
0.000162877
0.000161507
0.000160468
0.00015972
0.000158982
0.000158325
0.000157908
0.00015781
0.000157832
0.000157773
0.000159138
0.000161155
0.00016262
0.000162368
0.000161149
0.000159377
0.000157424
0.000155823
0.000154754
0.000154043
0.00015331
0.000152652
0.000152315
0.000152327
0.00015227
0.00015101
0.000152608
0.000157496
0.000159521
0.000157185
0.000153345
0.000148279
0.000143602
0.000138601
0.000135176
0.000133997
0.00013197
0.000123719
9.18861e-05
5.62923e-05
4.359e-05
4.71239e-05
8.61563e-05
0.000224584
0.000257211
0.000274108
0.000286754
0.000302674
0.000711513
0.00101335
0.00303303
0.00112217
0.00016796
0.000158932
0.000154951
0.000156009
0.000156948
0.000157074
0.00015654
0.000155447
0.000154106
0.000152704
0.000151116
0.000149613
0.000148067
0.000146566
0.000145413
0.000145204
0.000144871
0.000144714
0.000145298
0.000146101
0.000146749
0.000146197
0.00014467
0.00014262
0.000140233
0.000137999
0.00013624
0.000134954
0.000133778
0.000132751
0.000132096
0.000131911
0.000132124
0.000132583
0.00013336
0.000134407
0.000135694
0.000137144
0.000138652
0.000139391
0.000140843
0.000143142
0.00014562
0.000147594
0.000146179
9.76669e-05
4.68249e-05
3.2238e-05
3.21627e-05
3.85675e-05
9.03894e-05
0.000243209
0.000269032
0.000285826
0.000298845
0.000310406
0.000690418
0.00101298
0.00303653
0.000690314
0.000151164
0.000146797
0.000149491
0.000148107
0.000146796
0.000145069
0.000142473
0.000140046
0.000138229
0.000136701
0.000134797
0.000133204
0.000132153
0.000131221
0.000130827
0.000131365
0.00013199
0.000132131
0.000132503
0.000133145
0.000133638
0.000133662
0.000132952
0.000131686
0.000130198
0.000128872
0.000127884
0.000127565
0.000127971
0.000128861
0.000130042
0.000131312
0.00013239
0.000132958
0.000133038
0.000133278
0.000133604
0.000134281
0.000135587
0.000137427
0.000139794
0.000143947
0.00015066
0.000160732
0.000161546
9.68214e-05
3.36247e-05
2.89439e-05
3.13056e-05
4.04603e-05
0.000139265
0.000274479
0.000299629
0.000316942
0.000329036
0.000338115
0.000652972
0.00101267
0.00304037
0.000568892
0.000145482
0.000135612
0.000132235
0.000130403
0.000129428
0.0001287
0.000127892
0.000126891
0.000125673
0.00012522
0.00012526
0.000125079
0.000124745
0.000124644
0.000124591
0.00012505
0.000126281
0.000127175
0.000128072
0.000129029
0.000130183
0.000131401
0.000131686
0.000130091
0.000127045
0.00012291
0.00011789
0.000112833
0.000109163
0.000107189
0.000106679
0.000107081
0.000107612
0.00010795
0.000108252
0.000109169
0.000111328
0.000115239
0.000122693
0.000133428
0.000138938
0.000141067
0.000144875
0.000162129
0.000181541
0.000100514
3.38813e-05
3.3308e-05
3.67651e-05
5.1285e-05
0.000207206
0.000326304
0.000349247
0.000362703
0.00037131
0.000377219
0.00060734
0.00101228
0.00304195
0.000596757
0.00015668
0.000139949
0.000134023
0.000134293
0.000135405
0.000136173
0.000136693
0.000137534
0.000139531
0.000141537
0.000142798
0.000143401
0.000143648
0.000143849
0.000144221
0.000144771
0.000145155
0.000145188
0.00014502
0.000144788
0.000144659
0.000144622
0.000144426
0.000143995
0.000142828
0.000140757
0.000138485
0.000136749
0.000134976
0.0001331
0.000131252
0.000129201
0.000126034
0.000120908
0.000114777
0.000111446
0.00011191
0.000115159
0.000122426
0.000132771
0.000140698
0.00014689
0.000157416
0.000185197
0.000199699
9.35818e-05
3.7407e-05
3.8943e-05
4.37574e-05
7.22788e-05
0.000283744
0.000353941
0.000372965
0.000382433
0.000387974
0.000391606
0.000619954
0.00101254
0.00304117
0.000619797
0.000148292
8.96473e-05
0.000106193
0.000127944
0.000129282
0.000121059
0.000117653
0.000127037
0.000132854
0.000133549
0.000133768
0.000134113
0.000134595
0.000134815
0.000136362
0.000139431
0.000140772
0.000133891
0.00013412
0.000135309
0.000144451
0.000145648
0.000139686
0.000139005
0.000140812
0.000142092
0.00014192
0.000140901
0.000139593
0.000138147
0.000136443
0.000133975
0.000129661
0.000122071
0.000114173
0.000112888
0.000115277
0.000122752
0.000132518
0.000140002
0.000149914
0.000164116
0.000182123
0.000199605
0.000202424
6.63891e-05
3.78142e-05
3.99985e-05
4.65631e-05
0.000110545
0.000320578
0.000362729
0.000380075
0.000387409
0.000391394
0.000393985
0.000628674
0.00101305
0.00304219
0.000620803
0.000187874
0.000128283
0.000114525
0.000102444
7.65173e-05
6.15094e-05
6.536e-05
9.61727e-05
0.000127867
0.000133001
0.000134676
0.000134729
0.000134644
0.000135188
0.00013663
0.000139029
0.00014033
0.000138764
0.000133782
0.000134528
0.00014174
0.000148004
0.000147905
0.000141372
0.000139237
0.000143903
0.000145855
0.000146717
0.000147419
0.000148157
0.000148997
0.000149517
0.0001495
0.00014877
0.00014654
0.000141986
0.000136647
0.000134855
0.000137506
0.000144922
0.000157761
0.000169622
0.000180934
0.000194107
0.000201039
7.92412e-05
3.74037e-05
3.89292e-05
4.4259e-05
8.36294e-05
0.000296004
0.000350008
0.000369735
0.000378584
0.000383532
0.000386762
0.000620966
0.00101323
0.00304264
0.000608379
0.000161611
0.000145777
0.000130387
0.000116901
9.6032e-05
8.8576e-05
0.000103813
0.00013411
0.000142712
0.000144609
0.000145666
0.000146838
0.000147843
0.000148764
0.000149572
0.000150238
0.000150516
0.000150454
0.000150368
0.000150074
0.000149837
0.00015052
0.000151917
0.000153289
0.00015429
0.000154755
0.000154317
0.000153435
0.000153308
0.000153588
0.000154559
0.000154758
0.000154118
0.000152984
0.000150623
0.0001461
0.000139281
0.000136163
0.000137831
0.000143895
0.000153895
0.000160859
0.000168227
0.000179712
0.000191008
0.000117548
3.67763e-05
3.61691e-05
3.96046e-05
5.38397e-05
0.000196474
0.000320251
0.000343406
0.000356517
0.00036488
0.000370628
0.000595826
0.00101315
0.00304255
0.000547786
0.00017256
0.000161355
0.000145308
0.000144177
0.000141595
0.000141564
0.000143667
0.000147058
0.000149413
0.000150937
0.00015158
0.000151842
0.000151814
0.000151588
0.000151554
0.000151195
0.000150471
0.000149288
0.000147987
0.000147509
0.000146315
0.000146688
0.000147635
0.000147976
0.000142338
0.000141154
0.000141266
0.000141113
0.000140307
0.000138965
0.000136889
0.000133088
0.000127513
0.000125369
0.000127563
0.000131872
0.000135891
0.000139866
0.000145357
0.000152367
0.000158583
0.00016622
0.00018093
0.000200138
0.000205284
0.000147789
4.10118e-05
3.50919e-05
3.66469e-05
4.31246e-05
0.000118721
0.000280878
0.000303414
0.00031882
0.000330381
0.000339257
0.000577964
0.00101197
0.00303974
0.000521038
0.000191244
0.000182
0.000173323
0.000167468
0.000160991
0.000157169
0.000156669
0.000155915
0.000153565
0.000150309
0.000147299
0.000144972
0.000143034
0.000141195
0.00014053
0.000140986
0.00014213
0.000143674
0.00014539
0.000146664
0.000147667
0.00014717
0.000146136
0.000141589
0.000135732
0.000135269
0.000137467
0.000137126
0.000129258
0.000118325
0.000125471
0.000135904
0.000137298
0.000136262
0.000137242
0.000143101
0.000149564
0.00015479
0.000159283
0.000163818
0.000170271
0.000181351
0.000191671
0.000191542
0.000189801
0.000143289
4.6094e-05
3.34739e-05
3.42904e-05
3.94862e-05
9.50066e-05
0.000245715
0.000266881
0.00028183
0.000293538
0.000303152
0.000644952
0.00101237
0.0030367
0.00066347
0.000187636
0.00017842
0.000170343
0.000163784
0.000158529
0.00015447
0.000152367
0.000150992
0.000149231
0.000146503
0.000143494
0.000140965
0.000138845
0.000137711
0.000137384
0.0001377
0.000138418
0.000139391
0.000140786
0.000142705
0.000144629
0.000145394
0.000144449
0.000142256
0.000140215
0.000139382
0.000138519
0.000137138
0.000133864
0.000132775
0.000135701
0.000141238
0.00014437
0.000145043
0.000145264
0.000149704
0.000159452
0.000168351
0.000172829
0.000174232
0.000173718
0.000173232
0.000171903
0.000171461
0.000157765
9.3317e-05
4.36938e-05
3.52829e-05
3.62691e-05
4.22787e-05
9.33523e-05
0.000235639
0.000258491
0.000274003
0.000286809
0.000297825
0.00065828
0.00101189
0.00303565
0.000876514