/*--------------------------------*- C++ -*----------------------------------*\
| =========                 |                                                 |
| \\      /  F ield         | OpenFOAM: The Open Source CFD Toolbox           |
|  \\    /   O peration     | Version:  2.1.1                                 |
|   \\  /    A nd           | Web:      www.OpenFOAM.org                      |
|    \\/     M anipulation  |                                                 |
\*---------------------------------------------------------------------------*/
FoamFile
{
    version     2.0;
    format      ascii;
    class       volVectorField;
    location    "0.00115";
    object      U;
}
// * * * * * * * * * * * * * * * * * * * * * * * * * * * * * * * * * * * * * //

dimensions      [0 1 -1 0 0 0 0];

internalField   nonuniform List<vector> 
36520
(
(-0.53769 -0.527413 -0.65303)
(-0.620703 0.446005 0.0867569)
(-2.17284 0.781842 0.278969)
(-3.24621 1.19447 0.274413)
(-4.40623 1.09319 0.235244)
(-5.10261 0.671429 0.10726)
(-5.25705 0.138297 -0.0244395)
(-4.9231 -0.190296 -0.108303)
(-4.43727 -0.267798 -0.115872)
(-4.10469 -0.116055 -0.073476)
(-3.97239 0.0706838 -0.0264048)
(-4.04459 0.244526 0.00690635)
(-4.19048 0.336463 0.0207231)
(-4.36737 0.384607 0.0240886)
(-4.51241 0.38036 0.0157839)
(-4.61695 0.366698 0.00766476)
(-4.67095 0.350493 -0.00101465)
(-4.70099 0.354591 -0.00358979)
(-4.70707 0.380737 -0.00214748)
(-4.73029 0.429657 0.00381398)
(-4.7687 0.494666 0.0126418)
(-4.85472 0.570537 0.0251084)
(-4.98541 0.643648 0.0391708)
(-5.17069 0.705883 0.0521784)
(-5.39366 0.748194 0.062657)
(-5.6507 0.76242 0.0714031)
(-5.91886 0.745095 0.0768885)
(-6.18278 0.698296 0.0766155)
(-6.41941 0.63355 0.0716764)
(-6.62102 0.564643 0.0618619)
(-6.77691 0.504862 0.0491409)
(-6.89251 0.463524 0.0351951)
(-6.97017 0.449035 0.0226705)
(-7.02267 0.467991 0.0136039)
(-7.06214 0.520529 0.0100677)
(-7.11431 0.606517 0.0148542)
(-7.20148 0.712534 0.0296848)
(-7.35385 0.834389 0.05593)
(-7.6149 0.955742 0.0955923)
(-8.02341 1.0528 0.153268)
(-8.61753 1.0922 0.228459)
(-9.41848 1.03805 0.321468)
(-10.3798 0.853276 0.421692)
(-11.4548 0.55699 0.521698)
(-12.7388 0.169374 0.635584)
(-14.3069 -0.404822 0.73979)
(-15.8355 -1.32839 0.700814)
(-16.7281 -2.59902 0.417246)
(-16.415 -4.16012 0.032121)
(-14.7588 -5.74034 -0.40133)
(-11.1601 -6.87924 -0.808098)
(-7.4704 -6.87703 -0.858243)
(-4.16509 -6.00691 -0.625411)
(-2.3642 -4.9286 -0.417614)
(-0.925306 -3.91614 -0.262532)
(-0.571873 -3.08827 -0.160447)
(0.0457641 -2.44031 -0.0977484)
(-0.163832 -2.00343 -0.059102)
(0.217577 -1.71026 -0.0400284)
(-0.167563 -1.56023 -0.0292003)
(-2.13626 -0.45134 -0.395373)
(-2.93788 0.774235 0.330593)
(-4.12836 1.01295 0.636821)
(-5.20834 1.40638 0.668403)
(-6.35904 1.20543 0.598451)
(-7.05036 0.695648 0.241583)
(-7.16005 0.0448403 -0.103392)
(-6.74939 -0.307615 -0.344091)
(-6.23714 -0.391911 -0.349444)
(-5.88984 -0.202889 -0.230154)
(-5.77662 -0.000663895 -0.0875242)
(-5.86102 0.183409 0.000484472)
(-6.01966 0.264779 0.0498023)
(-6.19803 0.304119 0.0566612)
(-6.34608 0.283751 0.0386505)
(-6.4424 0.260133 0.0160374)
(-6.48961 0.236352 -0.00981619)
(-6.51328 0.231283 -0.0247792)
(-6.50882 0.256998 -0.0282828)
(-6.53108 0.297188 -0.0165443)
(-6.55781 0.358009 0.00617346)
(-6.63789 0.422566 0.0407732)
(-6.75187 0.48744 0.0804521)
(-6.92383 0.537817 0.118055)
(-7.12527 0.570165 0.150521)
(-7.3635 0.574343 0.176748)
(-7.60725 0.549898 0.194654)
(-7.84703 0.496473 0.197038)
(-8.05291 0.427208 0.18532)
(-8.22307 0.354745 0.163389)
(-8.34339 0.289703 0.135527)
(-8.42069 0.244429 0.106264)
(-8.45912 0.225054 0.0835678)
(-8.47681 0.234149 0.0682387)
(-8.4808 0.274349 0.0762606)
(-8.50025 0.346752 0.115056)
(-8.55288 0.438012 0.189003)
(-8.66721 0.546309 0.299339)
(-8.88122 0.655606 0.454267)
(-9.22815 0.740462 0.654669)
(-9.73597 0.771793 0.891475)
(-10.431 0.714833 1.1454)
(-11.2709 0.541749 1.40853)
(-12.2008 0.273371 1.65237)
(-13.3043 -0.0655541 1.89486)
(-14.7047 -0.571194 2.108)
(-16.1304 -1.49337 1.87193)
(-17.0539 -2.97112 0.990336)
(-16.8556 -4.74301 -0.152008)
(-15.4299 -6.75978 -1.48931)
(-11.5393 -7.91725 -2.5354)
(-7.42261 -7.68603 -2.62822)
(-3.91879 -6.53237 -1.90736)
(-2.18692 -5.28707 -1.26871)
(-0.74789 -4.15272 -0.79889)
(-0.494975 -3.25433 -0.496185)
(0.143167 -2.55641 -0.30687)
(-0.155439 -2.0925 -0.197294)
(0.27661 -1.78073 -0.136712)
(-0.20184 -1.62152 -0.107155)
(-2.55923 -0.362252 0.121254)
(-3.58209 0.873176 0.619242)
(-4.65451 1.22343 0.994456)
(-5.75645 1.6514 1.08249)
(-6.97492 1.38799 0.990997)
(-7.68526 0.731729 0.436163)
(-7.75102 -0.110006 -0.107876)
(-7.21661 -0.537655 -0.48846)
(-6.59979 -0.610901 -0.505885)
(-6.20517 -0.331228 -0.310013)
(-6.10435 -0.0611021 -0.0991709)
(-6.20982 0.162636 0.041388)
(-6.39129 0.262841 0.106876)
(-6.57835 0.298778 0.112692)
(-6.72863 0.272744 0.0732424)
(-6.81952 0.240582 0.0303235)
(-6.85389 0.212571 -0.0114762)
(-6.86648 0.204244 -0.0344527)
(-6.84027 0.23837 -0.0311834)
(-6.84743 0.287641 -0.00810686)
(-6.85203 0.359452 0.0309479)
(-6.91799 0.433081 0.0891246)
(-7.01449 0.508853 0.157071)
(-7.17488 0.567913 0.221971)
(-7.36174 0.608709 0.276502)
(-7.58869 0.618181 0.318769)
(-7.82115 0.596754 0.345922)
(-8.0518 0.54174 0.342635)
(-8.24756 0.468462 0.312515)
(-8.40844 0.392728 0.262942)
(-8.52265 0.324296 0.200292)
(-8.59564 0.273634 0.13368)
(-8.62897 0.250239 0.0736651)
(-8.63302 0.258185 0.0291339)
(-8.62258 0.301428 0.0194707)
(-8.62136 0.381428 0.063003)
(-8.64605 0.486721 0.159621)
(-8.723 0.616405 0.313147)
(-8.88665 0.753001 0.532431)
(-9.17265 0.881897 0.827145)
(-9.60291 0.97131 1.18193)
(-10.189 0.996615 1.58387)
(-10.8823 0.926626 2.00867)
(-11.5942 0.753748 2.39641)
(-12.3493 0.526846 2.77436)
(-13.3146 0.212162 3.11858)
(-14.2577 -0.620798 2.83163)
(-14.84 -2.20879 1.51763)
(-15.3014 -4.44641 -0.22034)
(-14.9623 -6.98752 -2.12805)
(-12.2668 -9.19206 -4.32586)
(-7.27647 -8.59591 -4.38979)
(-3.50979 -6.98626 -3.13219)
(-1.82946 -5.53999 -2.05415)
(-0.499868 -4.27804 -1.27422)
(-0.33116 -3.32291 -0.784156)
(0.239943 -2.59158 -0.477368)
(-0.0963025 -2.11249 -0.303741)
(0.307087 -1.79213 -0.203798)
(-0.193814 -1.62991 -0.159355)
(-2.73299 -0.316771 0.723503)
(-3.69505 0.955616 0.793439)
(-4.67125 1.51293 1.19295)
(-5.86307 2.0547 1.33962)
(-7.26312 1.76819 1.26378)
(-8.08368 0.880078 0.57483)
(-8.10387 -0.256563 -0.104628)
(-7.40586 -0.836165 -0.612304)
(-6.63589 -0.868555 -0.613394)
(-6.17161 -0.471135 -0.356726)
(-6.08236 -0.0980594 -0.0788548)
(-6.21865 0.17232 0.110281)
(-6.43379 0.291174 0.197757)
(-6.64262 0.314864 0.202117)
(-6.79245 0.269423 0.148197)
(-6.87842 0.21771 0.093653)
(-6.88677 0.180137 0.0293982)
(-6.87682 0.178026 -0.0145892)
(-6.82356 0.231211 -0.0358673)
(-6.80879 0.296445 -0.0301883)
(-6.78941 0.38543 0.0048179)
(-6.83285 0.481011 0.0741619)
(-6.90917 0.577012 0.164435)
(-7.05375 0.653143 0.253788)
(-7.22428 0.707467 0.330042)
(-7.43134 0.728765 0.387499)
(-7.64404 0.717254 0.426408)
(-7.85579 0.66764 0.424195)
(-8.03105 0.59477 0.382048)
(-8.16569 0.513192 0.309444)
(-8.25385 0.437965 0.222935)
(-8.29918 0.385655 0.129858)
(-8.30753 0.367684 0.0472002)
(-8.28428 0.386524 -0.0273852)
(-8.24724 0.445312 -0.0580289)
(-8.22186 0.54459 -0.0272245)
(-8.21499 0.671891 0.0746158)
(-8.24147 0.836204 0.24187)
(-8.32355 1.02691 0.493119)
(-8.49193 1.23004 0.844968)
(-8.74955 1.40512 1.27078)
(-9.09114 1.52033 1.75599)
(-9.45408 1.55337 2.23873)
(-9.6649 1.47387 2.63234)
(-9.61276 1.34557 2.92)
(-9.46076 1.19512 3.18053)
(-8.79358 0.401654 2.84575)
(-8.15829 -1.19809 1.47127)
(-9.10973 -3.42157 -0.298055)
(-11.1297 -6.80182 -2.487)
(-11.949 -9.67442 -4.97034)
(-7.06598 -10.2349 -6.29142)
(-2.8622 -7.70401 -4.36794)
(-1.27929 -5.91635 -2.78235)
(-0.131439 -4.46305 -1.70994)
(-0.0913613 -3.4202 -1.05247)
(0.38055 -2.63723 -0.640931)
(-0.00872846 -2.13474 -0.40884)
(0.348723 -1.80183 -0.276146)
(-0.17902 -1.63532 -0.217725)
(-2.69204 0.0192251 1.44424)
(-3.74889 1.09351 0.978324)
(-4.58589 1.80988 1.41753)
(-5.92423 2.57913 1.57768)
(-7.50451 2.29584 1.51079)
(-8.49214 1.08093 0.750376)
(-8.43397 -0.451977 0.012729)
(-7.52285 -1.24892 -0.574273)
(-6.53679 -1.22135 -0.584194)
(-5.98239 -0.638268 -0.304085)
(-5.90793 -0.121042 -0.0142072)
(-6.07951 0.236983 0.174168)
(-6.32525 0.39335 0.247136)
(-6.55499 0.407811 0.226568)
(-6.68819 0.35205 0.140492)
(-6.76559 0.271536 0.0514842)
(-6.73785 0.221785 -0.0395375)
(-6.69427 0.21064 -0.0983737)
(-6.59648 0.26234 -0.125538)
(-6.52726 0.339255 -0.119642)
(-6.44454 0.458666 -0.0751134)
(-6.41994 0.584927 0.0248484)
(-6.42947 0.708666 0.16073)
(-6.5054 0.812286 0.297834)
(-6.59712 0.889931 0.403779)
(-6.70683 0.930351 0.475571)
(-6.81263 0.933604 0.525269)
(-6.90136 0.885799 0.521724)
(-6.95007 0.799093 0.451463)
(-6.95954 0.694301 0.333132)
(-6.93514 0.59415 0.183807)
(-6.8871 0.520151 0.0216793)
(-6.83594 0.485819 -0.143095)
(-6.80248 0.500947 -0.280772)
(-6.80765 0.56836 -0.354421)
(-6.84461 0.708339 -0.330636)
(-6.87595 0.914301 -0.205884)
(-6.87984 1.19587 -0.00570815)
(-6.87577 1.53534 0.26161)
(-6.87075 1.8948 0.629246)
(-6.84012 2.21884 1.07456)
(-6.76832 2.48538 1.55309)
(-6.51071 2.6703 2.0708)
(-5.82918 2.70055 2.44594)
(-4.58535 2.64589 2.69771)
(-3.3198 2.58149 2.99364)
(-1.33387 1.68808 2.80357)
(0.564829 0.0919241 1.68931)
(-0.169084 -1.57616 0.442999)
(-3.09039 -4.93321 -1.55324)
(-7.12179 -9.54889 -5.41094)
(-6.71289 -11.7203 -7.73789)
(-1.96949 -8.71227 -5.70562)
(-0.514426 -6.382 -3.37892)
(0.349046 -4.70344 -2.05531)
(0.217185 -3.54128 -1.25236)
(0.563222 -2.6955 -0.755561)
(0.102126 -2.16395 -0.480327)
(0.402203 -1.81597 -0.323109)
(-0.160273 -1.64412 -0.254848)
(-3.16169 0.403844 1.76519)
(-3.93361 1.16527 0.948248)
(-4.41708 2.22018 1.48802)
(-5.89195 3.33707 1.61692)
(-7.7203 3.14979 1.62684)
(-8.85343 1.55419 0.846414)
(-8.69265 -0.545072 0.101541)
(-7.54873 -1.63336 -0.442101)
(-6.31599 -1.50408 -0.459404)
(-5.65244 -0.699384 -0.176587)
(-5.58356 -0.0293525 0.0971627)
(-5.77757 0.343269 0.309752)
(-6.04174 0.500478 0.404112)
(-6.27126 0.467475 0.372648)
(-6.36757 0.35949 0.266866)
(-6.38478 0.227605 0.172181)
(-6.27261 0.15235 0.0715626)
(-6.10296 0.144689 -0.00996304)
(-5.88526 0.235293 -0.0857594)
(-5.67743 0.384237 -0.132634)
(-5.43795 0.559492 -0.139287)
(-5.22707 0.708369 -0.0658149)
(-5.02852 0.853143 0.0658413)
(-4.87375 0.973785 0.186498)
(-4.68245 1.0583 0.255314)
(-4.44045 1.09616 0.294172)
(-4.16239 1.09003 0.338916)
(-3.81088 1.00303 0.323934)
(-3.44229 0.852365 0.240582)
(-3.06566 0.681152 0.107809)
(-2.72145 0.504037 -0.0421752)
(-2.41091 0.33903 -0.199741)
(-2.24082 0.221781 -0.351144)
(-2.21977 0.179933 -0.495902)
(-2.36755 0.236242 -0.610969)
(-2.62042 0.41089 -0.692275)
(-2.8548 0.690017 -0.698625)
(-2.96725 1.02772 -0.614908)
(-2.9219 1.42084 -0.4603)
(-2.77868 1.85084 -0.205034)
(-2.4011 2.21825 0.143952)
(-1.78983 2.49508 0.624055)
(-0.938254 2.64712 1.23904)
(0.492327 2.54247 1.74539)
(2.43346 2.17373 1.97316)
(4.21104 1.70803 2.26119)
(6.74772 0.757813 2.1205)
(8.96491 -0.299866 1.17772)
(9.29923 -1.46199 0.0471971)
(8.35892 -3.50692 -1.42513)
(5.13019 -6.71641 -4.40014)
(-3.31462 -11.5299 -8.23204)
(-0.79559 -9.95578 -7.04261)
(0.527993 -6.92984 -3.85157)
(0.935653 -4.97002 -2.28691)
(0.588456 -3.67382 -1.37679)
(0.78032 -2.75883 -0.82826)
(0.230987 -2.19446 -0.526651)
(0.465228 -1.83011 -0.355456)
(-0.138431 -1.65231 -0.280961)
(-3.23712 2.27654 2.63116)
(-3.98085 1.19801 1.29197)
(-4.30372 2.6068 1.65675)
(-5.78225 4.14371 1.64253)
(-7.55242 4.12552 1.53441)
(-8.68733 1.99188 0.85821)
(-8.26741 -0.857809 0.475881)
(-7.05884 -2.31739 -0.0864254)
(-5.67368 -1.99926 -0.285051)
(-4.90972 -0.875973 -0.110757)
(-4.7904 -0.00917428 0.208359)
(-4.92176 0.500343 0.390613)
(-5.0836 0.720172 0.448157)
(-5.18052 0.713743 0.367985)
(-5.12032 0.579242 0.218375)
(-4.96628 0.447851 0.0758193)
(-4.68258 0.328497 -0.117438)
(-4.34742 0.305071 -0.267873)
(-3.95013 0.393356 -0.387341)
(-3.5345 0.537019 -0.505974)
(-3.04328 0.710649 -0.596929)
(-2.58313 0.913703 -0.541955)
(-2.10633 1.1061 -0.364754)
(-1.59129 1.22191 -0.159069)
(-0.980691 1.27092 0.00322408)
(-0.365064 1.29331 0.0790786)
(0.198127 1.32304 0.110141)
(0.885587 1.27539 0.108647)
(1.65375 1.1239 0.0426744)
(2.43367 0.919058 -0.106285)
(3.11551 0.696952 -0.260097)
(3.70324 0.489468 -0.3897)
(4.09104 0.304689 -0.485143)
(4.19079 0.17528 -0.551478)
(4.10019 0.123184 -0.590023)
(3.90052 0.140227 -0.631796)
(3.72051 0.273999 -0.675267)
(3.68788 0.514859 -0.718534)
(3.89826 0.858629 -0.747236)
(4.1988 1.26655 -0.67036)
(4.77254 1.63908 -0.448699)
(5.45441 1.94316 -0.111874)
(6.02053 2.20688 0.464708)
(7.26925 2.07218 0.751846)
(8.79186 1.86315 0.726745)
(10.2621 1.75425 1.06957)
(13.3684 1.00939 1.13961)
(16.2377 -0.0319381 0.244694)
(17.3853 -0.897506 -0.865385)
(17.1399 -1.9434 -1.7359)
(15.5391 -3.34993 -2.81624)
(8.07051 -7.32545 -5.5906)
(1.09846 -10.9606 -7.37736)
(1.85755 -7.54294 -4.11557)
(1.63602 -5.23312 -2.35516)
(1.0104 -3.8033 -1.4062)
(1.027 -2.82034 -0.843709)
(0.376198 -2.22227 -0.535253)
(0.537192 -1.84214 -0.36091)
(-0.112996 -1.6579 -0.285408)
(-4.07315 1.46659 1.26944)
(-4.26803 1.13598 0.635527)
(-3.12799 3.63248 1.26739)
(-3.76269 5.77472 1.15004)
(-4.65255 6.02556 1.27851)
(-4.8884 3.1353 0.763507)
(-4.10916 -0.745296 0.358845)
(-3.58747 -2.89927 0.453545)
(-2.6119 -2.40918 0.579538)
(-1.74374 -0.823986 0.49929)
(-1.43562 0.282574 0.526361)
(-1.24812 0.798279 0.536877)
(-1.06243 0.891427 0.518113)
(-0.679423 0.624981 0.382101)
(-0.269959 0.198754 0.146567)
(0.0684573 -0.204109 -0.0199391)
(0.43279 -0.47468 -0.112266)
(0.826726 -0.512678 -0.155905)
(1.28728 -0.312768 -0.289183)
(1.74831 0.0518862 -0.541951)
(2.29923 0.47913 -0.753029)
(2.80459 0.873565 -0.785583)
(3.27379 1.18977 -0.661118)
(3.74964 1.42669 -0.485576)
(4.39389 1.57536 -0.32431)
(5.19116 1.62344 -0.197586)
(6.04291 1.59117 -0.122546)
(6.96215 1.4681 -0.118384)
(7.97101 1.23881 -0.191804)
(8.95564 0.95265 -0.322975)
(9.68345 0.710088 -0.437219)
(10.2093 0.518885 -0.511071)
(10.542 0.36973 -0.554409)
(10.6542 0.247483 -0.6001)
(10.5853 0.15762 -0.65139)
(10.386 0.082929 -0.758245)
(10.2104 0.101239 -0.895552)
(10.1142 0.242463 -1.08931)
(10.2543 0.533997 -1.3103)
(10.4301 1.03351 -1.42829)
(10.8458 1.51918 -1.38032)
(11.4201 2.04499 -0.960532)
(12.1646 2.36539 -0.229742)
(13.4261 1.98915 0.366967)
(14.3419 1.36081 0.376137)
(15.1021 1.12858 0.0958585)
(18.0873 0.742324 -0.120984)
(20.4757 -0.369161 -0.634622)
(20.686 -0.927439 -0.947525)
(20.1832 -1.52824 -1.33843)
(18.9021 -2.47331 -1.95816)
(13.8709 -5.52689 -3.77878)
(3.8368 -11.113 -6.18551)
(3.25668 -8.11057 -4.00315)
(2.39975 -5.45645 -2.28858)
(1.47556 -3.89801 -1.36104)
(1.30441 -2.85553 -0.817019)
(0.54001 -2.22727 -0.517376)
(0.619354 -1.83429 -0.349286)
(-0.0866689 -1.64675 -0.277545)
(-3.14092 21.128 4.21764)
(-3.86988 5.04276 0.461476)
(-1.79321 2.78193 1.0999)
(-0.779512 3.03469 0.870881)
(2.70003 1.04841 1.20597)
(6.43111 -0.636338 0.972031)
(6.86175 -1.38508 0.592531)
(5.97926 -1.45739 0.51203)
(5.67949 -1.39498 0.61912)
(6.52456 -1.01454 0.522951)
(7.60224 -0.561231 0.397109)
(8.97137 -0.306002 0.372354)
(10.0796 -0.216648 0.383269)
(11.362 -0.202221 0.320175)
(12.145 -0.185258 0.257024)
(12.2676 -0.15436 0.190194)
(11.9616 -0.129279 0.132518)
(11.342 -0.0412773 0.00159877)
(10.8792 0.121016 -0.301702)
(10.4687 0.322567 -0.74111)
(10.2935 0.463104 -1.0648)
(10.5117 0.502451 -1.13747)
(11.1438 0.486197 -0.967872)
(11.8507 0.46681 -0.7107)
(12.7445 0.446358 -0.557969)
(13.8619 0.385225 -0.482751)
(15.0356 0.304941 -0.388765)
(16.1751 0.231983 -0.310447)
(17.2207 0.187784 -0.315031)
(18.0855 0.189047 -0.342742)
(18.6291 0.202076 -0.348367)
(18.9262 0.187325 -0.322941)
(19.1446 0.134448 -0.271836)
(19.2578 0.103913 -0.21195)
(19.2571 0.0822593 -0.165807)
(19.158 0.0630003 -0.124617)
(18.9343 0.100633 -0.154028)
(18.7301 0.18688 -0.29009)
(18.6713 0.265781 -0.493272)
(18.7548 0.354351 -0.724651)
(19.0221 0.444322 -0.876132)
(19.2933 0.518592 -0.754348)
(19.7239 0.513888 -0.106484)
(20.9519 0.60627 0.525014)
(23.0633 0.511086 0.499633)
(24.4276 0.0953921 -0.243244)
(24.3619 0.0159976 -0.714024)
(23.7822 -0.171636 -0.360461)
(22.4615 -0.827978 -0.569467)
(21.4218 -1.33966 -0.895661)
(20.0874 -2.11995 -1.3399)
(16.0273 -5.15698 -2.6696)
(6.33734 -11.3617 -4.58858)
(4.72075 -8.77555 -3.32109)
(3.16615 -5.82361 -1.9053)
(1.89946 -4.11065 -1.1258)
(1.53513 -2.98467 -0.670631)
(0.665726 -2.305 -0.418673)
(0.680451 -1.88633 -0.278395)
(-0.0674073 -1.68693 -0.219086)
(-1.81137 21.1132 7.85016)
(-3.50802 3.81619 1.95727)
(-1.60548 2.7514 1.73481)
(-0.58119 2.90018 1.10445)
(1.07843 1.50462 1.33519)
(3.58848 0.47356 1.3901)
(7.42142 -0.0428228 0.67504)
(9.69716 -0.464027 -0.17663)
(11.1346 -0.441758 -0.614923)
(13.1387 -0.303393 -0.57291)
(14.836 -0.2502 -0.298001)
(16.1196 -0.20186 -0.0598645)
(17.0917 -0.156037 0.106134)
(17.9711 -0.127601 0.163152)
(18.5294 -0.105245 0.25612)
(18.715 -0.119513 0.382662)
(18.6819 -0.159406 0.518537)
(18.6092 -0.16806 0.541331)
(18.4009 -0.15245 0.387726)
(17.6371 -0.062711 0.0327167)
(16.2181 0.156199 -0.546396)
(14.7091 0.357299 -1.0386)
(13.9584 0.450666 -1.08429)
(14.0453 0.389827 -0.853585)
(14.7736 0.271719 -0.651038)
(15.8807 0.150982 -0.55001)
(17.1042 0.0560044 -0.431883)
(18.3417 0.0148689 -0.286875)
(19.3469 0.0106668 -0.22613)
(20.0174 0.0361858 -0.232319)
(20.384 0.0577454 -0.255225)
(20.6159 0.0719088 -0.279202)
(20.7944 0.0740944 -0.290151)
(20.9391 0.0717555 -0.293734)
(21.0268 0.0608464 -0.253688)
(21.0385 0.0560903 -0.203677)
(21.0118 0.064747 -0.203386)
(20.8986 0.0867761 -0.286635)
(20.6048 0.148311 -0.556326)
(20.4749 0.224715 -0.728403)
(20.5695 0.260784 -0.713077)
(21.0349 0.233484 -0.363277)
(22.5494 0.0329796 0.483556)
(25.3665 -0.122777 0.854655)
(27.7057 -0.0730214 0.603256)
(27.9849 0.0468702 0.501328)
(27.1066 0.520025 0.0775355)
(24.0967 -0.220603 -0.0673219)
(22.651 -0.805964 -0.24835)
(21.5112 -1.32612 -0.528483)
(20.0658 -2.18171 -1.01259)
(15.6621 -5.60785 -2.49856)
(6.45531 -11.5805 -3.56371)
(4.90396 -8.99239 -2.41766)
(3.3203 -6.01122 -1.36449)
(1.99144 -4.24033 -0.816572)
(1.58549 -3.07444 -0.492646)
(0.689286 -2.36867 -0.310361)
(0.691371 -1.93569 -0.208794)
(-0.0646114 -1.72956 -0.1649)
(-1.36083 12.6217 5.62291)
(-2.54527 2.18814 2.92634)
(1.92071 1.56085 2.19814)
(3.55715 2.64386 2.37387)
(6.72284 2.16542 2.27563)
(11.1743 0.724299 0.739825)
(13.7441 0.0704885 -0.504947)
(13.8798 -0.372337 -1.09858)
(13.5499 -0.519273 -1.61985)
(14.1225 -0.821383 -1.90266)
(15.6334 -0.695783 -1.36499)
(17.1132 -0.360979 -0.573001)
(18.4946 -0.137632 0.00339343)
(19.5931 -0.0814431 0.237531)
(20.3223 -0.0615968 0.337654)
(20.5569 -0.0799616 0.397188)
(20.5549 -0.10552 0.403649)
(20.4845 -0.135537 0.369211)
(20.296 -0.166075 0.28618)
(19.8477 -0.210934 0.196914)
(18.7511 -0.244005 0.0577804)
(16.3234 -0.169919 -0.152027)
(13.8773 0.0506075 -0.40855)
(13.0283 0.240178 -0.659527)
(13.2715 0.305325 -0.775115)
(14.3645 0.303717 -0.804549)
(15.9137 0.276266 -0.680701)
(17.6972 0.224197 -0.465146)
(19.4355 0.123624 -0.246542)
(20.7041 0.0594629 -0.0932528)
(21.3254 0.0371432 -0.0396367)
(21.5287 0.0236519 -0.0695702)
(21.5298 0.0263547 -0.100754)
(21.4576 0.0293544 -0.151717)
(21.4268 0.0229766 -0.184224)
(21.4562 0.0173249 -0.184457)
(21.4986 -0.00253529 -0.177636)
(21.4717 -0.0419576 -0.183784)
(21.2051 -0.106195 -0.202622)
(20.2697 0.00374036 -0.244149)
(19.5567 0.391978 -0.30772)
(19.6813 0.8104 -0.297313)
(21.1114 1.16261 -0.0100953)
(24.903 1.10688 0.511802)
(27.6404 0.42845 0.53275)
(27.8393 -0.118692 0.556495)
(26.8944 0.0398129 1.07889)
(24.1105 -0.305981 0.349867)
(22.7503 -0.849197 0.0383342)
(21.7377 -1.36402 -0.187588)
(20.4344 -2.21855 -0.626899)
(16.3647 -5.58514 -2.11253)
(7.45931 -11.3634 -2.6059)
(5.27359 -8.99592 -1.58689)
(3.50059 -6.15675 -0.847001)
(2.06643 -4.34534 -0.503534)
(1.62044 -3.14775 -0.306394)
(0.704241 -2.42032 -0.195366)
(0.697286 -1.97612 -0.13294)
(-0.063206 -1.764 -0.106902)
(-2.98075 3.34283 3.82346)
(-3.42807 0.237813 1.51903)
(0.678028 1.381 1.42247)
(1.03066 3.24929 2.14956)
(2.72862 3.75025 3.05032)
(6.21816 1.37056 2.14156)
(9.30948 -0.956793 0.0338065)
(9.92465 -2.06986 -1.73318)
(8.94703 -1.81775 -2.68909)
(8.20095 -1.15159 -2.95147)
(8.70498 -0.371645 -2.0472)
(9.65592 0.254761 -0.953742)
(11.1194 0.390525 -0.338863)
(12.6558 0.270296 -0.00884738)
(13.9018 0.118936 0.206992)
(14.7703 -0.0303801 0.40662)
(15.1362 -0.176971 0.552329)
(15.1596 -0.270102 0.585937)
(14.9538 -0.333032 0.583222)
(14.3606 -0.46442 0.6334)
(13.3579 -0.712398 0.729033)
(12.2355 -0.935764 0.502128)
(11.5431 -0.71884 -0.0479229)
(11.3328 -0.146115 -0.531976)
(11.5144 0.34924 -0.753311)
(12.0009 0.688281 -0.805272)
(12.8201 0.81739 -0.736486)
(13.7652 0.75342 -0.647)
(14.6832 0.628824 -0.509963)
(15.5009 0.466859 -0.323917)
(16.0788 0.301709 -0.175494)
(16.3999 0.206625 -0.114094)
(16.4999 0.124241 -0.139789)
(16.4999 0.0374354 -0.245378)
(16.4013 -0.0432497 -0.343079)
(16.3098 -0.0560898 -0.333716)
(16.1853 -0.0155852 -0.234185)
(15.9953 -0.0658735 -0.00652226)
(15.8311 -0.152161 0.330667)
(15.619 -0.0523325 0.488244)
(15.6296 0.226455 0.367889)
(16.0535 1.07709 0.320685)
(17.6337 2.32325 0.603817)
(21.4255 2.55038 0.993047)
(25.4323 1.25169 1.05763)
(26.1542 -0.78489 0.84498)
(25.4918 -1.29142 0.923426)
(24.0854 -0.525705 0.399835)
(22.5525 -1.07406 0.135446)
(21.7272 -1.54618 0.0434175)
(20.8351 -2.16065 -0.0697458)
(18.5838 -3.94896 -0.374554)
(9.18579 -10.1139 -0.49054)
(5.27029 -8.74208 -0.38598)
(3.38262 -6.10795 -0.225761)
(1.97367 -4.33516 -0.153213)
(1.56272 -3.15095 -0.103514)
(0.671272 -2.42866 -0.0714718)
(0.677888 -1.98649 -0.0516359)
(-0.0673875 -1.77508 -0.0436056)
(-2.97481 1.54847 -3.68097)
(-3.68042 0.401119 0.35591)
(0.341884 2.42756 1.99518)
(1.12886 4.73584 3.17628)
(4.38124 4.97075 4.84505)
(11.7945 0.853904 3.64814)
(17.3951 -1.82414 -0.177386)
(17.7566 -2.44359 -1.65167)
(15.3698 -2.32373 -2.90627)
(10.9148 -1.92589 -4.11116)
(9.86382 -0.876809 -2.49108)
(9.89261 0.131523 -0.607762)
(10.8438 0.445885 0.255709)
(12.1352 0.402762 0.673178)
(13.232 0.284163 0.79867)
(14.0617 0.130845 0.736278)
(14.4692 -0.032401 0.615872)
(14.5069 -0.172033 0.475727)
(14.3005 -0.295098 0.299172)
(13.8544 -0.478955 0.0130305)
(13.0891 -0.744717 -0.317027)
(11.9817 -0.937827 -0.441356)
(11.2122 -0.75155 -0.361297)
(10.945 -0.220826 -0.275742)
(11.0426 0.285263 -0.253798)
(11.3566 0.699074 -0.183499)
(11.8593 0.965957 -0.0483974)
(12.6918 0.925935 0.140765)
(13.7012 0.67574 0.258041)
(14.584 0.422749 0.311024)
(15.3181 0.234549 0.328431)
(15.804 0.131556 0.294728)
(15.9433 0.0999147 0.207378)
(15.8781 0.138028 0.134111)
(15.4966 0.182368 0.0507324)
(15.1229 0.134262 -0.0208768)
(14.8707 0.0387549 -0.0145767)
(14.7016 -0.012744 0.102627)
(14.6324 0.0196548 0.317516)
(14.5292 0.25871 0.75071)
(14.6491 0.682072 1.25731)
(15.3142 1.42109 1.73884)
(17.1554 2.18302 2.06154)
(21.0544 2.20131 2.363)
(24.7572 1.02394 1.91786)
(25.5087 -0.93838 1.00887)
(24.8927 -1.39049 0.949045)
(23.9853 -0.502107 0.658448)
(22.5542 -1.0521 0.194871)
(21.72 -1.55384 0.0505702)
(20.7897 -2.22088 0.0605234)
(18.5749 -3.99663 0.370036)
(8.99515 -10.0206 1.60457)
(5.18777 -8.67561 0.752285)
(3.35816 -6.08896 0.305319)
(1.96704 -4.32995 0.146675)
(1.56115 -3.14898 0.0738696)
(0.672002 -2.42778 0.0370817)
(0.678079 -1.98551 0.0189514)
(-0.0668173 -1.77455 0.0112023)
(-0.686517 13.8596 -3.55738)
(-1.0208 0.516609 -0.31662)
(2.12595 2.25723 2.49278)
(4.94481 5.39843 3.60491)
(12.9308 4.81333 3.32581)
(25.345 -0.974993 0.789752)
(27.4209 -2.59246 -0.223382)
(27.0659 -2.90603 -0.341288)
(25.7612 -2.31139 -0.820139)
(20.8805 -1.66534 -2.44516)
(15.0861 -0.827304 -2.69273)
(14.518 -0.0692007 -0.915928)
(14.9957 0.223294 -0.188956)
(16.5533 0.192531 0.191121)
(18.1138 0.0933373 0.352466)
(19.1375 0.0353877 0.356067)
(19.6825 -0.0192291 0.328816)
(19.8554 -0.0609033 0.259208)
(19.8279 -0.103288 0.166243)
(19.5314 -0.159753 0.128279)
(18.5714 -0.221819 0.227357)
(16.1972 -0.192311 0.295196)
(13.5864 -0.0198051 0.176879)
(12.5437 0.140845 -0.0189347)
(12.637 0.23438 -0.118845)
(13.3417 0.339897 -0.0488439)
(14.5394 0.377257 0.0946611)
(16.0717 0.287557 0.106444)
(17.7309 0.168267 0.0804243)
(19.1434 0.0860062 0.0844563)
(19.9098 0.0509615 0.0979395)
(20.1966 0.0321107 0.119506)
(20.3205 0.00595146 0.0844055)
(20.3347 -0.0208237 0.0369027)
(20.2989 -0.0334403 0.0572292)
(20.1961 -0.0449248 0.124069)
(19.9414 -0.0506082 0.236287)
(19.4359 -0.0660216 0.454744)
(18.5954 -0.0287434 0.808056)
(17.3766 0.213119 1.37047)
(16.4775 0.718039 1.97605)
(16.508 1.37632 2.39902)
(17.6523 1.90162 2.44524)
(20.3895 2.02472 2.36524)
(23.0672 0.982672 2.13466)
(23.7709 -0.77541 1.10771)
(23.6793 -0.960432 0.627114)
(23.2198 -0.564134 0.321326)
(22.5189 -0.864304 0.184388)
(21.5957 -1.37264 0.181498)
(20.0737 -2.4186 0.527885)
(14.1813 -6.97283 2.47906)
(6.60246 -11.288 3.63596)
(4.81547 -8.84565 1.86578)
(3.36268 -6.10342 0.894754)
(2.0208 -4.32962 0.485245)
(1.60201 -3.14062 0.27213)
(0.69995 -2.41681 0.159015)
(0.693136 -1.97318 0.0992193)
(-0.061642 -1.76204 0.0735739)
(-0.252491 29.7566 -9.57563)
(2.18943 -0.0915251 1.3728)
(8.18052 0.625989 4.51769)
(14.8619 1.9928 4.6389)
(25.2276 1.07186 0.10029)
(30.4952 -2.06846 -1.58842)
(32.2463 -3.93404 -0.769585)
(31.9124 -4.26636 -0.420348)
(29.8762 -3.26206 -0.364479)
(24.1066 -1.99816 0.104506)
(12.5598 -0.963621 0.967697)
(9.69963 -0.372427 0.416254)
(9.20232 0.0285286 0.12157)
(9.95299 0.1006 0.150187)
(11.3579 0.0839007 0.328933)
(12.4043 0.0814011 0.450711)
(12.8078 0.0757224 0.470692)
(12.7835 0.0655284 0.447102)
(12.2596 0.0409503 0.407779)
(11.2863 0.073628 0.506834)
(10.3995 0.197228 0.849181)
(9.684 0.308473 1.06469)
(9.43943 0.261104 0.858261)
(9.41595 0.179953 0.320116)
(9.5103 0.249589 0.0820422)
(9.79187 0.31247 0.0975548)
(10.6556 0.281455 0.198214)
(11.668 0.186706 0.212103)
(12.5695 0.119543 0.205212)
(13.4495 0.111042 0.285239)
(14.0224 0.150707 0.393341)
(14.2116 0.157922 0.453574)
(14.1312 0.159685 0.468856)
(13.72 0.1749 0.487389)
(13.3046 0.189397 0.549343)
(13.2024 0.203612 0.695995)
(13.2589 0.285592 0.982004)
(13.4654 0.437548 1.37668)
(13.6823 0.687629 1.85971)
(13.8643 1.05475 2.36503)
(14.3112 1.46597 2.72061)
(15.1536 1.97075 2.91516)
(16.7973 2.29665 2.88379)
(19.0233 2.45637 2.6694)
(21.8713 1.68435 1.96474)
(23.8142 -0.108023 0.722127)
(23.8618 -0.536431 0.315116)
(23.1652 -0.663489 0.353061)
(22.1162 -1.0884 0.441327)
(20.8651 -1.71495 0.647767)
(18.6096 -3.18993 1.2544)
(9.20796 -9.88065 3.62777)
(5.15865 -11.8527 4.01804)
(4.09968 -8.66975 2.39298)
(3.10022 -5.95924 1.33786)
(1.90674 -4.23707 0.775809)
(1.54652 -3.07939 0.451319)
(0.676757 -2.37672 0.272589)
(0.680664 -1.94331 0.173889)
(-0.0624283 -1.73786 0.13189)
(-3.35249 21.3443 -6.71677)
(-2.65224 3.24969 -1.17632)
(3.64966 3.73326 -3.1614)
(16.1929 2.47002 -3.6037)
(30.3215 -1.7992 -1.87041)
(32.737 -3.81222 -0.457212)
(30.2885 -5.05514 0.579661)
(24.034 -3.53993 1.38338)
(16.1692 -0.423594 2.76009)
(7.45862 1.03005 4.12339)
(4.76886 0.69112 2.67662)
(4.36603 0.335316 0.841467)
(4.54364 0.31691 0.116403)
(5.39457 0.259491 -0.090139)
(6.46422 0.15729 -0.00456715)
(7.44823 0.105209 0.236017)
(8.13122 0.119412 0.460361)
(8.4348 0.166945 0.618814)
(8.4102 0.174366 0.692618)
(8.2204 0.188261 0.718384)
(8.14299 0.234846 0.750552)
(8.33819 0.247945 0.777625)
(8.56463 0.19437 0.683932)
(8.56557 0.237212 0.601535)
(8.5907 0.346772 0.572085)
(8.82212 0.386929 0.542189)
(9.3825 0.356143 0.476828)
(9.95719 0.308458 0.450315)
(10.4068 0.278796 0.461186)
(10.7681 0.291127 0.529309)
(10.9843 0.346485 0.621234)
(11.1352 0.35028 0.657224)
(11.2653 0.346595 0.655632)
(11.4622 0.346808 0.618755)
(11.6521 0.34136 0.587888)
(11.895 0.354923 0.623059)
(12.3181 0.502375 0.829911)
(12.8583 0.733009 1.19694)
(13.5267 1.04134 1.85219)
(14.3586 1.37456 2.59442)
(15.1851 1.9303 3.20245)
(16.4301 2.40079 3.48377)
(18.4317 2.6336 3.41387)
(20.8942 2.63354 2.9953)
(23.0496 1.326 2.27823)
(23.3786 -0.811494 0.984782)
(23.1218 -1.03342 0.3266)
(22.3607 -0.900172 0.362143)
(21.7939 -1.04587 0.568912)
(20.8954 -1.46141 0.993662)
(19.1119 -2.67989 1.7538)
(10.097 -9.30752 4.24684)
(5.09035 -11.9214 4.18363)
(3.88107 -8.47657 2.93598)
(2.92601 -5.792 1.76666)
(1.80044 -4.11824 1.05332)
(1.48888 -2.99649 0.620213)
(0.647998 -2.31785 0.379079)
(0.66771 -1.89799 0.243106)
(-0.0664303 -1.69846 0.186398)
(-4.7375 1.0644 -3.1347)
(-4.38245 0.708255 -2.21908)
(-2.63618 1.21578 -5.51074)
(-2.67025 1.755 -6.83307)
(-0.396925 1.64529 -4.71314)
(3.91058 0.459544 0.0445695)
(3.49495 -0.500937 4.38373)
(0.318519 -0.0507181 5.89019)
(-0.58693 0.63066 5.41537)
(-0.689411 1.05076 3.8679)
(-0.55908 1.26903 1.9851)
(-0.671365 1.44803 0.657841)
(-0.654371 1.49606 0.0611351)
(-0.368942 1.36031 -0.128621)
(0.146496 1.04286 -0.0835042)
(0.790202 0.608897 0.0981228)
(1.31339 0.201869 0.327728)
(1.81132 -0.147439 0.520536)
(2.19925 -0.402386 0.65411)
(2.4931 -0.509898 0.71209)
(2.9573 -0.448398 0.752855)
(3.41764 -0.179368 0.807685)
(3.74026 0.269878 0.821746)
(4.01405 0.733464 0.753772)
(4.29919 1.14182 0.669544)
(4.70243 1.45075 0.593205)
(5.23517 1.55832 0.559742)
(5.81126 1.4172 0.557452)
(6.4244 1.01021 0.527044)
(7.07636 0.563076 0.524643)
(7.69706 0.242845 0.540061)
(8.2008 0.000198638 0.562914)
(8.5325 -0.187341 0.598614)
(8.57347 -0.36837 0.648112)
(8.4515 -0.563684 0.720297)
(8.43341 -0.688848 0.796838)
(8.65393 -0.52881 0.984497)
(9.15886 0.270784 1.44748)
(9.90568 1.30354 1.95253)
(10.7137 2.31739 2.32521)
(11.7419 3.03789 2.46114)
(13.3695 3.43458 2.36714)
(15.3836 3.32166 2.10249)
(17.6548 2.31016 1.67918)
(19.1838 0.267845 0.779468)
(19.8223 -1.12634 -0.163901)
(20.0519 -1.0771 -0.297985)
(20.3712 -0.992627 0.184591)
(20.331 -1.15814 0.730796)
(19.7551 -1.62327 1.46843)
(18.1852 -2.68613 2.54848)
(10.4727 -7.78797 5.3452)
(3.6219 -11.6517 5.25856)
(2.90984 -8.01661 3.53176)
(2.29222 -5.44143 2.10284)
(1.42069 -3.89364 1.26907)
(1.27813 -2.85478 0.759525)
(0.529285 -2.22845 0.475388)
(0.61326 -1.83688 0.313774)