/*--------------------------------*- C++ -*----------------------------------*\
| =========                 |                                                 |
| \\      /  F ield         | OpenFOAM: The Open Source CFD Toolbox           |
|  \\    /   O peration     | Version:  2.1.1                                 |
|   \\  /    A nd           | Web:      www.OpenFOAM.org                      |
|    \\/     M anipulation  |                                                 |
\*---------------------------------------------------------------------------*/
FoamFile
{
    version     2.0;
    format      ascii;
    class       volVectorField;
    location    "0.00115";
    object      UFLUK;
}
// * * * * * * * * * * * * * * * * * * * * * * * * * * * * * * * * * * * * * //

dimensions      [0 1 -1 0 0 0 0];

internalField   nonuniform List<vector> 
36520
(
(-4.60398e-05 -0.653014 0.527521)
(-6.2517e-05 0.0867902 -0.445845)
(9.73935e-06 0.279034 -0.781583)
(1.43457e-05 0.27451 -1.19411)
(2.23518e-05 0.235392 -1.09271)
(2.66786e-05 0.107467 -0.670843)
(2.10748e-05 -0.0241833 -0.137638)
(8.18462e-06 -0.108029 0.190975)
(2.42484e-07 -0.1156 0.268484)
(1.93022e-06 -0.0732079 0.116749)
(7.71952e-06 -0.0261291 -0.0699622)
(1.25944e-05 0.00719814 -0.243767)
(1.62039e-05 0.021035 -0.335654)
(1.98418e-05 0.0244227 -0.383739)
(2.41997e-05 0.0161435 -0.379421)
(2.989e-05 0.00805383 -0.365674)
(3.80354e-05 -0.000588271 -0.34936)
(4.94904e-05 -0.00311274 -0.353321)
(6.45983e-05 -0.00160121 -0.379304)
(8.31074e-05 0.00445242 -0.42803)
(0.000104058 0.0133957 -0.492829)
(0.000125992 0.0260001 -0.568486)
(0.00014584 0.0402168 -0.641403)
(0.000159575 0.0533863 -0.703487)
(0.000162911 0.0640199 -0.745728)
(0.000153104 0.0728983 -0.759989)
(0.000130423 0.0784741 -0.742828)
(0.00010009 0.0782355 -0.69632)
(7.31144e-05 0.0732699 -0.631977)
(6.40972e-05 0.0633847 -0.563531)
(8.54651e-05 0.0505882 -0.504198)
(0.000141035 0.0366182 -0.463227)
(0.000222175 0.0241708 -0.448999)
(0.000309846 0.0153043 -0.468136)
(0.000382036 0.012076 -0.520826)
(0.000423191 0.0172375 -0.606971)
(0.000423258 0.0324631 -0.713149)
(0.00037479 0.0590679 -0.835147)
(0.000275766 0.0989835 -0.956605)
(0.000141319 0.156723 -1.05373)
(1.09161e-05 0.231751 -1.09315)
(-9.61294e-05 0.324416 -1.03901)
(-0.000256756 0.424099 -0.854241)
(-0.000558534 0.52308 -0.557821)
(-0.000677823 0.63611 -0.169914)
(-0.000353855 0.737296 0.382081)
(-5.93441e-05 0.69071 1.23351)
(-2.83758e-05 0.406123 2.49125)
(3.59229e-06 0.0223566 4.06138)
(2.44124e-05 -0.408058 5.66975)
(1.37188e-06 -0.809353 6.86601)
(-1.86235e-06 -0.85823 6.87709)
(-2.16989e-06 -0.62541 6.00692)
(-1.42765e-07 -0.417614 4.9286)
(-2.76681e-09 -0.262532 3.91614)
(-2.10669e-11 -0.160447 3.08827)
(-1.3372e-13 -0.0977484 2.44031)
(-7.01604e-16 -0.059102 2.00343)
(-3.3651e-18 -0.0400284 1.71026)
(-1.27242e-20 -0.0292003 1.56023)
(-2.41795e-05 -0.395246 0.451581)
(-4.97963e-06 0.330794 -0.773961)
(5.24795e-05 0.637115 -1.01259)
(6.30578e-05 0.668776 -1.40598)
(6.31472e-05 0.598898 -1.20499)
(4.89958e-05 0.242072 -0.695222)
(2.80368e-05 -0.10287 -0.0444291)
(9.58707e-06 -0.343567 0.307984)
(4.54262e-06 -0.348928 0.392243)
(1.07355e-05 -0.229641 0.203182)
(2.07532e-05 -0.0869976 0.000926414)
(2.93029e-05 0.00103158 -0.183175)
(3.70645e-05 0.0503753 -0.264571)
(4.4559e-05 0.0572626 -0.303933)
(5.3831e-05 0.0392896 -0.283581)
(6.6416e-05 0.0167325 -0.259971)
(8.37785e-05 -0.00903985 -0.23619)
(0.000104998 -0.0238892 -0.231112)
(0.000129083 -0.0272457 -0.256815)
(0.000153314 -0.0153286 -0.296992)
(0.000173812 0.0075903 -0.357805)
(0.000186675 0.0424043 -0.422358)
(0.000185706 0.0822896 -0.48724)
(0.000165776 0.120071 -0.537639)
(0.000125166 0.152666 -0.570024)
(6.68437e-05 0.178954 -0.574256)
(-2.23637e-06 0.196839 -0.549872)
(-7.05318e-05 0.199107 -0.496536)
(-0.000122609 0.187209 -0.427351)
(-0.000144275 0.165074 -0.354944)
(-0.000130439 0.137044 -0.289923)
(-8.83034e-05 0.107693 -0.244653)
(-3.67014e-05 0.0849926 -0.225299)
(4.65103e-06 0.0697158 -0.234438)
(2.69566e-05 0.0777992 -0.274706)
(3.46677e-05 0.116625 -0.347198)
(3.67734e-05 0.190579 -0.438565)
(3.49956e-05 0.300921 -0.546977)
(2.06178e-05 0.455844 -0.65638)
(-1.32333e-05 0.656158 -0.741317)
(-5.88201e-05 0.892738 -0.772691)
(-0.000112287 1.1463 -0.715739)
(-0.0001428 1.40877 -0.543154)
(-5.27578e-05 1.63377 -0.363533)
(-0.000915226 1.86823 -0.0617877)
(-0.00232471 2.07669 0.426745)
(-0.00213845 1.83742 1.3331)
(-0.00145362 0.952898 2.79705)
(0.000352494 -0.191292 4.564)
(0.00318129 -1.52732 6.60635)
(0.00808229 -2.56647 7.82538)
(0.00631066 -2.62814 7.68631)
(-1.02833e-05 -1.90735 6.53238)
(-9.23101e-07 -1.26871 5.28707)
(-3.53799e-08 -0.79889 4.15272)
(-4.1811e-10 -0.496185 3.25433)
(-3.59158e-12 -0.30687 2.55641)
(-2.36098e-14 -0.197294 2.0925)
(-1.38437e-16 -0.136712 1.78073)
(-9.3334e-19 -0.107155 1.62152)
(-2.14373e-05 0.121476 0.362448)
(5.4398e-06 0.619514 -0.873039)
(5.03123e-05 0.9948 -1.2233)
(4.75437e-05 1.08285 -1.6513)
(3.1478e-05 0.991364 -1.38792)
(1.18273e-05 0.436503 -0.731684)
(-5.63394e-06 -0.107529 0.110038)
(-1.61437e-05 -0.488166 0.537649)
(-1.71754e-05 -0.505612 0.610871)
(-1.50432e-05 -0.30975 0.331175)
(-1.12696e-05 -0.0989057 0.0610254)
(-8.69068e-06 0.0416598 -0.162732)
(-6.13066e-06 0.10716 -0.262943)
(-3.39042e-06 0.11299 -0.298887)
(2.49029e-07 0.0735614 -0.27286)
(4.597e-06 0.0306736 -0.24071)
(9.40859e-06 -0.0110839 -0.212716)
(1.39083e-05 -0.0340095 -0.204413)
(1.76327e-05 -0.0306843 -0.238569)
(2.03267e-05 -0.00755378 -0.287875)
(2.17466e-05 0.0315503 -0.359727)
(2.13318e-05 0.0897729 -0.433398)
(1.81018e-05 0.157755 -0.509212)
(1.12495e-05 0.222677 -0.568307)
(2.02585e-07 0.277213 -0.60913)
(-1.13049e-05 0.31946 -0.618618)
(-3.1255e-05 0.345635 -0.6005)
(-4.11499e-05 0.338799 -0.557895)
(-3.4937e-05 0.305909 -0.494635)
(-2.06359e-05 0.253798 -0.428303)
(-6.40603e-06 0.189079 -0.367704)
(-9.52724e-07 0.120811 -0.323424)
(-1.04991e-06 0.0595431 -0.304936)
(-1.13074e-06 0.0140725 -0.316629)
(-1.20004e-06 0.00369816 -0.362719)
(-1.26347e-06 0.0466449 -0.445037)
(-1.34353e-06 0.14246 -0.553368)
(-1.4792e-06 0.294396 -0.688818)
(-1.69653e-06 0.510987 -0.835072)
(-2.01831e-06 0.8016 -0.978504)
(-2.45831e-06 1.15088 -1.08717)
(-4.37805e-05 1.54669 -1.13402)
(-0.0110266 1.96565 -1.08565)
(-0.0297699 2.34025 -0.93234)
(-0.0480149 2.69341 -0.722003)
(-0.0493252 3.0126 -0.426269)
(-0.0297227 2.70403 0.383141)
(-0.0119092 1.36744 1.95583)
(0.00901186 -0.389739 4.20492)
(0.0312852 -2.31378 6.81982)
(0.0476466 -4.48254 9.13937)
(0.107193 -4.39717 8.59715)
(-0.0001127 -3.13215 6.98632)
(-3.09048e-06 -2.05415 5.54)
(-1.79814e-07 -1.27422 4.27804)
(-3.11581e-09 -0.784156 3.32291)
(-3.5675e-11 -0.477368 2.59158)
(-2.94516e-13 -0.303741 2.11249)
(-2.77705e-15 -0.203798 1.79213)
(-3.54202e-17 -0.159355 1.62991)
(-3.96278e-05 0.723711 0.316815)
(-1.95573e-05 0.793651 -0.955627)
(1.05968e-05 1.19319 -1.51297)
(8.67639e-06 1.33986 -2.05475)
(3.17785e-06 1.26407 -1.76824)
(3.10346e-07 0.57524 -0.880099)
(-1.41672e-05 -0.103996 0.256576)
(-2.22968e-05 -0.612052 0.836077)
(-1.54479e-05 -0.613288 0.868494)
(-1.40705e-05 -0.356628 0.471076)
(-1.15333e-05 -0.0787788 0.097896)
(-5.67242e-06 0.110244 -0.172903)
(-8.18273e-07 0.197455 -0.292691)
(-3.71337e-08 0.201361 -0.31798)
(-6.01759e-08 0.146761 -0.274962)
(-9.31958e-08 0.0912422 -0.226726)
(-1.37614e-07 0.0256624 -0.193859)
(-2.75335e-07 -0.019957 -0.197513)
(-2.54105e-07 -0.043129 -0.257349)
(-2.54647e-07 -0.0395848 -0.330007)
(-3.97275e-07 -0.00690986 -0.427008)
(-4.76704e-07 0.0598834 -0.531229)
(-5.61786e-07 0.147374 -0.636583)
(-6.50579e-07 0.233789 -0.722591)
(-7.39417e-07 0.307103 -0.786878)
(-0.000225969 0.361669 -0.818014)
(-0.00092314 0.397833 -0.816085)
(-0.00118313 0.393108 -0.775905)
(-0.00112515 0.348667 -0.71188)
(-0.00109509 0.274103 -0.638293)
(-0.000968228 0.185958 -0.570092)
(-0.000728809 0.0915515 -0.523912)
(-0.000400556 0.0078667 -0.511081)
(-5.86947e-05 -0.0677264 -0.534522)
(0.000215985 -0.0990221 -0.596516)
(0.000319172 -0.0687782 -0.698422)
(2.51017e-05 0.0316255 -0.831232)
(-0.000911695 0.196608 -1.0034)
(-0.00303585 0.444169 -1.20448)
(-0.00760398 0.788898 -1.42031)
(-0.0160783 1.19964 -1.60932)
(-0.0294603 1.65858 -1.73689)
(-0.0510984 2.10759 -1.77937)
(-0.0833266 2.46816 -1.70971)
(-0.126968 2.71849 -1.58533)
(-0.155181 2.92858 -1.42679)
(-0.0968295 2.52312 -0.629311)
(-0.0265836 1.11957 0.936545)
(0.0230074 -0.67242 3.21894)
(0.0426968 -2.8355 6.68341)
(0.0547407 -5.21804 9.59153)
(0.11689 -6.35462 10.1432)
(-0.0044326 -4.36748 7.70416)
(-2.14393e-05 -2.78233 5.91637)
(-7.46604e-07 -1.70994 4.46305)
(-1.39618e-08 -1.05247 3.4202)
(-2.09297e-10 -0.640931 2.63723)
(-2.6028e-12 -0.40884 2.13474)
(-6.1151e-14 -0.276146 1.80183)
(-1.08292e-15 -0.217725 1.63532)
(-4.46077e-05 1.4444 -0.0193061)
(-2.77385e-05 0.97848 -1.09359)
(-7.92004e-06 1.41782 -1.81002)
(5.64964e-06 1.57846 -2.57939)
(5.31295e-05 1.51331 -2.29637)
(0.000130948 0.756742 -1.08175)
(-0.000178226 0.024599 0.450732)
(-0.000228395 -0.567312 1.24271)
(-5.83266e-06 -0.583909 1.21239)
(-6.91499e-05 -0.304212 0.629046)
(-0.000296386 -0.0149273 0.107778)
(-0.000703536 0.171832 -0.257741)
(-0.00111777 0.241855 -0.4252)
(-0.00137902 0.217201 -0.453241)
(-0.00152372 0.126681 -0.411027)
(-0.00163535 0.0334791 -0.342775)
(-0.001699 -0.0614423 -0.304378)
(-0.00177773 -0.123936 -0.304487)
(-0.00189304 -0.154911 -0.368291)
(-0.00206075 -0.152973 -0.457889)
(-0.00236098 -0.112929 -0.591592)
(-0.00295578 -0.0180639 -0.733969)
(-0.00379207 0.111796 -0.876316)
(-0.00442734 0.241691 -1.0019)
(-0.00492014 0.339432 -1.10511)
(-0.00561071 0.402114 -1.17469)
(-0.00686236 0.441924 -1.21018)
(-0.00809747 0.427784 -1.19775)
(-0.00868761 0.347107 -1.14669)
(-0.00876464 0.219336 -1.07514)
(-0.00838079 0.0616878 -1.00525)
(-0.00630867 -0.108288 -0.959729)
(-0.00355396 -0.280666 -0.951046)
(0.000919712 -0.416034 -0.95923)
(0.00540678 -0.477749 -0.98836)
(0.0061139 -0.437236 -1.0762)
(0.00468213 -0.298463 -1.23923)
(0.00268733 -0.0946586 -1.5082)
(-4.73178e-05 0.169484 -1.85378)
(-0.00446351 0.530624 -2.22543)
(-0.0118141 0.963116 -2.56715)
(-0.0240447 1.41632 -2.85352)
(-0.0432615 1.88908 -3.05641)
(-0.0605773 2.20528 -3.10479)
(-0.0855215 2.39227 -3.06209)
(-0.13578 2.62454 -2.98113)
(-0.124151 2.35441 -2.06971)
(-0.040315 1.20529 -0.494941)
(0.0146808 -0.0245395 1.21036)
(0.0341097 -1.93996 4.59182)
(0.0411727 -5.62735 9.23383)
(0.0890656 -7.80839 11.5254)
(0.11265 -5.70636 8.70982)
(-8.67821e-05 -3.37874 6.38215)
(-8.2253e-06 -2.05531 4.70344)
(-7.71632e-08 -1.25236 3.54128)
(-1.01754e-09 -0.755561 2.6955)
(-2.61831e-11 -0.480327 2.16395)
(-1.20256e-12 -0.323109 1.81597)
(-2.47067e-14 -0.254848 1.64412)
(-5.6349e-05 1.76535 -0.403974)
(-6.27562e-05 0.948331 -1.16684)
(-9.5892e-05 1.48841 -2.2284)
(-6.85842e-05 1.60797 -3.39752)
(0.000132782 1.60631 -3.2909)
(0.000134788 0.781866 -1.85511)
(-0.00169118 -0.0106246 0.0870459)
(-0.0129213 -0.407159 1.30939)
(-0.00498824 -0.474756 1.29871)
(-0.00190065 -0.193197 0.577461)
(-0.00204781 0.0779098 -0.0862991)
(-0.00278468 0.283168 -0.474588)
(-0.00358828 0.369172 -0.649696)
(-0.00426866 0.329006 -0.636508)
(-0.00497731 0.215205 -0.54835)
(-0.00589272 0.113266 -0.435775)
(-0.00697046 0.00555112 -0.383427)
(-0.00848227 -0.0841777 -0.406833)
(-0.0104266 -0.167892 -0.52983)
(-0.0126838 -0.223451 -0.711699)
(-0.015529 -0.241493 -0.921739)
(-0.0216958 -0.182566 -1.11047)
(-0.0388319 -0.0730639 -1.31124)
(-0.0686355 0.0188865 -1.50035)
(-0.0991044 0.0533512 -1.66689)
(-0.117396 0.0538557 -1.80106)
(-0.114119 0.0549932 -1.9035)
(-0.09396 -0.0133996 -1.94171)
(-0.070662 -0.165533 -1.91836)
(-0.0253293 -0.36854 -1.86021)
(0.0154268 -0.566272 -1.77653)
(0.0141776 -0.759211 -1.67406)
(-0.0104197 -0.925964 -1.54892)
(-0.0351714 -1.06127 -1.43135)
(-0.0423915 -1.13236 -1.36678)
(-0.0361677 -1.13435 -1.40703)
(-0.0304967 -1.06397 -1.54969)
(-0.0309372 -0.923125 -1.77231)
(-0.0285765 -0.728789 -2.09688)
(-0.0416753 -0.445438 -2.50571)
(-0.0658478 -0.087502 -2.87969)
(-0.101441 0.39236 -3.17248)
(-0.180482 0.988716 -3.33846)
(-0.258333 1.42335 -3.2613)
(-0.261499 1.56211 -2.91148)
(-0.215643 1.75499 -2.42374)
(-0.146169 1.52418 -1.42255)
(-0.0767646 0.549841 -0.301677)
(-0.017816 -0.448317 0.834237)
(0.0320828 -1.80749 2.93405)
(0.109682 -4.6373 6.24589)
(0.397717 -8.31245 11.3164)
(0.211885 -7.04346 9.95294)
(0.0390291 -3.85118 6.92997)
(-6.68974e-05 -2.28687 4.97006)
(-1.28739e-06 -1.37679 3.67382)
(-6.72559e-09 -0.82826 2.75883)
(-2.88782e-10 -0.526651 2.19446)
(-1.73689e-11 -0.355456 1.83011)
(-4.12634e-13 -0.280961 1.65231)
(-0.00167022 2.62269 -2.31712)
(-0.00418053 1.2704 -1.30115)
(-0.096908 1.61819 -2.65884)
(-0.0219342 1.13017 -4.06109)
(-0.00338547 0.957933 -4.76052)
(-0.00257587 -0.303735 -2.42251)
(0.000479004 -0.962521 0.282581)
(0.00312234 -1.13278 1.44932)
(-0.0374461 -0.383522 1.13454)
(-0.0303415 -0.164526 0.337015)
(-0.023565 0.143235 -0.428587)
(-0.0320075 0.308973 -0.985694)
(-0.0427636 0.34368 -1.27485)
(-0.0492548 0.236923 -1.35081)
(-0.0512845 0.0619291 -1.29385)
(-0.0500727 -0.103302 -1.22344)
(-0.0517227 -0.325064 -1.17476)
(-0.0589603 -0.506513 -1.2127)
(-0.0706358 -0.666009 -1.36784)
(-0.0829683 -0.831161 -1.57025)
(-0.0864211 -0.959413 -1.78958)
(-0.0862728 -0.925075 -2.02285)
(-0.101166 -0.772273 -2.26133)
(-0.143661 -0.633335 -2.48178)
(-0.182838 -0.600467 -2.67832)
(-0.231151 -0.750633 -2.80776)
(-0.346415 -0.877693 -2.94355)
(-0.326533 -0.830795 -3.14362)
(-0.130018 -0.702492 -3.30966)
(-0.0548628 -0.863095 -3.30129)
(-0.116526 -1.58301 -2.96139)
(-0.0515843 -2.43376 -2.20817)
(0.0571861 -2.31191 -2.26585)
(0.0698175 -2.29302 -2.12543)
(-0.00765984 -1.97647 -2.17379)
(-0.0656947 -1.34546 -2.30313)
(-0.0656026 -1.25002 -2.23512)
(-0.0863824 -1.47043 -2.15499)
(-0.221314 -1.45497 -2.27188)
(-0.570096 -1.27273 -2.44836)
(-1.02371 -0.92824 -2.50355)
(-1.14535 -0.437847 -2.65951)
(-1.21024 0.348988 -2.8631)
(-1.44282 0.872745 -2.40787)
(-1.53601 0.831983 -1.92924)
(-1.55448 1.09193 -1.81821)
(-1.38868 0.74072 -1.27291)
(-0.264862 -0.493029 -0.615343)
(-0.0457725 -1.4193 0.184367)
(0.0733896 -2.18664 1.3103)
(0.417607 -3.16207 2.85735)
(0.803871 -5.64529 7.24492)
(0.364491 -7.37799 10.9594)
(0.107332 -4.11548 7.54306)
(-0.00028711 -2.35476 5.23348)
(-1.6098e-05 -1.40619 3.8033)
(-1.05216e-07 -0.843708 2.82034)
(-2.51495e-09 -0.535253 2.22227)
(-1.80698e-10 -0.36091 1.84214)
(-5.00417e-12 -0.285408 1.6579)
(-0.192104 1.2748 -1.47456)
(0.0681834 0.734991 -1.17438)
(0.299369 1.751 -3.60579)
(-0.59213 -0.221297 -5.43516)
(-0.0834918 -0.69825 -6.93092)
(-0.0200865 -2.03302 -3.24672)
(0.00606522 -2.84356 1.00193)
(0.0334541 -2.71017 3.24274)
(0.0851911 -2.09501 2.13524)
(-0.0374846 0.206723 -1.1238)
(-0.0972653 0.41811 -2.00583)
(-0.107501 0.3324 -2.69276)
(-0.116831 0.218816 -3.039)
(-0.114781 0.116707 -3.08468)
(-0.114633 -0.0621009 -2.92012)
(-0.150111 -0.179897 -2.66128)
(-0.184718 -0.210744 -2.37792)
(-0.181563 -0.227246 -2.25432)
(-0.164263 -0.348101 -2.37639)
(-0.168633 -0.667665 -2.76171)
(-0.203491 -1.11567 -3.23497)
(-0.221439 -1.39093 -3.65862)
(-0.223576 -1.39855 -4.01576)
(-0.238061 -1.28096 -4.32271)
(-0.266527 -1.14755 -4.59063)
(-0.285565 -1.04671 -4.79755)
(-0.282743 -0.989667 -4.92332)
(-0.259307 -0.945323 -4.94469)
(-0.236143 -0.890126 -4.84438)
(-0.25491 -0.869589 -4.64068)
(-0.360125 -0.912058 -4.4067)
(-0.460025 -0.924976 -4.17475)
(-0.271149 -0.931406 -3.9646)
(0.00389412 -0.949646 -3.74861)
(0.13534 -0.967212 -3.52114)
(0.15092 -1.02777 -3.26127)
(0.0708418 -1.05998 -3.0585)
(0.0264254 -1.17395 -2.94974)
(0.0617195 -1.33909 -2.98979)
(0.0978905 -1.37084 -3.24584)
(0.014483 -1.05772 -3.47638)
(-0.660646 0.653061 -2.60623)
(-0.573998 1.14287 -1.75919)
(-0.298674 1.40549 -1.03863)
(-0.416665 1.25852 -0.380421)
(-1.03191 0.681385 -0.301402)
(-1.53403 -0.00330997 -0.493485)
(-1.25301 -1.05693 0.0767828)
(-0.172828 -1.61023 0.342681)
(0.290773 -1.93079 1.06443)
(0.895131 -2.30811 2.25163)
(0.909383 -3.82515 5.50355)
(0.499401 -6.18705 11.1121)
(0.175443 -4.00275 8.11079)
(-0.00413813 -2.28624 5.45828)
(-0.00015548 -1.36101 3.89803)
(-1.27537e-06 -0.817019 2.85553)
(-1.65977e-08 -0.517376 2.22727)
(-1.36168e-09 -0.349286 1.83429)
(-4.36535e-11 -0.277545 1.64675)
(0.000482154 3.71471 -21.2938)
(0.000621939 -0.0549556 -5.25843)
(0.00100293 0.217536 -3.14899)
(-0.0873315 -0.363359 -3.54949)
(-0.0522792 -0.397533 -1.72216)
(-0.00857149 -0.91815 -0.162315)
(0.0110515 -1.49483 0.489017)
(0.0204196 -1.77725 0.466622)
(0.0209778 -1.8716 0.32461)
(0.0115938 -2.17071 -0.132661)
(0.00312616 -2.49396 -0.665376)
(-0.000520186 -2.74723 -1.01655)
(-0.00138818 -2.98265 -1.20988)
(0.00104061 -3.28884 -1.32298)
(0.0060784 -3.57718 -1.42489)
(0.00841221 -3.79064 -1.50838)
(0.00639257 -3.87275 -1.53424)
(0.00409031 -3.92881 -1.5833)
(0.00332747 -4.12501 -1.69719)
(0.0028042 -4.47525 -1.86155)
(0.000738304 -4.7258 -1.98456)
(-0.00911017 -4.72106 -2.04769)
(-0.0243086 -4.47878 -2.0683)
(-0.0381105 -4.16566 -2.06579)
(-0.0573198 -3.96866 -2.0528)
(-0.0736524 -3.87286 -1.98982)
(-0.0679412 -3.78384 -1.87819)
(-0.0451098 -3.71208 -1.75601)
(-0.022472 -3.71209 -1.65492)
(-0.00878986 -3.72178 -1.60363)
(-0.00356424 -3.6909 -1.58019)
(-0.0029934 -3.60806 -1.53706)
(-0.00381046 -3.48567 -1.45355)
(-0.00409697 -3.34233 -1.38799)
(-0.0026693 -3.19469 -1.3228)
(-1.59902e-05 -3.0304 -1.25012)
(0.00156387 -2.91231 -1.22356)
(0.00231176 -2.88151 -1.23835)
(0.00656645 -2.91617 -1.24442)
(0.0183983 -2.99646 -1.26441)
(0.0300383 -3.01659 -1.29473)
(0.0206911 -2.77437 -1.31795)
(0.00487713 -1.98171 -1.25312)
(0.00178677 -1.17789 -1.27611)
(0.00164241 -1.05391 -1.11342)
(-0.176385 -1.66954 -0.584724)
(-1.82379 -0.901774 -0.0486109)
(-1.36945 -0.889029 -0.0496353)
(-0.431407 -1.30366 0.346835)
(0.482891 -1.51985 1.00439)
(0.886025 -1.69974 1.97082)
(0.917419 -2.74581 5.1273)
(0.587464 -4.59365 11.3596)
(0.250169 -3.31986 8.77616)
(-0.0164143 -1.89635 5.82941)
(-0.00100403 -1.12559 4.11079)
(-1.16897e-05 -0.67063 2.98467)
(-9.81005e-08 -0.418673 2.305)
(-8.54173e-09 -0.278395 1.88633)
(-3.1459e-10 -0.219086 1.68693)
(0.000407105 7.34568 -21.2084)
(0.0005375 1.47351 -3.92909)
(0.000892577 0.842747 -2.95431)
(-0.0913213 -0.0862678 -3.17229)
(-0.0602023 -0.205168 -1.76527)
(-0.0166224 -0.433234 -0.889838)
(-0.00122677 -1.38591 -0.466764)
(0.00660714 -2.42745 -0.100215)
(0.00842238 -2.98911 -0.148577)
(0.00354146 -3.01489 -0.297259)
(-2.87532e-05 -2.78935 -0.354363)
(-0.00143185 -2.62307 -0.411121)
(-0.00137264 -2.58717 -0.482876)
(0.000514097 -2.69807 -0.550661)
(0.00218511 -2.80237 -0.62341)
(0.00339113 -2.87519 -0.6615)
(0.00483493 -2.90938 -0.665035)
(0.00617136 -3.03384 -0.68974)
(0.00770494 -3.34939 -0.737783)
(0.00796808 -3.88864 -0.863696)
(0.00547764 -4.61696 -1.11404)
(0.0013272 -5.14543 -1.32732)
(-0.0089952 -5.10684 -1.42113)
(-0.0320253 -4.75032 -1.34984)
(-0.0401296 -4.45 -1.19722)
(-0.0479984 -4.28407 -1.0491)
(-0.0534491 -4.10626 -0.935604)
(-0.0402686 -3.9028 -0.869451)
(-0.0169875 -3.7915 -0.850309)
(-0.00310549 -3.75502 -0.87018)
(0.00124835 -3.73308 -0.885829)
(0.00202922 -3.69665 -0.889754)
(0.00201004 -3.62206 -0.875864)
(0.00208775 -3.51296 -0.851512)
(0.00213883 -3.32923 -0.810824)
(0.00212609 -3.11186 -0.769126)
(0.00193758 -2.93029 -0.734771)
(0.00260418 -2.8228 -0.707143)
(0.00457513 -2.88614 -0.711584)
(0.00625623 -2.82519 -0.723786)
(0.00542794 -2.56212 -0.696171)
(0.00218352 -1.97824 -0.61607)
(0.00107814 -0.958128 -0.373575)
(0.00425356 -0.458019 -0.185906)
(0.00948174 -0.576672 -0.204719)
(-0.0594221 -0.533978 -0.293398)
(-1.15048 -0.3005 -0.622524)
(-0.836049 -0.63727 0.089051)
(-0.288845 -0.941804 0.696774)
(0.406503 -1.12093 1.23783)
(0.799544 -1.37672 2.12971)
(0.883083 -2.58179 5.60015)
(0.581494 -3.56905 11.5804)
(0.255869 -2.41588 8.99279)
(-0.0145113 -1.35414 6.01484)
(-0.00118753 -0.81631 4.24041)
(-1.47107e-05 -0.492644 3.07444)
(-1.17046e-07 -0.310361 2.36867)
(-1.00898e-08 -0.208794 1.93569)
(-3.75366e-10 -0.1649 1.72956)
(0.000123695 5.20811 -12.6933)
(0.000158169 2.5247 -2.27179)
(0.000330164 1.21397 -1.74622)
(-0.0117783 0.927448 -2.91246)
(-0.0199058 0.434139 -2.51424)
(-0.0110674 -1.61201 -1.19024)
(-0.00080067 -3.36084 -0.651989)
(0.0138093 -4.34668 -0.294241)
(0.0183875 -5.17082 -0.211539)
(0.00837792 -5.66706 0.0582887)
(0.00138499 -5.2627 -0.0772646)
(7.58916e-05 -4.54946 -0.418295)
(-0.00157865 -4.04813 -0.655882)
(-0.00115098 -3.96805 -0.751627)
(-2.87636e-05 -4.07756 -0.82795)
(0.000713872 -4.22079 -0.86345)
(0.00159476 -4.39188 -0.886167)
(0.00283448 -4.61231 -0.903317)
(0.00343034 -4.91596 -0.921333)
(0.00238269 -5.26137 -0.926167)
(-0.00135725 -5.62859 -0.933102)
(-0.0122902 -5.9125 -1.03578)
(-0.0263526 -6.05014 -1.23814)
(-0.0238397 -6.16516 -1.20612)
(-0.13932 -6.18411 0.483648)
(-0.315222 -6.21785 -0.261376)
(-0.110079 -5.95204 -1.40204)
(-0.0119955 -5.73879 -1.33749)
(0.00141065 -5.54829 -1.17395)
(0.00158438 -5.4034 -1.13492)
(0.00108769 -5.33607 -1.13744)
(0.000475475 -5.31649 -1.1256)
(-7.47498e-05 -5.24575 -1.14005)
(-0.00053038 -5.14897 -1.1401)
(-0.00028834 -4.99218 -1.10166)
(0.000727137 -4.75999 -1.03702)
(0.00166787 -4.47316 -0.932978)
(0.00249407 -4.14175 -0.810872)
(0.00424921 -3.77536 -0.652039)
(0.00800988 -3.35393 -0.64393)
(0.00797626 -2.90492 -0.898135)
(-2.23679e-05 -2.43663 -1.1634)
(-0.00337076 -1.78084 -1.41245)
(0.00752916 -0.998781 -1.30935)
(0.0140179 -0.792841 -0.629183)
(-0.201799 -0.583052 -0.12245)
(-1.34021 0.802739 -0.0905996)
(-0.997975 -0.237694 0.300563)
(-0.37481 -0.698971 0.605239)
(0.467906 -0.687231 0.928732)
(0.896412 -0.78471 1.89229)
(0.929568 -2.1277 5.50817)
(0.615701 -2.6055 11.3583)
(0.27358 -1.58515 8.99866)
(-0.0177485 -0.835628 6.16035)
(-0.00162624 -0.503243 4.34541)
(-1.86965e-05 -0.306392 3.14775)
(-1.35163e-07 -0.195366 2.42032)
(-1.12516e-08 -0.13294 1.97612)
(-4.14226e-10 -0.106902 1.764)
(-0.000344122 4.12628 -3.43374)
(0.0206837 1.15073 -0.568986)
(0.00362406 0.579988 -1.80837)
(0.000224318 0.745968 -3.93334)
(3.45404e-05 0.963927 -4.74121)
(-0.00538797 -0.739027 -2.82865)
(-0.000111768 -3.36279 -0.887891)
(0.0023469 -5.54907 -0.0196884)
(-0.000211051 -6.84957 -0.434833)
(-0.0139226 -7.36463 -1.15957)
(-0.426278 -6.69467 -1.90914)
(-0.232473 -5.75466 -2.74944)
(-0.0562216 -5.61039 -2.71624)
(-0.0191267 -5.62508 -2.67913)
(-0.0133306 -5.67827 -2.66854)
(-0.0318945 -5.69477 -2.59518)
(-0.0653369 -5.67752 -2.48545)
(-0.0411689 -5.72231 -2.44222)
(0.105414 -5.78285 -2.43048)
(0.0851524 -5.82967 -2.1465)
(-3.94037 -5.49744 -0.732909)
(-9.48336 -0.575048 -1.03093)
(4.75772 -4.84214 3.60337)
(5.38873 -3.83644 3.58683)
(0.421034 -6.01132 2.34302)
(-4.00842 -5.98386 -0.625481)
(-4.70674 -5.69002 -0.49246)
(0.63191 -5.76472 -3.97548)
(1.7265 -4.48627 -5.11779)
(1.04303 -5.21502 -4.34752)
(0.206209 -6.25643 -2.27642)
(-2.31292 -6.17999 -1.26895)
(-4.83213 -5.42824 -0.617274)
(-3.16158 -5.98713 -0.133332)
(1.91499 -5.23543 -3.04003)
(3.14159 -3.9903 -3.72096)
(1.83956 -4.24431 -3.3043)
(-0.0752115 -4.7414 -1.36103)
(-0.15258 -4.06067 0.316543)
(0.305347 -3.23544 -0.243705)
(0.250628 -2.50577 -1.10674)
(0.0665042 -1.73777 -2.08814)
(0.00920082 -0.905443 -3.25605)
(0.0571532 -0.497125 -3.08456)
(0.471645 -0.321711 -0.826845)
(-1.72162 1.41585 0.739795)
(-1.79628 0.843334 1.25376)
(-1.48115 -0.199262 0.461093)
(-0.776951 -0.80648 0.896219)
(0.518673 -0.703902 1.04905)
(1.11657 -0.275188 1.84166)
(1.06267 -0.381898 3.89832)
(0.691085 -0.48956 10.1111)
(0.293267 -0.38572 8.74243)
(-0.0424259 -0.21986 6.10942)
(-0.00153408 -0.153047 4.33519)
(-1.4315e-05 -0.103513 3.15095)
(-1.0456e-07 -0.0714718 2.42866)
(-8.14624e-09 -0.0516359 1.98649)
(-2.63196e-10 -0.0436056 1.77508)
(-0.23635 -3.40874 -1.333)
(-0.111875 -0.146886 -0.66626)
(-0.0677407 1.11318 -2.25204)
(-0.385225 1.73687 -4.41292)
(-0.691077 2.66497 -4.59874)
(-0.486291 0.564524 -0.533771)
(-0.12644 -3.83452 1.69174)
(0.141726 -5.81045 1.89925)
(0.446921 -7.4772 1.6512)
(1.3807 -8.95448 1.68686)
(2.8616 -6.95381 2.7864)
(-0.10066 -5.3579 2.73706)
(0.0387364 -4.9587 2.30818)
(0.0228591 -4.9769 2.33182)
(0.00169656 -5.22252 2.48851)
(-0.000956272 -5.61213 2.61064)
(-0.022579 -5.92209 2.79182)
(-0.0591759 -6.11884 2.989)
(-0.0531273 -6.30921 3.09184)
(-0.0468006 -6.57734 3.15344)
(-2.7251 -6.446 3.58076)
(-5.49164 -1.19222 6.59502)
(-1.65993 0.920526 6.88788)
(5.22066 0.943224 4.87396)
(3.04989 -5.46945 1.71876)
(-0.173475 -5.73768 1.37742)
(-2.08128 -4.04269 2.91589)
(-4.19433 -2.93437 3.01918)
(-2.555 -3.96106 3.20094)
(4.40501 -4.79099 1.33113)
(3.21741 -5.38113 1.05075)
(0.740152 -5.81667 1.07234)
(-0.0863949 -5.07801 3.02802)
(-1.56103 -4.20485 3.8468)
(-3.06531 -3.6161 3.75981)
(-2.24876 -4.11116 3.20849)
(3.52965 -4.60184 -0.24703)
(3.44892 -3.97136 -0.00705686)
(1.09935 -3.70616 0.566591)
(-0.0845763 -2.59963 0.58862)
(-0.47328 -1.40847 -0.0117986)
(-0.68633 -0.354051 -1.05601)
(0.10945 0.257248 -2.15661)
(0.920245 0.945612 -2.37478)
(1.51141 2.94174 -1.40743)
(-1.85343 1.91048 0.757142)
(-2.13997 0.790847 1.22956)
(-1.58909 -0.171684 0.245813)
(-0.78077 -0.841685 1.49626)
(0.428935 -0.604265 2.33252)
(1.09743 -0.137865 2.66814)
(1.09575 0.368167 4.05818)
(0.705494 1.60607 10.0231)
(0.294359 0.752543 8.67543)
(-0.0424679 0.311035 6.08608)
(-0.00145271 0.146836 4.32988)
(-1.34251e-05 0.0738706 3.14898)
(-9.97405e-08 0.0370817 2.42778)
(-7.85304e-09 0.0189514 1.98551)
(-2.55191e-10 0.0112023 1.77455)
(-0.000126501 -3.98651 -13.7799)
(-0.000860989 -0.881588 -0.406535)
(-0.315882 1.79311 -3.10776)
(-1.41697 3.37001 -6.59823)
(-2.3087 2.14413 -5.4879)
(-0.713745 -1.63793 1.1667)
(-0.140021 -3.04614 2.87968)
(0.0500404 -3.67947 3.17459)
(0.25055 -4.75367 2.65743)
(0.455569 -6.75239 2.23138)
(0.242963 -7.10116 1.60178)
(0.00305622 -5.39323 0.88497)
(-0.0028127 -4.79137 0.620021)
(-0.0053687 -4.61668 0.695915)
(-0.00574191 -4.68636 0.848652)
(-0.00421513 -4.88755 0.954194)
(-0.00177567 -5.07509 1.04659)
(1.99814e-05 -5.24796 1.11597)
(0.00141672 -5.41098 1.17236)
(0.00215154 -5.52531 1.23367)
(-0.000159933 -5.50223 1.29682)
(-0.00579394 -5.37827 1.26648)
(-0.00542815 -5.23762 1.10171)
(-0.0133482 -5.05664 1.22416)
(-3.23583 3.34701 2.43185)
(-1.02314 -2.57316 -4.26874)
(-0.105511 -4.68867 -1.44504)
(-0.0589453 -4.78002 0.3314)
(-0.0192727 -4.77418 0.788322)
(-0.00455853 -4.80626 0.866553)
(-0.00247733 -4.81471 0.874729)
(-0.0025042 -4.76166 0.888681)
(-0.00242373 -4.71109 0.903586)
(-0.00302514 -4.62232 0.906004)
(-0.00508507 -4.41115 0.884612)
(-0.00529014 -4.10997 0.828086)
(-0.00149881 -3.72531 0.774942)
(0.00278649 -3.20468 0.701738)
(0.00662432 -2.48692 0.599375)
(0.00718195 -1.48296 0.266019)
(0.000254556 -0.38739 -0.340787)
(-0.0130863 0.481823 -1.07953)
(-0.00773776 0.861151 -1.63713)
(0.0254797 0.964568 -1.81669)
(0.0259195 0.81819 -0.751798)
(-0.845995 0.028378 0.998607)
(-1.49773 0.323578 0.964816)
(-0.810623 -0.506298 0.309886)
(-0.146417 -0.670546 1.20829)
(0.465856 -0.207887 2.01895)
(0.755932 0.500518 2.96945)
(0.914477 2.50733 7.17472)
(0.592476 3.642 11.3066)
(-0.150519 1.90873 8.79115)
(-0.0295557 0.902038 6.09926)
(-0.00111526 0.485442 4.32953)
(-1.13386e-05 0.272132 3.14062)
(-8.93408e-08 0.159015 2.41681)
(-7.81165e-09 0.0992193 1.97318)
(-2.91344e-10 0.0735739 1.76204)
(-0.000932466 -10.0521 -29.6632)
(-0.000836115 0.941498 0.215931)
(-0.00343916 3.43376 -0.376552)
(-0.0372263 3.22214 -1.68071)
(-0.293987 -1.49628 -0.819738)
(-0.778431 -3.34973 2.27621)
(-0.265255 -2.93973 4.42338)
(-0.000134213 -3.2251 4.89861)
(0.324176 -4.02773 4.0666)
(0.925554 -4.1909 2.89032)
(1.93085 -3.3072 1.84274)
(0.207217 -3.99888 0.990344)
(-0.418372 -4.30885 0.557251)
(-0.124141 -4.35371 0.740041)
(-0.0202294 -4.30447 0.87718)
(0.00259703 -4.33226 0.934319)
(0.0123548 -4.43536 0.965507)
(0.0111704 -4.53682 0.985103)
(-0.00260632 -4.58501 0.997059)
(-0.00612928 -4.39435 0.928388)
(0.0112295 -3.88722 0.7683)
(0.0627341 -3.4648 0.652483)
(0.23981 -3.38529 0.985143)
(-0.790642 1.32578 -4.0985)
(-1.19291 -0.0509413 -4.08093)
(-2.9165 0.228131 -3.59281)
(-2.02498 0.837718 -3.75733)
(0.611559 -0.287088 -3.90956)
(0.85899 -3.71262 0.379213)
(0.326542 -3.60581 0.618464)
(0.123624 -3.47085 0.585756)
(0.0515031 -3.37618 0.471998)
(0.00684525 -3.3086 -0.16042)
(-0.190906 -3.03644 -0.867743)
(-0.880967 -2.72804 -0.623215)
(-1.62964 -2.15024 0.281219)
(1.13772 -1.45914 0.86904)
(2.40805 -0.510003 0.103469)
(0.708714 -0.406571 -0.283929)
(0.00868654 0.295169 -0.749841)
(-0.016309 0.938518 -1.19274)
(-0.00863827 1.40521 -1.73492)
(0.00808031 1.59813 -2.07348)
(0.0469711 1.54903 -2.23258)
(0.0299951 0.957133 -1.46863)
(-0.921962 0.139767 0.277699)
(-1.14936 0.223122 0.559559)
(-0.649061 -0.282772 0.642452)
(0.00151353 -0.271763 1.18494)
(0.583801 0.105783 1.87607)
(1.01218 1.07903 3.32002)
(0.852207 3.60782 9.9147)
(0.472117 4.01839 11.8527)
(-0.101151 2.43522 8.64238)
(-0.0127287 1.34162 5.95686)
(-0.000393619 0.775885 4.23703)
(-3.91824e-06 0.45132 3.07939)
(-3.86325e-08 0.272589 2.37672)
(-3.54545e-09 0.173889 1.94331)
(-1.30601e-10 0.13189 1.73786)
(-0.000122647 -7.14635 -21.2151)
(-0.00132953 -1.55109 -3.07762)
(-0.0850306 -3.91713 -3.35141)
(-0.305359 -4.68735 -1.97067)
(-0.370136 -3.40967 2.43206)
(-0.150701 -2.56157 4.6381)
(0.0148893 -2.09683 6.25604)
(0.211611 -1.70524 5.35283)
(0.47117 -0.0166476 3.07945)
(0.70631 1.90385 2.063)
(0.492258 -0.671186 1.11673)
(-0.492052 -2.54089 1.62877)
(-0.651023 -2.9956 2.28722)
(-0.218415 -3.61991 2.1662)
(-0.0595586 -4.04755 1.80239)
(-0.0315955 -4.0255 1.6648)
(-0.018819 -3.87646 1.5828)
(-0.0151061 -3.71109 1.49296)
(-0.00658726 -3.56787 1.45303)
(0.0201397 -3.4274 1.40686)
(0.0504636 -3.25955 1.32173)
(0.0748716 -3.12932 1.25653)
(-0.825631 -3.35132 0.395792)
(-5.31837 1.12891 -1.69745)
(-4.74036 1.51803 -2.11362)
(-1.85765 4.02423 0.312728)
(1.72355 1.62619 2.76857)
(2.1052 1.04223 2.77577)
(0.503906 -1.19035 2.67003)
(-0.108499 -2.65674 0.887072)
(-0.215589 -2.56715 0.443146)
(-0.953887 -2.34842 0.333472)
(-1.37034 -2.15341 0.127969)
(0.421261 -2.17359 0.0420868)
(2.23902 -1.38961 0.526559)
(1.71447 0.275747 1.71247)