/*--------------------------------*- C++ -*----------------------------------*\
| =========                 |                                                 |
| \\      /  F ield         | OpenFOAM: The Open Source CFD Toolbox           |
|  \\    /   O peration     | Version:  2.1.1                                 |
|   \\  /    A nd           | Web:      www.OpenFOAM.org                      |
|    \\/     M anipulation  |                                                 |
\*---------------------------------------------------------------------------*/
FoamFile
{
    version     2.0;
    format      ascii;
    class       Cloud<solidParticle>;
    location    "0.0014";
    object      positions;
}
// * * * * * * * * * * * * * * * * * * * * * * * * * * * * * * * * * * * * * //

44454
(
(0.000570004 0.00898792 0.00101387) 20041
(0.025562 0.00602878 0.00180988) 6051
(0.0254764 0.0060353 0.00181806) 13490
(0.0253842 0.00604297 0.00182705) 13490
(0.0252886 0.0060516 0.00183675) 13490
(0.0251881 0.00606139 0.00184729) 13490
(0.0250827 0.00607234 0.00185869) 13490
(0.0249713 0.00608456 0.00187102) 13489
(0.0248562 0.00609763 0.00188385) 13489
(0.0247362 0.00611155 0.00189734) 13489
(0.0246111 0.00612613 0.00191128) 13489
(0.0244807 0.00614094 0.00192503) 13488
(0.0243435 0.00615583 0.00193813) 13488
(0.0241991 0.00617078 0.00195011) 13488
(0.0240497 0.00618568 0.00196055) 13488
(0.0238965 0.00620055 0.00196936) 13487
(0.0237388 0.00621548 0.00197661) 13487
(0.0262035 0.00599758 0.00175597) 6052
(0.0261369 0.00599736 0.00175753) 6052
(0.0260674 0.00599754 0.00175919) 6052
(0.0259953 0.0059984 0.00176165) 6051
(0.0259201 0.00599994 0.0017649) 6051
(0.0258411 0.00600234 0.00176917) 6051
(0.0257579 0.00600568 0.00177446) 6051
(0.0256707 0.00600987 0.00178049) 6051
(0.0255775 0.00601525 0.00178759) 6051
(0.0254814 0.00602187 0.0017958) 6050
(0.0253795 0.00603004 0.00180542) 6050
(0.0252735 0.00603965 0.00181621) 13490
(0.025162 0.0060507 0.00182777) 13490
(0.0250458 0.00606329 0.00184033) 13490
(0.0249245 0.00607735 0.00185383) 13489
(0.0247996 0.0060924 0.00186788) 13489
(0.024668 0.00610845 0.00188257) 13489
(0.0245316 0.00612484 0.00189721) 13489
(0.026727 0.00601887 0.00175458) 6053
(0.0243873 0.00614151 0.00191141) 13488
(0.0266714 0.00601319 0.00175135) 6053
(0.018644 0.00291061 0.00337644) 32401
(0.0242377 0.00615785 0.00192406) 13488
(0.0266139 0.00600816 0.00174882) 6053
(0.0184732 0.00290479 0.00337691) 32257
(0.0240807 0.00617417 0.00193504) 13488
(0.026554 0.00600356 0.00174634) 6053
(0.0182947 0.00289913 0.00337776) 32257
(0.0239188 0.00619032 0.0019439) 13487
(0.0264922 0.00599941 0.00174377) 6052
(0.0180998 0.00289287 0.00337933) 32257
(0.0237489 0.00620684 0.00195095) 13487
(0.0264283 0.00599593 0.00174187) 6052
(0.0178851 0.00288567 0.00338178) 32113
(0.0235688 0.00622389 0.00195621) 13487
(0.0263618 0.00599316 0.00174075) 6052
(0.0176474 0.00287717 0.00338526) 32113
(0.0262924 0.00599104 0.00174037) 6052
(0.0173869 0.00286716 0.00338979) 31969
(0.0262202 0.00598933 0.00174006) 6052
(0.0171019 0.00285507 0.00339547) 31969
(0.0261447 0.00598815 0.00174021) 6052
(0.0167956 0.00284057 0.00340236) 31825
(0.0260657 0.00598777 0.00174144) 6052
(0.0164727 0.00282347 0.00341045) 31681
(0.0259818 0.00598829 0.0017437) 6051
(0.0161451 0.00280398 0.00341939) 31681
(0.0258929 0.00598975 0.00174702) 6051
(0.0258013 0.00599211 0.00175089) 6051
(0.0257027 0.00599588 0.00175624) 6051
(0.0255992 0.00600118 0.00176324) 6051
(0.0202445 0.00294995 0.00338433) 32833
(0.0254903 0.0060081 0.0017718) 6050
(0.0201339 0.00294603 0.00338056) 32833
(0.0253753 0.00601675 0.00178145) 6050
(0.0200185 0.00294179 0.0033773) 32833
(0.0252545 0.00602769 0.00179315) 6050
(0.019895 0.00293696 0.00337471) 32689
(0.0251274 0.006041 0.00180678) 6050
(0.0271133 0.00607567 0.0017825) 13494
(0.0197667 0.00293181 0.00337248) 32689
(0.0249946 0.00605638 0.0018216) 13489
(0.0270677 0.00606469 0.00177563) 13494
(0.0196307 0.00292618 0.0033707) 32689
(0.0248553 0.00607362 0.00183725) 13489
(0.0270195 0.00605439 0.0017693) 6054
(0.0194885 0.00292025 0.00336934) 32545
(0.0247097 0.00609234 0.00185372) 13489
(0.0269685 0.00604482 0.00176375) 6053
(0.0193398 0.00291401 0.00336838) 32545
(0.024558 0.00611166 0.00187021) 13489
(0.0269152 0.00603552 0.00175772) 6053
(0.0191845 0.00290771 0.00336774) 32545
(0.024397 0.00613122 0.00188616) 13488
(0.0268598 0.00602683 0.00175173) 6053
(0.0190203 0.0029013 0.00336748) 32545
(0.0242263 0.00615076 0.00190053) 13488
(0.0268014 0.00601886 0.00174635) 6053
(0.018849 0.00289509 0.00336745) 32401
(0.0240471 0.00617008 0.00191241) 13488
(0.0267399 0.0060117 0.0017419) 6053
(0.0186695 0.0028891 0.00336769) 32401
(0.0238561 0.00618959 0.0019217) 13487
(0.0266757 0.00600516 0.00173785) 6053
(0.0184725 0.00288244 0.00336872) 32257
(0.0236505 0.00621002 0.00192881) 13487
(0.0266091 0.00599914 0.00173334) 6053
(0.018254 0.00287477 0.00337067) 32257
(0.0234255 0.00623122 0.00193308) 13486
(0.0265392 0.00599393 0.00172974) 6053
(0.018012 0.00286579 0.00337366) 32257
(0.026466 0.00598955 0.00172706) 6052
(0.0177463 0.00285526 0.00337773) 32113
(0.0263894 0.00598599 0.00172533) 6052
(0.0174543 0.00284263 0.00338297) 31969
(0.0263089 0.00598291 0.00172358) 6052
(0.0175837 0.0045137 0.000848597) 11555
(0.0171419 0.00282762 0.00338947) 31969
(0.0262235 0.00598057 0.0017224) 6052
(0.0175393 0.00452171 0.000845594) 11555
(0.0168115 0.00280949 0.00339741) 31825
(0.0211793 0.00296292 0.00340483) 33121
(0.0261333 0.00597913 0.00172248) 6052
(0.0174929 0.00452948 0.00084249) 11554
(0.0164783 0.0027889 0.00340613) 31681
(0.0210855 0.00296058 0.00339932) 33121
(0.0260383 0.00597877 0.001724) 6052
(0.0174449 0.00453705 0.00083935) 11554
(0.0161611 0.00276678 0.00341496) 31681
(0.020988 0.00295793 0.00339399) 32977
(0.0259376 0.0059793 0.00172594) 6051
(0.0173955 0.00454443 0.000836186) 11554
(0.0208862 0.0029549 0.00338888) 32977
(0.0258308 0.00598123 0.0017292) 6051
(0.0173447 0.00455162 0.000832982) 11554
(0.0207792 0.00295146 0.00338403) 32977
(0.0257179 0.00598502 0.00173466) 6051
(0.0172925 0.00455862 0.000829749) 11554
(0.0206671 0.00294759 0.00337947) 32977
(0.0255968 0.0059908 0.00174199) 6051
(0.0274196 0.00616365 0.00183295) 13494
(0.0172392 0.00456544 0.000826481) 11554
(0.0205507 0.00294332 0.00337523) 32977
(0.0254704 0.0059985 0.0017506) 6050
(0.0273803 0.00614828 0.00182269) 13494
(0.0171845 0.00457207 0.00082318) 11554
(0.0204283 0.00293852 0.00337153) 32833
(0.025336 0.00600913 0.00176197) 6050
(0.0273392 0.00613285 0.00181238) 13494
(0.017128 0.00457854 0.000819831) 11554
(0.0203002 0.00293319 0.00336839) 32833
(0.0251941 0.00602297 0.00177615) 6050
(0.0272958 0.0061181 0.00180338) 13494
(0.0170693 0.00458488 0.000816421) 11554
(0.0201671 0.00292738 0.00336558) 32833
(0.0250437 0.00604001 0.00179256) 6050
(0.0272501 0.00610374 0.00179499) 13494
(0.0170088 0.00459114 0.000812942) 11554
(0.0200269 0.00292098 0.00336319) 32833
(0.0248865 0.00606002 0.00181082) 13489
(0.0272025 0.00608961 0.00178611) 13494
(0.0169462 0.00459733 0.00080939) 11553
(0.0198824 0.00291433 0.00336108) 32689
(0.0247217 0.00608229 0.00183036) 13489
(0.0271521 0.00607602 0.00177742) 13494
(0.0197319 0.0029073 0.00335936) 32689
(0.0245463 0.00610569 0.00184991) 13489
(0.0270985 0.00606336 0.00176934) 6054
(0.019576 0.00290029 0.00335789) 32689
(0.0243592 0.00612921 0.00186825) 13488
(0.0270416 0.00605163 0.00176227) 6054
(0.0194128 0.00289332 0.00335668) 32545
(0.0241583 0.00615249 0.00188396) 13488
(0.0269819 0.00604025 0.00175462) 6053
(0.0186902 0.00509376 0.000460207) 7837
(0.0192423 0.00288656 0.00335565) 32545
(0.0239422 0.00617576 0.00189621) 13487
(0.0269186 0.00602971 0.00174707) 6053
(0.0186312 0.00510024 0.000462198) 7837
(0.0190631 0.00288022 0.00335475) 32545
(0.0237071 0.00619972 0.0019051) 13487
(0.0268517 0.00602011 0.00174033) 6053
(0.0185691 0.00510645 0.000463904) 7837
(0.0188656 0.00287332 0.00335451) 32401
(0.0234448 0.00622532 0.00191075) 13486
(0.0267811 0.00601143 0.00173468) 6053
(0.0183416 0.0044766 0.000846442) 13236
(0.0185047 0.00511244 0.000465374) 7837
(0.0186463 0.00286558 0.00335509) 32401
(0.0221394 0.00297467 0.00343584) 33409
(0.0267065 0.00600336 0.00172867) 6053
(0.0182993 0.00448539 0.000843727) 13236
(0.0184371 0.00511823 0.000466472) 7836
(0.0184017 0.00285646 0.00335658) 32257
(0.0220521 0.00297347 0.00342932) 33409
(0.0266282 0.00599617 0.00172297) 6053
(0.0182548 0.00449384 0.000841022) 13236
(0.018367 0.00512386 0.000467344) 7836
(0.0181303 0.00284555 0.00335929) 32257
(0.0219628 0.00297214 0.00342294) 33265
(0.0265464 0.00599012 0.00171864) 6053
(0.0182082 0.00450199 0.000838312) 13236
(0.0182946 0.00512936 0.000468024) 7836
(0.0178299 0.00283211 0.00336337) 32113
(0.0218711 0.00297063 0.00341669) 33265
(0.0264602 0.00598506 0.00171551) 6052
(0.0181597 0.00450993 0.000835592) 13236
(0.01822 0.00513478 0.000468529) 7836
(0.0175028 0.00281544 0.00336902) 32113
(0.0217762 0.00296884 0.0034106) 33265
(0.0263687 0.00598071 0.00171235) 6052
(0.0181094 0.00451763 0.000832855) 13236
(0.0181431 0.00514015 0.000468859) 7836
(0.0171615 0.00279578 0.00337615) 31969
(0.0216781 0.0029668 0.00340464) 33265
(0.026273 0.00597719 0.00170966) 6052
(0.0180575 0.0045251 0.000830097) 13236
(0.0180641 0.00514551 0.000469057) 7836
(0.0168173 0.00277294 0.00338441) 31825
(0.0215762 0.00296442 0.00339876) 33265
(0.0183508 0.00369869 0.00346422) 14496
(0.0261697 0.00597487 0.00170867) 6052
(0.0277432 0.00630582 0.00194262) 13495
(0.018005 0.0045324 0.000827635) 13236
(0.0179843 0.00515091 0.000469438) 7835
(0.0165001 0.00274965 0.00339294) 31825
(0.0214702 0.00296169 0.00339321) 33121
(0.0216423 0.00648937 0.00143263) 6763
(0.0183262 0.00369863 0.00346423) 14496
(0.0183008 0.00379221 0.00367098) 14556
(0.0260615 0.00597387 0.0017095) 6052
(0.0277066 0.00628594 0.00192503) 13495
(0.0179513 0.00453963 0.000825112) 11555
(0.0179024 0.0051564 0.000469658) 7835
(0.016246 0.00272945 0.00339928) 31681
(0.0213606 0.00295858 0.00338769) 33121
(0.021448 0.00650235 0.00142669) 6762
(0.0183016 0.00369855 0.00346425) 14496
(0.0182766 0.00379214 0.00367095) 14556
(0.0259463 0.00597392 0.00171073) 6051
(0.0276698 0.0062664 0.0019071) 13495
(0.0178962 0.00454671 0.000822537) 11555
(0.0178187 0.00516194 0.000469749) 7835
(0.0212457 0.00295496 0.00338232) 33121
(0.0212362 0.00651812 0.00142072) 6762
(0.0182945 0.00636896 0.00290234) 13536
(0.018277 0.00369844 0.00346427) 14496
(0.0182525 0.00379204 0.00367095) 14556
(0.0258245 0.00597588 0.00171387) 6051
(0.0276307 0.00624711 0.00189097) 13495
(0.0178401 0.00455369 0.000819896) 11555
(0.0177337 0.00516759 0.000469735) 7835
(0.0198856 0.00502699 0.000431859) 7839
(0.0211279 0.00295091 0.00337705) 33121
(0.0210049 0.00653714 0.00141478) 6762
(0.018271 0.00636883 0.00290246) 13536
(0.0182524 0.00369829 0.0034643) 14496
(0.0187678 0.00369284 0.00346581) 14497
(0.0182284 0.00379193 0.00367095) 14556
(0.0256945 0.00598019 0.00171961) 6051
(0.0275896 0.00622788 0.00187589) 13495
(0.0177829 0.00456057 0.000817193) 11555
(0.0176471 0.00517334 0.000469601) 7835
(0.019858 0.00503744 0.000437769) 7839
(0.0210064 0.00294642 0.00337197) 33121
(0.0207576 0.00655959 0.0014091) 6821
(0.0182474 0.00636873 0.00290257) 13536
(0.0182279 0.00369812 0.00346434) 14496
(0.0187433 0.00369322 0.00346577) 14497
(0.0182043 0.00379179 0.00367098) 14556
(0.0187086 0.00378745 0.00367667) 14557
(0.0255557 0.00598682 0.00172711) 6051
(0.0275483 0.00620869 0.00186046) 13495
(0.0177246 0.00456737 0.00081442) 11555
(0.0175591 0.00517923 0.000469376) 7835
(0.0198225 0.0050468 0.000442804) 7839
(0.0208788 0.00294131 0.0033674) 32977
(0.0205664 0.00656901 0.00140482) 6821
(0.0182238 0.00636866 0.00290267) 13536
(0.0187109 0.00637786 0.00289898) 13537
(0.0182033 0.00369792 0.00346438) 14496
(0.0187187 0.00369357 0.00346574) 14497
(0.0181803 0.00379163 0.00367102) 14556
(0.0186841 0.00378774 0.00367641) 14557
(0.025409 0.00599639 0.00173707) 6050
(0.0275052 0.0061902 0.00184682) 13495
(0.0176648 0.00457412 0.000811567) 11555
(0.0174688 0.00518529 0.00046904) 7834
(0.0197847 0.00505566 0.000447511) 7839
(0.0207475 0.00293569 0.00336328) 32977
(0.0204214 0.00657365 0.00140225) 6820
(0.0182002 0.00636862 0.00290277) 13536
(0.0186885 0.00637729 0.00289916) 13537
(0.0181789 0.00369769 0.00346442) 14496
(0.0186942 0.00369391 0.0034657) 14497
(0.0181564 0.00379144 0.00367108) 14556
(0.0186595 0.003788 0.00367617) 14557
(0.0252537 0.00600987 0.00175077) 6050
(0.0274594 0.00617197 0.0018348) 13494
(0.0176033 0.00458082 0.000808623) 11555
(0.0173766 0.00519156 0.000468632) 7834
(0.0197447 0.00506408 0.000451934) 7839
(0.0206098 0.00292933 0.00335963) 32977
(0.0202883 0.00657743 0.00140011) 6820
(0.0181765 0.00636861 0.00290286) 13536
(0.018666 0.00637674 0.00289934) 13537
(0.0181544 0.00369744 0.00346446) 14496
(0.0186696 0.00369423 0.00346567) 14497
(0.0181325 0.00379124 0.00367115) 14556
(0.018635 0.00378826 0.00367593) 14557
(0.0250892 0.00602743 0.00176775) 6050
(0.0274125 0.00615374 0.00182236) 13494
(0.0175403 0.00458754 0.000805586) 11555
(0.0197023 0.00507208 0.000456075) 7839
(0.0204698 0.00292268 0.00335621) 32833
(0.0201651 0.00658156 0.0013986) 6820
(0.0181528 0.00636863 0.00290295) 13536
(0.0186434 0.0063762 0.00289952) 13537
(0.01813 0.00369716 0.00346451) 14496
(0.0186451 0.00369453 0.00346564) 14497
(0.0181086 0.00379101 0.00367123) 14556
(0.0186105 0.00378849 0.0036757) 14557
(0.0249147 0.00604928 0.00178772) 6049
(0.0273638 0.00613585 0.00181047) 13494
(0.0174756 0.00459425 0.000802447) 11554
(0.0196574 0.00507965 0.000459914) 7839
(0.0203241 0.00291545 0.00335317) 32833
(0.0200636 0.00658632 0.00139859) 6820
(0.0181291 0.00636868 0.00290302) 13536
(0.0186208 0.00637569 0.0028997) 13537
(0.0181057 0.00369685 0.00346456) 14496
(0.0186205 0.00369481 0.0034656) 14497
(0.0180848 0.00379076 0.00367133) 14556
(0.018586 0.0037887 0.00367547) 14557
(0.0247297 0.0060747 0.00180985) 13489
(0.0273124 0.00611874 0.00180001) 13494
(0.0174094 0.00460095 0.000799202) 11554
(0.0196096 0.00508682 0.00046344) 7839
(0.0201736 0.0029079 0.00335046) 32833
(0.0199736 0.00659137 0.00139932) 6819
(0.0181054 0.00636875 0.00290308) 13536
(0.018598 0.0063752 0.00289987) 13537
(0.0179871 0.0042239 0.00188342) 14135
(0.0180814 0.00369651 0.00346461) 14496
(0.0185959 0.00369507 0.00346557) 14497
(0.0191066 0.00368383 0.00346747) 14498
(0.0180611 0.00379049 0.00367144) 14556
(0.0185615 0.00378889 0.00367526) 14557
(0.0181099 0.00637468 0.00313252) 15276
(0.0245311 0.00610208 0.0018325) 13489
(0.0272585 0.00610216 0.00179007) 13494
(0.0173415 0.00460765 0.000795849) 11554
(0.0195587 0.00509358 0.000466628) 7839
(0.0200171 0.00290003 0.00334811) 32833
(0.0231787 0.00298458 0.0034658) 33697
(0.0198826 0.00659647 0.00139982) 6819
(0.0180816 0.00636886 0.00290314) 13536
(0.0185752 0.00637473 0.00290004) 13537
(0.0179644 0.00422362 0.0018834) 14135
(0.0180571 0.00369614 0.00346467) 14496
(0.0185713 0.00369531 0.00346554) 14497
(0.0190824 0.00368437 0.0034674) 14498
(0.0180373 0.00379019 0.00367157) 14556
(0.018537 0.00378907 0.00367505) 14557
(0.0178495 0.00500886 0.00437801) 14855
(0.0180862 0.00637486 0.00313265) 15276
(0.018582 0.00637876 0.00313109) 15277
(0.0243177 0.00612956 0.00185337) 13488
(0.0272021 0.00608597 0.00177957) 13494
(0.0172718 0.00461435 0.000792409) 11554
(0.0191252 0.00445111 0.000844548) 13238
(0.0195043 0.00509997 0.000469475) 7839
(0.0198543 0.00289234 0.00334598) 32689
(0.0230926 0.00298401 0.00345953) 33697
(0.0197906 0.00660155 0.00140011) 6819
(0.0180578 0.00636899 0.00290318) 13536
(0.0185524 0.00637428 0.0029002) 13537
(0.0190158 0.00638954 0.00289595) 13538
(0.0179417 0.00422332 0.00188337) 14135
(0.0180328 0.00369575 0.00346473) 14496
(0.0185467 0.00369552 0.00346552) 14497
(0.0190582 0.0036849 0.00346732) 14498
(0.0180137 0.00378987 0.00367171) 14556
(0.0185126 0.00378922 0.00367485) 14557
(0.0190206 0.00378033 0.00368307) 14558
(0.0178262 0.00500868 0.00437849) 14855
(0.0183162 0.00501218 0.00437581) 14856
(0.0180624 0.00637506 0.00313279) 15276
(0.0185589 0.00637838 0.00313113) 15277
(0.0240855 0.00615646 0.00187005) 13488
(0.027142 0.00607094 0.00176966) 13494
(0.0172003 0.00462104 0.000788883) 11554
(0.0190862 0.00446096 0.000842493) 13238
(0.0194464 0.00510601 0.000471996) 7838
(0.0196867 0.00288534 0.00334386) 32689
(0.0230039 0.00298338 0.00345342) 33697
(0.0196986 0.0066064 0.00140018) 6819
(0.018034 0.00636915 0.00290322) 13536
(0.0185294 0.00637385 0.00290036) 13537
(0.0189946 0.00638878 0.00289612) 13537
(0.0179191 0.00422301 0.00188332) 14135
(0.0183855 0.004223 0.00187881) 14136
(0.0180086 0.00369533 0.00346479) 14496
(0.018522 0.0036957 0.00346549) 14497
(0.019034 0.00368542 0.00346724) 14498
(0.0179901 0.00378953 0.00367186) 14555
(0.0184882 0.00378935 0.00367466) 14556
(0.0189962 0.00378076 0.00368274) 14557
(0.017803 0.0050085 0.00437899) 14855
(0.0182924 0.00501198 0.00437579) 14856
(0.0180386 0.00637528 0.00313293) 15276
(0.0185356 0.00637803 0.00313117) 15277
(0.0238322 0.00618331 0.00188188) 13487
(0.0270779 0.00605705 0.00176091) 6054
(0.0171266 0.0046277 0.000785235) 11554
(0.0190467 0.00447046 0.000840437) 13238
(0.0193852 0.00511176 0.000474207) 7838
(0.0195091 0.00287876 0.00334184) 32689
(0.0229131 0.00298262 0.00344745) 33553
(0.019606 0.00661111 0.00140004) 6819
(0.0180101 0.00636934 0.00290324) 13536
(0.0185064 0.00637345 0.00290052) 13537
(0.0189733 0.00638803 0.0028963) 13537
(0.0178965 0.00422268 0.00188326) 14135
(0.0183626 0.00422305 0.00187909) 14136
(0.0179844 0.00369488 0.00346487) 14495
(0.0184974 0.00369586 0.00346547) 14496
(0.0190098 0.00368593 0.00346717) 14498
(0.0179665 0.00378917 0.00367202) 14555
(0.0184638 0.00378946 0.00367449) 14556
(0.0189717 0.00378117 0.00368242) 14557
(0.0177798 0.00500832 0.0043795) 14855
(0.0182686 0.00501178 0.0043758) 14856
(0.0180148 0.00637553 0.00313307) 15276
(0.0185124 0.00637769 0.00313122) 15277
(0.023548 0.00621203 0.00188983) 13487
(0.02701 0.00604383 0.00175215) 6054
(0.0190051 0.0044796 0.000838395) 13238
(0.0193204 0.00511725 0.000476107) 7838
(0.0193129 0.00287173 0.00334031) 32545
(0.0228178 0.00298164 0.00344169) 33553
(0.0195127 0.00661573 0.00139968) 6819
(0.0228494 0.0064851 0.00144619) 6765
(0.0179862 0.00636955 0.00290326) 13535
(0.0184832 0.00637307 0.00290067) 13536
(0.0189519 0.0063873 0.00289648) 13537
(0.0178739 0.00422233 0.00188319) 14135
(0.0183397 0.00422309 0.00187935) 14136
(0.0179603 0.0036944 0.00346494) 14495
(0.0184727 0.00369599 0.00346545) 14496
(0.0189856 0.00368642 0.0034671) 14497
(0.0179429 0.00378879 0.0036722) 14555
(0.0184395 0.00378955 0.00367433) 14556
(0.0189472 0.00378158 0.00368209) 14557
(0.0177566 0.00500815 0.00438003) 14855
(0.0182449 0.00501157 0.00437584) 14856
(0.017991 0.0063758 0.00313322) 15275
(0.018489 0.00637739 0.00313127) 15276
(0.0232206 0.0062433 0.00189366) 13486
(0.0269389 0.00603159 0.00174299) 6053
(0.0189609 0.00448838 0.000836363) 13237
(0.0192521 0.00512251 0.000477725) 7838
(0.0190923 0.00286367 0.00333962) 32545
(0.022721 0.00298059 0.00343604) 33553
(0.0194184 0.00662052 0.00139906) 6818
(0.0227489 0.00648693 0.00144334) 6765
(0.0179623 0.00636979 0.00290326) 13535
(0.01846 0.00637272 0.00290082) 13536
(0.0189304 0.00638657 0.00289665) 13537
(0.0178514 0.00422197 0.00188311) 14135
(0.0183168 0.00422312 0.00187961) 14136
(0.0179361 0.00369389 0.00346502) 14495
(0.018448 0.00369609 0.00346544) 14496
(0.0189613 0.00368691 0.00346703) 14497
(0.0179195 0.00378839 0.0036724) 14555
(0.0184151 0.00378962 0.00367418) 14556
(0.0189226 0.00378198 0.00368178) 14557
(0.0177335 0.00500798 0.00438057) 14855
(0.0182211 0.00501135 0.00437591) 14856
(0.0179671 0.0063761 0.00313338) 15275
(0.0184656 0.0063771 0.00313133) 15276
(0.0268622 0.00602047 0.00173485) 6053
(0.0189142 0.00449681 0.000834329) 13237
(0.0191807 0.0051276 0.000479082) 7838
(0.0188443 0.00285427 0.00333992) 32401
(0.0226224 0.00297943 0.00343047) 33553
(0.0193251 0.00662549 0.00139827) 6818
(0.022632 0.00649031 0.00143952) 6765
(0.0179384 0.00637006 0.00290326) 13535
(0.0184367 0.00637239 0.00290097) 13536
(0.0189089 0.00638585 0.00289683) 13537
(0.0178289 0.00422159 0.00188301) 14135
(0.0182939 0.00422312 0.00187984) 14136
(0.0179121 0.00369336 0.0034651) 14495
(0.0184233 0.00369616 0.00346543) 14496
(0.018937 0.00368738 0.00346696) 14497
(0.017896 0.00378796 0.0036726) 14555
(0.0183908 0.00378966 0.00367404) 14556
(0.0188981 0.00378236 0.00368147) 14557
(0.0177104 0.00500781 0.00438113) 14855
(0.0181974 0.00501114 0.004376) 14856
(0.0179433 0.00637642 0.00313353) 15275
(0.0184422 0.00637685 0.00313139) 15276
(0.0267814 0.00601048 0.00172788) 6053
(0.0188651 0.00450493 0.000832281) 13237
(0.0191059 0.00513254 0.000480182) 7838
(0.0185642 0.00284266 0.00334161) 32401
(0.0225201 0.00297806 0.00342504) 33553
(0.0192319 0.0066305 0.00139723) 6818
(0.0224986 0.00649534 0.00143487) 6764
(0.0179144 0.00637035 0.00290325) 13535
(0.0184134 0.00637209 0.00290112) 13536
(0.0188872 0.00638515 0.00289701) 13537
(0.0182307 0.00442413 0.00176611) 14076
(0.0178064 0.0042212 0.0018829) 14135
(0.018271 0.00422311 0.00188007) 14136
(0.017888 0.00369281 0.00346519) 14495
(0.0183985 0.0036962 0.00346543) 14496
(0.0189126 0.00368783 0.0034669) 14497
(0.0178726 0.00378752 0.00367283) 14555
(0.0183666 0.00378969 0.00367393) 14556
(0.0188735 0.00378274 0.00368116) 14557
(0.0176872 0.00500765 0.00438169) 14855
(0.0181737 0.00501093 0.00437612) 14856
(0.0179194 0.00637676 0.0031337) 15275
(0.0184186 0.00637662 0.00313146) 15276
(0.0266968 0.00600142 0.00172057) 6053
(0.0188138 0.0045128 0.000830212) 13237
(0.0190281 0.00513739 0.000481063) 7838
(0.0182533 0.00282832 0.00334477) 32257
(0.0224156 0.00297653 0.0034197) 33409
(0.0191373 0.00663562 0.00139584) 6818
(0.0223489 0.00650226 0.0014297) 6764
(0.0178904 0.00637067 0.00290322) 13535
(0.0183899 0.00637182 0.00290126) 13536
(0.0188654 0.00638446 0.00289719) 13537
(0.0177489 0.0044221 0.00176768) 14075
(0.0182079 0.00442412 0.00176629) 14076
(0.0177839 0.0042208 0.00188278) 14135
(0.0182481 0.00422308 0.00188027) 14136
(0.017864 0.00369223 0.00346528) 14495
(0.0183738 0.00369621 0.00346543) 14496
(0.0188882 0.00368827 0.00346685) 14497
(0.0178492 0.00378706 0.00367306) 14555
(0.0183423 0.00378969 0.00367383) 14556
(0.018849 0.0037831 0.00368087) 14557
(0.0176641 0.00500749 0.00438227) 14855
(0.01815 0.00501071 0.00437627) 14856
(0.0178956 0.00637712 0.00313387) 15275
(0.018395 0.00637643 0.00313154) 15276
(0.0188771 0.00638753 0.00313127) 15277
(0.0266065 0.00599342 0.0017139) 6053
(0.0279901 0.00644915 0.00207294) 13435
(0.0187604 0.00452042 0.000828116) 13237
(0.0189476 0.0051422 0.00048175) 7837
(0.0206798 0.00498028 0.000405252) 7841
(0.0179113 0.00281013 0.00334966) 32113
(0.0223102 0.00297487 0.00341439) 33409
(0.0190404 0.00664064 0.00139398) 6818
(0.0221825 0.00651146 0.00142416) 6764
(0.0178664 0.00637101 0.00290319) 13535
(0.0183664 0.00637158 0.0029014) 13536
(0.0188436 0.00638378 0.00289736) 13537
(0.0177263 0.00442188 0.00176739) 14075
(0.0181852 0.0044241 0.00176645) 14076
(0.0177615 0.00422038 0.00188265) 14135
(0.0182252 0.00422303 0.00188046) 14136
(0.0186875 0.00421782 0.00187122) 14137
(0.01784 0.00369163 0.00346537) 14495
(0.0183491 0.00369619 0.00346544) 14496
(0.0188637 0.0036887 0.00346679) 14497
(0.0178259 0.00378659 0.00367331) 14555
(0.0183181 0.00378967 0.00367374) 14556
(0.0188244 0.00378345 0.00368058) 14557
(0.017641 0.00500733 0.00438285) 14855
(0.0181264 0.0050105 0.00437644) 14856
(0.0178717 0.0063775 0.00313404) 15275
(0.0183713 0.00637625 0.00313162) 15276
(0.0188549 0.00638688 0.00313126) 15277
(0.0265115 0.00598669 0.00170877) 6053
(0.0279651 0.00643147 0.00205288) 13435
(0.018705 0.00452782 0.000825984) 13237
(0.0188648 0.00514697 0.000482259) 7837
(0.0206863 0.00499552 0.000414516) 7841
(0.0175527 0.00278811 0.00335648) 32113
(0.0222007 0.00297292 0.0034092) 33409
(0.0189395 0.0066456 0.0013915) 6817
(0.0219992 0.00652315 0.00141842) 6763
(0.0178424 0.00637138 0.00290315) 13535
(0.0183429 0.00637136 0.00290153) 13536
(0.0188216 0.00638311 0.00289754) 13537
(0.0177037 0.00442165 0.00176707) 14075
(0.0181624 0.00442406 0.00176658) 14076
(0.0177391 0.00421995 0.00188251) 14135
(0.0182023 0.00422296 0.00188064) 14136
(0.0186652 0.00421807 0.00187172) 14137
(0.0178161 0.00369101 0.00346547) 14495
(0.0183244 0.00369615 0.00346545) 14496
(0.0188392 0.00368911 0.00346675) 14497
(0.0178026 0.00378609 0.00367358) 14555
(0.018294 0.00378963 0.00367368) 14556
(0.0187998 0.00378379 0.00368031) 14557
(0.017618 0.00500718 0.00438344) 14855
(0.0181028 0.00501029 0.00437664) 14856
(0.0178478 0.0063779 0.00313422) 15275
(0.0183476 0.00637611 0.00313171) 15276
(0.0188327 0.00638624 0.00313126) 15277
(0.0264121 0.00598115 0.00170459) 6052
(0.0279331 0.006411 0.00203319) 13495
(0.0186478 0.00453504 0.000823815) 13237
(0.0187796 0.00515175 0.000482604) 7837
(0.0206875 0.00500985 0.000423221) 7841
(0.0171958 0.00276295 0.00336444) 31969
(0.0220888 0.0029707 0.00340401) 33409
(0.0188349 0.00665034 0.00138833) 6817
(0.0217976 0.00653791 0.00141261) 6823
(0.0178183 0.00637178 0.0029031) 13535
(0.0183192 0.00637117 0.00290166) 13536
(0.0187996 0.00638247 0.00289773) 13537
(0.0176812 0.00442142 0.00176674) 14075
(0.0181396 0.00442402 0.00176669) 14076
(0.0177167 0.00421951 0.00188235) 14135
(0.0181794 0.00422288 0.0018808) 14136
(0.0186428 0.0042183 0.00187219) 14137
(0.0177922 0.00369037 0.00346556) 14495
(0.0182997 0.00369608 0.00346547) 14496
(0.0188147 0.00368951 0.00346671) 14497
(0.0177793 0.00378559 0.00367385) 14555
(0.0182698 0.00378957 0.00367363) 14556
(0.0187752 0.00378411 0.00368004) 14557
(0.0175949 0.00500703 0.00438403) 14855
(0.0180792 0.00501008 0.00437686) 14856
(0.017824 0.00637833 0.00313441) 15275
(0.0183238 0.006376 0.00313181) 15276
(0.0188103 0.00638563 0.00313126) 15277
(0.026306 0.00597631 0.00170006) 6052
(0.0278984 0.0063896 0.00201452) 13495
(0.0185892 0.00454211 0.000821607) 13237
(0.0186927 0.0051566 0.000482832) 7837
(0.0206837 0.0050233 0.000431384) 7841
(0.0168766 0.00273813 0.00337219) 31825
(0.0219732 0.00296813 0.00339883) 33265
(0.018726 0.00665468 0.0013844) 6817
(0.0215746 0.00655622 0.00140673) 6823
(0.0177943 0.00637219 0.00290304) 13535
(0.0182955 0.00637101 0.00290179) 13536
(0.0187775 0.00638184 0.00289791) 13537
(0.0174788 0.00578658 0.00190599) 13774
(0.0176587 0.00442119 0.0017664) 14075
(0.0181169 0.00442397 0.00176678) 14076
(0.0176943 0.00421906 0.00188218) 14135
(0.0181565 0.00422277 0.00188094) 14136
(0.0186203 0.00421853 0.00187266) 14137
(0.0177683 0.00368971 0.00346566) 14495
(0.0182751 0.00369598 0.00346549) 14496
(0.0187902 0.00368989 0.00346667) 14497
(0.0177561 0.00378506 0.00367413) 14555
(0.0182458 0.00378949 0.00367361) 14556
(0.0187506 0.00378443 0.00367978) 14557
(0.0175718 0.00500689 0.00438463) 14855
(0.0180557 0.00500987 0.0043771) 14856
(0.0178001 0.00637876 0.0031346) 15275
(0.0183 0.00637591 0.00313191) 15276
(0.0187879 0.00638503 0.00313126) 15277
(0.0261932 0.00597278 0.00169718) 6052
(0.0278648 0.00636874 0.00199554) 13495
(0.0185292 0.00454905 0.000819344) 13237
(0.0186041 0.00516152 0.000482936) 7837
(0.0206699 0.00503532 0.000438601) 7841
(0.0166331 0.00271796 0.00337718) 31825
(0.0218532 0.00296513 0.0033937) 33265
(0.0186121 0.00665834 0.00137953) 6817
(0.0213745 0.00656779 0.00140187) 6822
(0.0177702 0.00637263 0.00290298) 13535
(0.0182718 0.00637088 0.00290191) 13536
(0.0187552 0.00638122 0.00289809) 13537
(0.0174561 0.00578691 0.00190564) 13774
(0.0176362 0.00442094 0.00176604) 14075
(0.0180941 0.0044239 0.00176685) 14076
(0.017672 0.00421859 0.00188199) 14135
(0.0181337 0.00422265 0.00188107) 14136
(0.0185978 0.00421874 0.00187311) 14137
(0.0177445 0.00368904 0.00346576) 14495
(0.0182504 0.00369585 0.00346552) 14496
(0.0187657 0.00369026 0.00346664) 14497
(0.0177329 0.00378452 0.00367442) 14555
(0.0182217 0.00378939 0.00367359) 14556
(0.018726 0.00378472 0.00367952) 14557
(0.0175487 0.00500674 0.00438523) 14855
(0.0180322 0.00500966 0.00437737) 14856
(0.0177762 0.00637922 0.00313479) 15275
(0.0182762 0.00637586 0.00313201) 15276
(0.0187654 0.00638445 0.00313127) 15277
(0.0260732 0.00597082 0.00169675) 6052
(0.0278281 0.00634707 0.00197613) 13495
(0.018468 0.00455588 0.000817022) 11556
(0.0185132 0.00516651 0.000482889) 7837
(0.0206488 0.00504625 0.000445025) 7841
(0.0217324 0.00296182 0.00338853) 33265
(0.0184918 0.00666129 0.00137359) 2556
(0.0212089 0.00657366 0.00139847) 6822
(0.0177461 0.0063731 0.0029029) 13535
(0.018248 0.00637078 0.00290202) 13536
(0.0187329 0.00638063 0.00289827) 13537
(0.0174335 0.00578724 0.00190528) 13774
(0.0176136 0.00442069 0.00176566) 14075
(0.0180714 0.00442383 0.00176689) 14076
(0.0185288 0.00442258 0.00175825) 14077
(0.0176496 0.00421811 0.00188179) 14135
(0.0181109 0.00422252 0.00188118) 14136
(0.0185753 0.00421894 0.00187354) 14137
(0.0177207 0.00368834 0.00346585) 14495
(0.0182259 0.0036957 0.00346556) 14496
(0.0187411 0.00369061 0.00346661) 14497
(0.0177098 0.00378397 0.00367472) 14555
(0.0181977 0.00378927 0.0036736) 14556
(0.0187015 0.00378501 0.00367927) 14557
(0.0175257 0.00500661 0.00438583) 14855
(0.0180087 0.00500946 0.00437766) 14856
(0.0177524 0.0063797 0.00313498) 15275
(0.0182523 0.00637583 0.00313212) 15276
(0.0187428 0.00638389 0.00313127) 15277
(0.0259454 0.00597017 0.00169683) 6051
(0.0277911 0.00632538 0.00195563) 13495
(0.0184056 0.00456259 0.000814625) 11556
(0.0184208 0.00517164 0.000482735) 7836
(0.0206236 0.00505651 0.000451072) 7841
(0.0216079 0.00295801 0.00338339) 33265
(0.0210718 0.00657793 0.00139672) 6822
(0.017722 0.00637359 0.00290282) 13535
(0.0182242 0.0063707 0.00290213) 13536
(0.0187105 0.00638005 0.00289846) 13537
(0.0174109 0.00578758 0.00190493) 13774
(0.0175911 0.00442043 0.00176526) 14075
(0.0180486 0.00442375 0.00176691) 14076
(0.0185066 0.00442271 0.00175872) 14077
(0.0176273 0.00421762 0.00188158) 14135
(0.0180881 0.00422236 0.00188127) 14136
(0.0185527 0.00421913 0.00187396) 14137
(0.0176969 0.00368763 0.00346594) 14495