/*--------------------------------*- C++ -*----------------------------------*\
| =========                 |                                                 |
| \\      /  F ield         | OpenFOAM: The Open Source CFD Toolbox           |
|  \\    /   O peration     | Version:  2.1.1                                 |
|   \\  /    A nd           | Web:      www.OpenFOAM.org                      |
|    \\/     M anipulation  |                                                 |
\*---------------------------------------------------------------------------*/
FoamFile
{
    version     2.0;
    format      ascii;
    class       scalarField;
    location    "0.0014";
    object      T;
}
// * * * * * * * * * * * * * * * * * * * * * * * * * * * * * * * * * * * * * //


44454
(
633.409
591.967
585.938
580.065
574.39
568.779
563.178
557.6
552.212
546.931
542.07
537.831
534.459
531.746
529.744
528.699
528.387
644.688
635.812
626.941
618.189
609.494
600.71
592.033
583.45
575.008
566.814
558.959
551.453
543.976
536.627
529.4
522.236
515.123
508.384
717.01
502.256
707.303
805.35
496.605
697.349
798.743
491.488
687.136
791.205
487.132
676.946
782.443
483.455
666.531
773.491
480.947
655.857
762.744
645.124
752.349
634.402
738.76
3.91153e+180
727.767
4.72822e+222
716.356
602.36
701.861
591.84
581.452
571.12
560.871
841.891
550.901
836.616
541.174
831.093
532.006
3.91153e+180
523.35
779.529
819.999
514.603
770.434
814.039
506.066
760.768
808.231
497.705
750.839
802.466
489.322
740.58
796.39
481.307
729.939
790.092
473.544
718.904
783.706
466.322
707.579
775.844
3.91153e+180
695.963
766.951
453.481
683.888
755.547
449.979
3.91153e+180
742.423
659.465
727.74
647.06
710.648
634.451
850.172
690.912
1.19354e+190
852.265
671.658
864.323
608.88
2.06697e+161
648.677
860.284
596.364
855.63
621.687
2.06685e+161
584.31
2.06697e+161
851.103
2.06697e+161
857.852
845.827
560.084
858.518
840.173
548.148
831.142
858.886
834.13
536.708
823.371
858.939
6.75387e+87
525.418
2.06697e+161
858.558
821.913
514.709
806.283
857.686
815.364
504.715
797.162
6.75387e+87
9.09155e+223
2.06697e+161
787.639
854.475
802.71
485.14
777.503
796.4
475.462
766.697
790.33
466.131
755.486
785.553
456.756
743.879
844.713
780.381
447.784
731.764
6.75387e+87
774.907
439.662
719.084
848.647
769.74
433.956
4.2695e+257
813.344
850.16
762.33
894.913
692.63
2.06697e+161
851.388
9.09155e+223
4.2695e+257
678.593
816.555
852.468
741.642
887.063
664.299
817.816
853.409
728.817
882.88
650.163
818.81
854.147
711.139
878.467
4.2695e+257
819.503
9.09155e+223
9.09155e+223
873.794
620.858
819.872
854.487
666.783
868.715
637.111
606.031
884.393
819.962
854.06
640.084
863.469
770.047
636.606
722.913
591.515
9.09155e+223
819.712
853.396
614.941
857.671
769.571
636.03
721.439
577.66
870.718
819.09
852.591
851.379
769.673
660.17
635.373
719.884
563.697
863.719
818.079
851.616
828.83
844.606
770.409
658.985
634.681
604.91
718.283
549.73
2.06697e+161
816.66
9.09155e+223
831.301
837.531
771.895
657.833
633.95
604.821
716.634
693.461
536.141
849.165
9.09155e+223
849.026
833.478
830.352
770.343
656.715
647.624
633.201
604.734
714.967
693.093
523.19
841.123
812.402
9.09155e+223
835.536
822.769
768.12
655.62
645.974
632.411
604.644
713.293
692.719
2.06697e+161
832.535
9.09155e+223
845.054
837.517
814.983
765.608
654.551
644.394
631.652
604.571
711.594
692.279
2.06697e+161
823.49
9.09155e+223
9.09155e+223
807.445
763.166
653.526
642.889
630.924
604.52
709.869
691.76
2.06697e+161
813.908
801.513
841.048
799.521
761.205
652.56
641.449
630.164
604.458
708.112
691.171
476.521
803.72
796.643
842.505
791.611
759.596
651.63
640.052
788.276
629.384
604.377
575.129
706.32
690.514
640.768
465.607
9.09155e+223
791.186
843.695
784.263
963.643
757.98
650.729
638.719
785.533
628.566
604.278
574.949
704.492
689.806
665.564
639.655
634.25
455.017
9.09155e+223
785.198
810.098
844.582
777.9
955.845
756.342
649.872
637.44
642.779
782.773
627.737
604.161
574.793
702.628
689.053
655.809
664.003
670.354
638.553
632.447
444.455
770.306
778.703
811.888
845.162
771.091
948.371
754.548
649.043
636.21
640.523
779.986
799.918
626.885
604.011
574.634
700.723
688.239
656.094
662.419
669.079
637.466
630.709
434.777
757.763
9.09155e+223
813.5
845.45
765.273
941.211
752.601
648.237
635.018
638.367
777.187
797.747
625.994
603.832
574.479
698.786
687.379
656.347
660.814
667.777
636.401
629.036
426.377
9.09155e+223
815.029
845.429
760.521
934.402
750.708
808.574
647.463
633.869
636.288
774.372
795.556
625.083
603.633
574.348
696.836
686.474
656.564
659.185
666.444
635.366
627.435
422.757
731.232
816.48
845.073
755.172
927.878
749.201
808.366
646.723
632.754
634.307
771.535
793.331
624.131
603.4
574.255
694.871
685.518
656.746
657.553
665.101
634.367
625.914
716.927
9.09155e+223
844.335
751.199
921.628
747.781
807.843
646.02
631.672
632.379
768.669
791.08
623.13
603.144
574.19
692.894
684.514
656.903
655.926
663.751
633.416
624.471
9.09155e+223
818.816
843.214
745.224
915.613
746.417
806.997
645.346
630.622
630.52
792.765
765.767
788.786
622.079
602.861
574.149
690.905
683.454
657.014
654.315
662.403
632.518
623.098
686.894
9.09155e+223
1.49258e+195
737.982
909.81
745.203
806.084
644.703
629.602
628.707
764.7
790.507
762.815
786.468
620.958
602.558
574.131
688.899
682.344
657.075
652.734
661.055
631.666
621.8
635.08
670.976
931.097
820.179
839.644
9.09155e+223
3.94662e+180
9.09155e+223
743.947
805.28
644.094
628.609
626.953
762.27
788.286
759.804
784.131
801.409
619.764
602.244
574.135
686.892
681.175
657.071
651.188
659.704
630.867
620.578
632.239
654.988
926.005
9.09155e+223
9.09155e+223
828.012
713.826
898.206
742.593
804.892
643.497
627.637
625.24
759.836
786.206
756.76
781.765
799.195
618.464
601.879
574.14
684.886
679.937
656.984
649.678
658.346
630.133
619.418
629.519
638.865
920.835
9.09155e+223
834.612
831.551
700.792
892.267
740.961
805.123
642.876
626.676
623.558
757.435
784.05
753.692
779.382
797.015
616.944
601.458
574.142
682.857
678.617
656.812
648.209
656.983
629.465
618.316
626.926
622.264
913.99
819.747
831.435
834.989
687.61
886.2
739.165
806.156
642.18
625.716
621.896
564.845
755.125
781.856
750.598
777.004
794.865
615.286
600.922
574.133
680.741
677.217
656.542
646.785
655.613
628.798
617.26
624.431
605.608
906.769
818.794
827.737
838.437
667.375
879.761
737.205
805.584
641.433
624.762
620.255
563.511
752.861
779.625
747.535
774.619
792.735
613.671
600.353
574.073
678.557
675.771
656.22
645.411
654.233
628.022
616.19
621.996
589.143
899.062
9.09155e+223
816.137
841.739
872.831
735.321
803.421
640.66
623.827
618.652
562.197
750.616
777.382
806.38
744.506
772.221
790.627
612.102
599.743
574.013
676.36
674.274
655.851
644.086
652.843
627.249
615.134
619.662
573.302
9.09155e+223
815.481
818.786
844.756
865.413
800.729
639.88
622.912
617.102
560.911
748.369
775.131
803.661
741.503
769.803
788.542
610.59
599.104
573.953
674.238
672.78
655.473
642.814
651.449
626.456
614.092
617.412
557.431
9.09155e+223
9.09155e+223
813.762
847.427
857.608
797.934
639.06
622.019
615.592
559.659
746.105
772.877
800.984
738.514
767.366
786.465
609.213
598.429
573.898
672.162
671.27
655.085
641.6
650.042
625.653
613.061
615.246
541.612
9.09155e+223
801.35
810.11
808.322
849.724
849.266
794.896
638.22
621.145
614.158
558.44
743.808
770.622
798.359
735.533
764.907
784.395
607.983
597.792
573.872
670.066
669.732
654.676
640.443
648.624
624.836
612.04
613.18
526.448
865.997
796.347
806.427
802.337
851.789
840.479
791.851
637.47
620.324
612.784
557.259
741.501
768.363
795.804
732.554
762.426
782.339
606.843
597.172
573.839
667.948
668.164
654.211
639.349
647.193
611.065
611.202
511.765
857.394
790.562
801.963
795.652
853.687
831.257
1077.64
788.963
636.784
619.552
611.463
556.106
766.116
793.312
729.582
759.92
780.292
605.748
596.525
573.801
665.794
666.563
653.683
638.318
645.75
610.093
609.291
497.462
848.74
783.246
796.661
788.198
855.388
822.076
1069.83
786.022
636.117
618.813
610.192
554.97
763.879
790.878
726.622
757.387
778.244
604.683
595.857
573.734
663.589
664.931
653.104
637.349
644.295
609.108
607.444
9.09155e+223
839.413
774.205
790.503
780.217
856.841
812.09
1061.19
783.069
635.399
618.096
608.984
553.838
761.655
788.51
723.666
754.835
776.193
603.658
595.143
573.651
661.393
663.27
652.48
636.437
642.825
608.118
605.673
472.29
829.561
764.617
9.09155e+223
834.579
771.692
858.034
802.073
1051.88
779.867
839.883
634.656
617.406
607.826
552.692
759.444
786.198
720.715
752.266
774.149
602.683
594.39
573.54
659.19
661.578
651.812
635.579
641.343
607.126
603.976
460.08
819.189
755.11
775.767
835.945
763.644
858.84
792.677
1041.96
776.335
842.438
633.905
616.74
606.708
551.486
757.259
783.946
717.785
749.677
772.114
601.708
593.592
573.407
656.992
659.854
651.088
634.766
639.848
606.145
602.342
448.191
808.204
745.332
767.25
837.175
757.103
859.241
783.596
1031.52
772.526
844.392
633.111
616.099
605.622
755.098
781.78
714.868
747.065
770.064
600.805
592.733
573.256
654.809
658.102
650.324
633.989
638.335
605.182
600.783
2.06697e+161
796.653
736.89
678.393
758.022
838.275
750.395
859.238
774.346
1020.8
768.58
845.831
632.306
615.482
604.573
752.964
779.72
711.98
744.427
768.004
600.015
591.799
573.082
652.661
656.321
649.514
636.809
604.233
599.29
425.919
2.06697e+161
9.09155e+223
678.697
748.155
839.308
858.919
766.396
1009.9
764.535
846.888
631.505
614.886
603.561
750.819
777.55
709.11
741.76
765.925
599.326
590.752
572.899
650.559
654.513
648.663
635.288
603.314
597.868
2.06697e+161
771.806
720.117
678.773
737.761
840.295
858.259
759.027
999.026
760.462
847.658
630.688
614.312
602.587
748.56
775.379
706.264
739.058
763.818
598.747
589.596
572.699
648.513
652.686
647.762
633.771
602.426
596.522
757.928
9.09155e+223
678.592
909.626
909.626
909.626
726.93
841.209
857.175
823.269
752.13
988.397
756.104
848.315
613.762
601.648
746.195
773.228
703.429
736.311
761.681
598.283
588.411
572.487
646.524
650.85
646.813
632.277
601.576
595.245
743.474
678.152
910.64
2.06697e+161
910.64
9.09155e+223
841.57
855.675
827.552
748.071
978.201
751.508
848.933
613.243
600.736
743.825
771.123
700.6
733.504
759.53
597.94
587.219
572.257
644.606
649
645.817
630.815
600.763
594.04
2.06697e+161
969.086
677.444
911.527
911.527
911.527
842.713
853.631
831.667
743.523
968.363
746.53
849.748
612.733
599.853
741.438
769.144
697.776
730.648
757.363
597.738
586.023
572.007
642.785
647.134
644.768
629.386
599.992
592.902
712.228
9.09155e+223
9.09155e+223
912.286
912.286
912.286
843.193
851.003
836.156
739.497
958.956
741.367
850.831
612.23
598.991
739.073
767.15
694.952
727.764
755.18
597.675
584.815
571.722
641.067
645.23
643.657
627.994
599.277
591.82
2.06697e+161
958.745
675.183
912.901
912.901
912.901
843.415
847.88
841.171
733.954
950.031
736.101
851.185
611.71
598.14
736.774
765.115
692.113
724.85
753.005
597.709
583.571
571.372
639.41
643.272
642.471
626.644
598.627
590.794
678.242
2.06697e+161
9.09155e+223
4.2695e+257
913.317
913.317
843.338
844.505
846.632
723.182
941.45
730.429
850.45
611.109
597.294
734.509
763.058
689.334
721.954
750.83
597.736
582.242
570.906
637.741
641.231
641.222
625.329
597.969
589.812
660.519
9.09155e+223
835.25
671.824
913.53
913.53
913.53
842.932
840.76
852.437
713.344
933.129
724.377
849.308
610.434
596.447
732.268
760.983
719.087
748.642
597.823
580.937
570.396
636.065
639.151
639.93
624.061
597.216
588.819
642.856
9.09155e+223
9.09155e+223
669.699
913.568
913.568
913.568
842.135
836.472
858.246
704.086
924.956
717.926
847.613
609.733
595.626
730.043
758.89
716.238
746.437
598.004
579.678
569.839
634.426
637.071
638.612
622.843
596.46
587.844
2.06697e+161
936.274
9.09155e+223
667.237
9.09155e+223
913.297
913.297
840.909
831.421
863.808
690.828
916.79
711.407
845.604
609.003
594.822
727.814
756.791
713.404
744.199
598.24
578.457
569.246
632.941
635.038
637.283
621.673
595.694
586.876
606.724
930.221
833.615
664.495
912.562
912.562
912.562
950.762
839.193
825.807
868.898
680.466
908.377
705.092
843.348
608.244
594.03
725.558
754.688
710.573
741.94
598.632
577.327
568.655
631.633
633.038
635.924
620.554
594.908
585.921
588.725
923.112
831.726
9.09155e+223
3.94662e+180
9.09155e+223
911.385
945.358
836.934
819.801
873.438
899.671
1166.7
698.889
841.185
607.517
593.261
723.28
752.573
707.737
739.662
599.14
576.301
568.094
630.484
631.038
634.531
619.49
594.095
584.976
571.656
9.09155e+223
829.297
909.841
909.841
909.841
938.225
834.009
813.448
877.351
890.753
1164.68
692.738
838.888
606.852
592.561
720.99
750.46
704.898
737.361
599.693
575.341
567.503
629.424
629.015
633.1
618.481
593.342
584.06
2.06697e+161
906.338
9.09155e+223
908.03
908.03
908.03
911.847
911.847
911.847
929.76
830.396
806.366
880.557
881.341
1162.07
686.926
836.539
606.213
591.913
718.689
748.349
702.064
735.026
600.248
574.412
566.864
628.394
626.972
631.624
617.527
592.635
583.147
537.554
897.28
2.06697e+161
905.888
9.09155e+223
905.888
914.328
914.328
914.328
920.061
825.937
798.395
883.249
871.554
1158.8
682.119
833.9
605.533
591.3
716.401
746.246
699.233
732.67
600.818
573.512
566.184
627.402
624.922
630.108
616.628
591.898
582.22
521.329
9.09155e+223
815.908
903.178
903.178
903.178
916.666
916.666
916.666
909.124
820.552
789.756
885.647
861.268
1154.8
677.075
830.881
867.063
604.797
590.712
714.137
744.152
696.406
730.288
601.397
572.632
565.45
626.449
622.853
628.556
615.78
591.125
581.279
505.241
878.322
809.766
918.717
918.717
918.717
897.219
814.2
878.159
780.39
887.742
850.804
1150.03
827.695
872.136
604.053
590.143
711.899
742.069
693.586
727.887
601.992
571.765
564.682
625.542
620.796
626.968
614.976
590.329
580.337
627.702
2.06697e+161
801.899
9.09155e+223
920.356
920.356
920.356
884.588
806.863
879.56
770.258
889.515
839.603
1144.4
824.208
876.633
603.271
589.592
709.675
739.999
690.767
725.465
602.606
570.93
563.862
624.687
618.743
625.346
614.215
589.515
579.396
475.512
859.214
792.485
706.129
921.375
921.375
921.375
870.992
798.478
880.918
759.262
890.994
829.166
1137.88
820.259
880.529
602.477
589.055
707.482
737.946
687.954
723.023
603.256
570.155
563.002
623.887
616.711
623.698
613.491
588.692
578.464
462.221
9.09155e+223
782.204
706.248
922.014
922.014
922.014
856.5
789.04
882.116
749.377
892.166
872.663
1130.36
815.952
883.833
601.687
588.528
705.313
735.876
685.17
720.559
603.979
569.462
562.104
874.895
874.895
874.895
623.169
614.716
622.024
612.815
587.86
577.546
981.251
983.903
448.669
9.09155e+223
770.891
706.095
922.219
922.219
922.219
841.477
778.69
883.187
739.842
892.839
806.506
1121.78
811.329
886.677
600.878
588.021
703.137
733.725
682.417
718.051
604.775
568.851
561.187
876.294
876.294
876.294
622.554
612.77
620.328
612.192
587.034
576.652
980.904
985.197
2.06697e+161
827.961
9.09155e+223
705.684
922.165
922.165
922.165
826.007
767.521
884.202
730.185
892.876
795.907
1112.1
806.378
889.181
600.101
587.535
700.952
731.451
679.694
715.501
605.639
568.325
560.246
877.673
877.673
877.673
622.049
610.882
618.612
706.915
611.623
586.229
575.793
657.653
812.081
980.491
986.871
2.06697e+161
816.33
747.517
704.964
922.107
922.107
922.107
810.096
755.581
885.183
720.474
892.28
786.856
1101.4
801.04
891.476
599.336
587.06
594.596
698.75
729.137
676.994
712.893
876.147
876.147
876.147
606.582
567.898
559.285
879.024
879.024
879.024
621.652
609.054
616.875
706.945
611.1
585.449
574.967
662.103
817.603
980.246
988.973
2.06697e+161
803.963
1019.51
735.375
703.853
922.081
922.081
922.081
793.925
742.927
886.091
710.561
891.191
837.085
777.293
1089.62
795.17
893.814
598.587
586.59
831.292
595.079
702.933
696.515
726.814
674.316
710.209
707.332
877.912
877.912
877.912
607.62
567.586
558.324
880.343
880.343
880.343
621.371
607.276
615.123
706.917
610.62
584.698
574.175
666.938
823.473
980.616
991.5
1065.01
791.19
1013.45
9.09155e+223
702.368
922.078
922.078
922.078
729.681
886.899
700.398
889.681
843.601
769.087
1077.07
788.929
896.282
597.856
586.14
833.47
595.581
703.899
694.235
724.517
671.649
707.488
708.881
693.178
879.635
879.635
879.635
608.678
567.385
557.359
881.632
881.632
881.632
782.971
621.209
605.566
613.359
706.845
610.192
935.311
583.979
573.42
671.509
829.334
1641.08
1414.55
981.416
994.864
1064.25
777.388
1007.29
708.36
700.515
921.763
921.763
921.763
715.837
887.548
887.843
850.889
762.177
1063.93
782.385
897.89
597.048
585.68
835.517
596.09
704.841
692.002
722.281
668.97
704.734
710.361
694.641
881.278
881.278
881.278
609.679
567.269
556.386
882.87
882.87
882.87
785.476
621.149
603.948
611.572
706.731
609.817
935.433
583.311
572.693
1115.09
675.948
835.931
2029.47
1653.49
1415.78
982.689
1000.51
1064.63
1333.62
762.524
1000.98
693.708
862.309
698.313
920.974
920.974
920.974
701.558
888.037
886.031
859.111
756.851
1050.61
775.444
898.508
596.168
585.175
837.556
596.602
705.784
689.9
720.082
666.311
701.984
711.795
696.101
882.832
882.832
882.832
610.635
567.229
555.383
884.039
884.039
884.039
787.956
683.737
621.156
602.414
609.748
706.584
609.494
935.515
582.621
572.025
1200.44
1149.41
1112.61
680.911
844.856
2015.41
1662.73
1417.1
983.984
894.451
1067.42
1364.99
1233.21
1333.64
746.946
994.612
864.382
695.795
919.713
919.713
919.713
687.016
888.344
883.72
867.884
752.155
1037.33
768.058
898.35
595.203
584.581
839.618
597.124
706.758
687.894
717.911
801.175
801.175
801.175
663.713
699.274
713.188
697.55
884.295
884.295
884.295
611.614
567.213
554.324
885.161
885.161
885.161
790.391
686.207
621.193
600.915
607.84
706.406
609.22
935.572
581.867
571.343
1209.01
1148.53
1109.9
1999.25
1673.9
1418.69
2586.14
2516.28
897.566
1074.36
1350.18
1548.67
1335.37
730.595
988.499
866.147
2.06697e+161
918.102
918.102
918.102
985.675
672.17
888.377
880.478
876.864
747.828
1024.3
760.149
897.9
594.112
583.911
841.627
597.657
707.752
685.958
715.762
803.231
803.231
803.231
661.194
696.584
714.523
699.007
885.684
885.684
885.684
612.612
567.275
553.283
886.229
886.229
886.229
792.768
688.74
621.305
599.426
605.911
706.163
608.99
935.623
581.036
570.582
1239.67
1148.76
1107.97
1687.17
1419.88
2657.62
2575.38
901.587
1085.99
1328.28
1441.24
1323.18
713.096
982.376
867.536
689.752
916.326
916.326
916.326
984.96
888.106
876.618
885.548
741.434
1011.71
751.562
896.859
592.91
583.181
843.569
598.204
708.772
684.081
713.615
805.283
805.283
805.283
658.774
693.901
715.808
700.474
887.006
887.006
887.006
613.636
567.413
552.267
887.248
887.248
887.248
795.088
691.323
621.509
597.985
603.993
705.863
678.792
608.801
935.663
580.193
569.807
1237.62
1146.68
1106.54
1700.01
1423.44
2653.29
2613.17
905.724
1336.72
1333.16
694.806
9.09155e+223
868.389
686.219
764.647
914.459
914.459
914.459
920.515
920.515
920.515
983.39
887.486
708.787
872.166
893.698
729.818
999.665
742.443
895.537
591.732
582.407
845.441
598.779
568.123
709.816
682.265
711.461
807.33
807.33
807.33
656.442
691.222
717.048
670.208
701.961
888.264
888.264
888.264
793.491
614.688
567.603
551.259
888.222
888.222
888.222
797.349
693.941
621.801
596.656
602.114
705.51
679.613
608.651
935.698
579.352
569.015
1249.98
1145.93
1103.37
1055.62
1715.26
1425.32
2635.13
2622.47
909.817
1056.81
1334.16
1333.22
675.849
969.729
868.709
682.451
764.327
912.263
912.263
912.263
925.742
925.742
925.742
980.84
886.479
707.958
867.676
901.277
717.569
988.077
1210.91
733.064
893.902
590.708
581.591
847.221
599.385
568.34
710.88
680.503
709.291
809.371
809.371
809.371
654.182
688.539
718.277
673.145
703.471
889.461
889.461
889.461
796.186
615.764
567.911
550.339
889.157
889.157
889.157
799.553
696.587
622.179
595.484
600.239
705.104
680.353
608.534
935.728
578.509
568.205
1253.46
1145.29
1102.18
1051.57
1730.68
1426.88
2587.93
913.982
924.826
1338.2
1332.77
656.679
9.09155e+223
868.266
678.488
763.547
909.506
909.506
909.506
930.235
930.235
930.235
977.539
885.036
706.978
863.063
908.222
705.559
976.977
1212.62
723.765
892.079
589.792
580.817
848.893
788.404
600.027
568.571
711.965
678.785
707.1
811.412
811.412
811.412
651.994
685.853
719.539
676.073
704.986
890.606
890.606
890.606
798.806
616.909
568.321
549.494
890.056
890.056
890.056
801.698
699.254
622.637
594.441
598.351
704.678
681.052
608.45
935.736
577.663
567.391
1265.76
1144.85
1101.28
1049.05
1745.83
1428.79
1286.25
2504.3
915.376
921.157
1333.9
1332.24
637.336
9.09155e+223
867.242
674.17
762.261
906.237
906.237
906.237
934.146
934.146
934.146
973.339
883.133
706.351
857.29
914.396
692.698
966.262
1214.16
714.277
890.308
588.958
580.066
850.451
791.479
600.701
568.816
713.077
706.747
677.107
704.895
813.441
813.441
813.441
649.88
683.151
720.849
678.983
706.498
891.705
891.705
891.705
801.356
618.073
568.757
548.694
890.917
890.917
890.917
803.782
701.927
623.191
593.457
596.453
704.258
681.729
608.399
935.72
576.868
566.628
1274.04
1144.53
1100.33
1048.55
1758.12
1432.69
1283.56
1999.34
1989.32
2244.7
2676.63
2449.19
917.69
925.111
1333.1
1330.93
9.09155e+223
950.434
865.507
669.252
760.469
902.5
902.5
902.5
937.449
937.449
937.449
968.091
880.711
705.792
850.784
919.84
677.703
955.702
1215.43
704.995
888.153
588.189
579.33
851.889
794.588
601.405
569.076
714.214
707.392
675.462
702.692
815.449
815.449
815.449
647.841
680.437
722.207
681.86
708.013
892.763
892.763
892.763
803.838
694.578
619.157
569.201
547.89
891.748
891.748
891.748
805.807
704.599
623.801
592.499
594.535
703.846
682.383
608.366
935.695
576.108
565.887
1281.77
1144.07
1099.91
1048.81
1768.12
1438.76
1282.05
1983.17
1984.93
2173.33
2749.23
1972.74
2414.75
1910.9
921.741
927.387
1335
1333.93
1318.91
598.156
943.505
863.057
663.723
757.982
898.392
898.392
898.392
940.271
940.271
940.271
961.753
2333.99
877.703
704.26
843.733
924.507
945.315
1216.33
695.77
885.635
882.645
587.476
578.597
853.209
797.718
602.133
569.348
715.381
708.092
673.857
700.511
817.472
817.472
817.472
737.396
645.861
677.7
723.597
684.684
709.533
659.533
893.782
893.782
893.782
806.251
697.495
620.172
569.648
547.098
892.545
892.545
892.545
807.776
707.237
624.474
591.572
592.611
703.447
683.017
790.814
608.355
935.672
651.928
575.402
565.094
1291.33
1143.22
1098.88
1049.27
1774.76
1444.99
1280.92
1967.91
1971.54
2080.62
2782.57
2053.99
2397.22
1978.04
926.796
930.613
1334.15
1335.81
1264.97
579.774
936.746
860.055
657.717
754.307
894.008
894.008
894.008
942.601
942.601
942.601
956.042
954.17
874.128
701.572
836.814
928.366
913.414
934.833
1216.78
687.361
882.74
890.891
586.766
577.841
854.462
800.862
602.891
569.632
716.587
708.856
671.81
672.304
698.344
819.503
819.503
819.503
739.711
643.944
674.971
724.984
687.469
711.051
661.129
894.72
894.72
894.72
808.556
700.43
621.147
570.095
546.338
893.283
893.283
893.283
809.663
709.844
625.225
590.684
590.685
703.066
683.635
790.733
608.363
935.638
651.739
574.719
564.27
1293.56
1141.21
1097.79
1048.59
1778.4
1451.64
1280.17
1968.96
2012.38
2664.46
2118.3
2413.62
2119.63
936.928
935.142
1330.64
1347.9
1234.27
561.45
9.09155e+223
855.917
651.294
731.914
750.211
889.271
889.271
6.22655e+228
944.04
944.04
944.04
947.636
945.189
869.586
917.292
828.687
931.607
917.232
924.168
1216.74
679.873
879.451
898.26
586.038
577.04
855.696
803.992
603.679
569.926
717.829
709.679
671.976
670.801
696.189
821.518
821.518
821.518
742.056
642.092
672.259
726.37
690.219
712.572
662.758
895.584
895.584
895.584
810.763
703.369
622.082
570.549
545.62
893.967
893.967
893.967
811.466
712.415
626.076
589.844
588.745
702.687
684.203
790.667
608.389
935.608
651.626
574.02
563.416
1290.22
1134.5
1097.07
1047.23
1778.06
1459.5
1279.77
1967.64
1979.37
2530.31
2169.74
2253.82
947.836
937.856
1315.36
1495.64
1238.91
9.09155e+223
920.112
850.715
644.549
732.427
746.022
883.988
883.988
883.988
944.724
944.724
944.724
936.541
934.733
864.302
918.527
819.368
934.333
920.789
913.294
1216.19
672.182
875.809
904.786
585.291
576.219
856.888
807.117
604.512
570.246
719.099
710.565
672.271
669.359
694.049
744.422
643.337
640.313
669.57
727.768
692.934
664.417
896.38
896.38
896.38
812.878
706.306
622.995
571.027
544.951
894.601
894.601
894.601
813.185
714.956
627.044
589.054
586.825
702.302
684.713
790.617
608.428
935.572
651.546
573.304
562.551
1951.34
1117.58
1095.65
1046.59
1777.06
1467.17
1279.72
1966.92
1945.66
2483.47
2203.02
944.142
1283.16
1616.58
1240.74
525.907
911.045
9.09155e+223
637.694
732.729
741.411
878.043
878.043
878.043
944.764
944.764
944.764
925.217
922.623
858.124
919.7
809.435
936.593
924.056
902.272
1214.94
665.474
871.836
910.727
584.532
575.385
858.04
810.231
605.405
570.594
720.375
711.512
672.738
667.958
691.92
746.797
643.598
638.593
666.907
729.178
695.624
666.101
897.115
897.115
897.115
814.907
709.221
623.902
571.546
544.327
895.187
895.187
895.187
814.824
717.468
628.146
588.322
584.92
701.917
685.166
790.57
608.489
935.536
651.456
572.593
561.679
1979.85
1101.71
1094.45
1045.99
1775.75
1476.55
1279.71
1957.2
1911.12
1843.84
2524.08
2278.91
949.132
1257.2
1600.15
1241.58
2.06697e+161
901.488
9.09155e+223
630.884
732.811
736.171
871.413
871.413
871.413
944.605
944.605
944.605
914.194
908.92
851.009
920.797
798.914
938.396
927.061
890.428
1212.91
657.786
867.416
916.117
583.777
574.52
859.153
813.329
606.348
570.973
721.674
712.512
673.352
666.61
689.792
749.186
687.711
643.994
636.952
664.265
730.603
698.293
667.811
897.78
897.78
897.78
816.839
712.147
624.853
572.125
543.756
895.718
895.718
895.718
816.382
719.946
629.383
587.659
583.057
701.528
685.571
790.527
608.589
935.492
651.37
617.414
571.888
560.802
2007.07
1108.65
1093.18
1045.36
1773.35
1484.98
1279.64
1955.9
1890
1911.88
2278.21
957.336
1241.68
1390.45
1241.93
492.771
891.97
829.604
623.935
732.668
729.393
864.026
864.026
864.026
944.514
944.514
944.514
901.327
893.864
842.937
921.788
787.837
939.697
929.906
878.065
1209.97
650.067
862.6
920.959
583.048
573.673
860.238
816.405
607.338
571.38
548.239
723.004
713.558
717.882
674.101
665.321
687.656
751.613
689.836
644.519
635.397
661.644
732.04
700.952
669.545
898.425
898.425
898.425
818.731
715.105
625.867
572.765
543.247
896.205
896.205
896.205
817.855
722.398
630.805
587.096
581.229
701.14
685.932
790.492
608.722
808.517
651.297
617.091
571.197
559.938
2039.41
1122.54
1091.91
1044.66
1767.52
1490.26
1279.76
1953.62
1869.5
1926.32
2366.6
2637.51
1259.11
967.618
1230.97
1308.33
1241.36
478.335
882.352
9.09155e+223
732.3
721.167
855.908
855.908
855.908
945.325
944.544
944.544
886.645
877.213
833.919
922.665
776.941
940.492
932.354
866.041
1206.04
857.413
925.337
582.356
572.822
861.289
819.455
608.381
571.818
548.294
724.328
714.66
720.803
674.984
664.089
685.517
754.103
692.088
645.163
633.912
659.038
733.492
703.599
660.22
671.304
899.084
899.084
899.084
820.598
718.093
626.968
573.482
542.814
896.682
896.682
896.682
819.296
724.864
632.419
586.632
579.453
700.754
686.252
651.694
790.469
638.801
608.889
810.151
651.244
616.781
570.522
559.08
2066.39
1125.5
1090.53
1043.98
1761.73
1496.79
1280.22
1937.03
1849.96
1959.51
2452.34
2604.47
1252.65
979.907
1222.5
1286.83
1240.25
464.328
872.892
811.131
731.711
713.136
847.051
847.051
847.051
944.724
944.724
944.724
871.3
858.985
823.954
923.463
766.139
940.899
934.358
853.204
1201.21
851.833
929.364
581.708
571.978
862.27
822.48
609.464
572.29
548.389
725.675
715.814
723.856
676.007
662.92
683.361
756.656
694.461
645.921
632.505
656.447
734.957
706.233
664.616
673.085
899.755
899.755
899.755
822.444
721.108
628.169
574.287
542.473
897.149
897.149
897.149
820.714
727.339
634.214
586.275
577.742
700.372
686.533
653.242
790.462
639.839
609.096
811.762
651.212
616.504
589.97
569.877
558.242
1912.14
2109.55
1123.07
1088.2
1042.75
1754.47
1506.51
1281.04
1920.22
1832.7
1986.87
2533.24
2530.81
1246.68
989.946
1215.72
1258.76
1235.51
2.06697e+161
863.318
3.94662e+180
800.417
730.9
837.403
837.403
837.403
944.639
944.639
944.639
839.971
813.096
924.224
755.285
941.046
935.938
840.631
1195.45
845.873
933.211
597.568
581.061
571.162
825.488
610.603
572.811
548.529
534.06
727.061
717.017
727.038
677.171
661.814
681.147
759.277
696.939
646.791
631.171
653.866
736.435
708.869
669.057
674.892
824.27
724.154
629.507
575.19
542.219
897.605
897.605
897.605
822.113
729.824
636.187
586.031
576.101
700.002
686.774
654.759
790.476
750.262
640.919
609.34
813.37
616.265
589.536
569.268
557.43
1853.08
2081.49
1126.73
1086.79
1040.48
1745.22
1517.4
1282.29
1903.2
1827.89
2003.45
2469.27
1240.65
1001.74
1210.03
1257.25
1236.75
438.396
852.85
1067.25
788.483
878.283
729.87
826.927
826.927
826.927
944.074
944.074
944.074
820.284
801.37
924.952
744.307
940.662
859.434
937.162
829.317
1188.75
839.627
936.563
597.087
580.373
570.335
828.466
781.856
611.806
573.378
548.709
534.025
718.266
730.367
678.485
660.75
678.951
761.928
699.511
647.767
629.915
651.288
711.512
673.552
676.726
826.077
727.232
630.984
576.116
542.066
898.058
898.058
898.058
823.497
732.319
638.325
585.905
574.562
699.648
686.979
656.241
790.511
750.952
642.037
609.623
814.969
616.07
589.141
568.686
556.653
1834.95
2103.83
1129.28
1085.3
1038.45
1527.55
1283.8
1886.22
1824.29
1990.64
1683.68
2453.81
1849.66
1235.65
1205.05
1257.15
1233.99
429.376
9.09155e+223
1059.85
775.688
881.502
728.626
943.076
943.076
943.076
799.87
788.875
925.645
733.145
939.562
869.508
938.042
817.52
1181.04
833.056
939.089
596.599
579.647
569.461
831.401
785.677
573.986
548.928
533.998
719.57
718.958
733.844
679.963
659.748
676.853
764.571
702.173
648.842
628.733
648.701
714.165
678.093
678.583
827.848
730.286
632.57
576.999
542.012
824.871
734.826
640.616
585.886
573.133
699.309
687.15
657.699
790.577
751.581
643.197
609.95
816.567
615.931
588.804
568.112
555.92
1833.21
1133.21
1083.31
1036.43
1536.68
1285.45
1876.51
1820.8
1946.71
2801.07
1724.46
2437.05
1834.36
1231.39
1257.7
1234.01
2.06697e+161
1052.28
9.09155e+223
884.726
727.166
941.82
941.82
941.82
779.109
775.538
926.27
721.751
937.939
880.714
938.648
808.264
1172.22
826.096
940.739
596.109
578.881
568.464
834.282
789.579
574.63
549.175
533.976
720.925
719.94
737.482
681.646
658.852
674.85
767.197
704.944
650.036
627.623
646.155
716.832
682.667
680.462
829.558
733.29
634.303
577.853
542.022
826.238
737.343
643.047
585.941
571.776
698.988
687.289
659.133
790.681
752.156
644.394
610.337
818.161
615.862
588.467
567.51
555.16
1867.1
1138.9
1081.03
1034.56
1544.77
1287.33