/*--------------------------------*- C++ -*----------------------------------*\
| =========                 |                                                 |
| \\      /  F ield         | OpenFOAM: The Open Source CFD Toolbox           |
|  \\    /   O peration     | Version:  2.1.1                                 |
|   \\  /    A nd           | Web:      www.OpenFOAM.org                      |
|    \\/     M anipulation  |                                                 |
\*---------------------------------------------------------------------------*/
FoamFile
{
    version     2.0;
    format      ascii;
    class       vectorField;
    location    "0.0014";
    object      U;
}
// * * * * * * * * * * * * * * * * * * * * * * * * * * * * * * * * * * * * * //


44454
(
(-0.616652 -0.0255863 0.0224361)
(22.6023 -1.36963 -1.26154)
(22.5571 -1.37909 -1.23454)
(22.5159 -1.37695 -1.1963)
(22.4759 -1.36348 -1.15479)
(22.4295 -1.34245 -1.11061)
(22.3728 -1.3118 -1.0643)
(22.3347 -1.26781 -1.01316)
(22.2768 -1.218 -0.967731)
(22.1989 -1.15905 -0.915567)
(22.1218 -1.08802 -0.849465)
(22.088 -1.00233 -0.762675)
(22.0441 -0.924125 -0.681486)
(21.9707 -0.851923 -0.609266)
(21.8901 -0.7827 -0.542262)
(21.8768 -0.707888 -0.468102)
(21.7713 -0.658967 -0.431813)
(22.9833 -1.12349 -1.22761)
(22.9487 -1.14902 -1.2375)
(22.9126 -1.17785 -1.2509)
(22.8685 -1.21134 -1.2605)
(22.8184 -1.24813 -1.26967)
(22.7704 -1.28355 -1.28479)
(22.722 -1.31385 -1.29512)
(22.6699 -1.34334 -1.30285)
(22.6123 -1.37109 -1.30555)
(22.5517 -1.39248 -1.29535)
(22.4945 -1.40399 -1.27152)
(22.4523 -1.39425 -1.22379)
(22.4084 -1.3714 -1.16256)
(22.3534 -1.33578 -1.09658)
(22.3138 -1.28431 -1.02401)
(22.2521 -1.22282 -0.956821)
(22.1665 -1.1509 -0.890859)
(22.0838 -1.06619 -0.811994)
(23.2804 -0.898254 -1.15248)
(22.0749 -0.969563 -0.711994)
(23.2495 -0.917472 -1.16057)
(8.8849 -0.363285 0.409373)
(21.9827 -0.893373 -0.637478)
(23.2185 -0.937201 -1.16709)
(8.67393 -0.368939 0.410814)
(21.8765 -0.819465 -0.56763)
(23.1868 -0.959068 -1.17449)
(8.45399 -0.374365 0.412853)
(21.8669 -0.732146 -0.480797)
(23.1533 -0.989454 -1.18406)
(8.21121 -0.380677 0.41597)
(21.7338 -0.680732 -0.445346)
(23.1164 -1.02354 -1.19457)
(7.93664 -0.38764 0.420545)
(21.5317 -0.634108 -0.426378)
(23.0802 -1.05098 -1.20387)
(7.62933 -0.397025 0.42677)
(23.0446 -1.07405 -1.21021)
(7.28323 -0.408539 0.434942)
(23.0085 -1.09845 -1.21827)
(6.90134 -0.423954 0.444642)
(22.9716 -1.12613 -1.22958)
(6.4798 -0.443505 0.456715)
(22.9316 -1.15833 -1.24333)
(6.03101 -0.467004 0.470064)
(22.8788 -1.19909 -1.2527)
(5.57316 -0.494054 0.483727)
(22.8196 -1.24374 -1.26631)
(22.7638 -1.28515 -1.28824)
(22.7027 -1.32459 -1.30842)
(22.6353 -1.36249 -1.32513)
(10.4167 -0.329044 0.43257)
(22.5592 -1.39418 -1.32701)
(10.289 -0.334341 0.427698)
(22.4773 -1.42167 -1.32155)
(10.1539 -0.339959 0.423522)
(22.408 -1.43023 -1.3005)
(10.0053 -0.346265 0.420337)
(22.3486 -1.41458 -1.24431)
(23.4236 -0.727621 -1.03036)
(9.84977 -0.353025 0.417611)
(22.2945 -1.37096 -1.15324)
(23.4184 -0.73853 -1.04368)
(9.6828 -0.360293 0.415532)
(22.2402 -1.30668 -1.05615)
(23.4097 -0.753086 -1.06051)
(9.50609 -0.367584 0.414061)
(22.1689 -1.2225 -0.954393)
(23.3996 -0.776816 -1.07805)
(9.31953 -0.375156 0.413217)
(22.0612 -1.12445 -0.85321)
(23.3833 -0.802698 -1.09692)
(9.12485 -0.382872 0.412821)
(22.0568 -1.00954 -0.736979)
(23.3622 -0.827946 -1.11486)
(8.91811 -0.390358 0.412948)
(21.9301 -0.922136 -0.654218)
(23.3324 -0.85046 -1.12901)
(8.70178 -0.397066 0.413427)
(21.7891 -0.838334 -0.578092)
(23.2978 -0.870969 -1.13831)
(8.47718 -0.403762 0.414254)
(21.757 -0.739312 -0.484423)
(23.2633 -0.89272 -1.14631)
(8.22532 -0.410724 0.416315)
(21.5125 -0.688256 -0.464679)
(23.2304 -0.915828 -1.15677)
(7.94112 -0.419059 0.419877)
(21.3066 -0.605053 -0.415142)
(23.1938 -0.944471 -1.16745)
(7.62033 -0.429093 0.425086)
(23.1527 -0.986314 -1.17975)
(7.26138 -0.44084 0.432299)
(23.1112 -1.02478 -1.19195)
(6.85954 -0.455578 0.44145)
(23.0706 -1.0556 -1.20328)
(6.5721 -0.443944 -0.341863)
(6.42671 -0.474557 0.452479)
(23.03 -1.08549 -1.21513)
(6.52917 -0.435362 -0.345329)
(5.95342 -0.498846 0.466605)
(11.1405 -0.313406 0.483317)
(22.9862 -1.11912 -1.23046)
(6.48296 -0.427055 -0.348968)
(5.47486 -0.526816 0.481072)
(11.0377 -0.317365 0.475388)
(22.9351 -1.16197 -1.24778)
(6.4341 -0.418995 -0.352684)
(5.01585 -0.557956 0.495013)
(10.9292 -0.321672 0.467738)
(22.8651 -1.21671 -1.26143)
(6.3829 -0.411156 -0.356467)
(10.8138 -0.326515 0.460397)
(22.7947 -1.27215 -1.28981)
(6.32914 -0.403552 -0.360338)
(10.6904 -0.331956 0.453394)
(22.7231 -1.32062 -1.31902)
(6.27307 -0.396171 -0.364294)
(10.5589 -0.337994 0.446835)
(22.6399 -1.36866 -1.34683)
(23.4096 -0.515798 -0.926147)
(6.21477 -0.388992 -0.368344)
(10.4204 -0.344566 0.44078)
(22.5409 -1.40947 -1.35266)
(23.42 -0.554718 -0.935376)
(6.1541 -0.382044 -0.372488)
(10.2712 -0.351706 0.435642)
(22.4331 -1.44945 -1.36198)
(23.4273 -0.585442 -0.946466)
(6.09027 -0.375297 -0.376745)
(10.1131 -0.359846 0.431279)
(22.3347 -1.46834 -1.35352)
(23.4332 -0.613344 -0.956156)
(6.02274 -0.368714 -0.381138)
(9.94698 -0.368655 0.427452)
(22.2469 -1.45532 -1.30034)
(23.438 -0.63807 -0.968225)
(5.95203 -0.362227 -0.385672)
(9.76924 -0.378197 0.424315)
(22.1833 -1.39357 -1.1824)
(23.4394 -0.658177 -0.981094)
(5.87745 -0.355848 -0.390331)
(9.58388 -0.387656 0.421762)
(22.1119 -1.29712 -1.04862)
(23.4379 -0.674507 -0.995784)
(9.39033 -0.397867 0.419706)
(21.9983 -1.1747 -0.904976)
(23.4306 -0.688054 -1.01503)
(9.18995 -0.407938 0.418002)
(21.9701 -1.03257 -0.750513)
(23.4237 -0.712987 -1.03695)
(8.9776 -0.417076 0.416817)
(21.783 -0.932053 -0.658748)
(23.4143 -0.747079 -1.06308)
(7.19369 -0.374325 -0.877219)
(8.75745 -0.426242 0.415779)
(21.7108 -0.807965 -0.54064)
(23.3963 -0.784824 -1.09095)
(7.12445 -0.369305 -0.876127)
(8.52808 -0.434273 0.414742)
(21.4562 -0.739335 -0.504022)
(23.3667 -0.817462 -1.1141)
(7.05081 -0.364485 -0.875404)
(8.26996 -0.441665 0.414661)
(21.1612 -0.647887 -0.457545)
(23.3291 -0.845117 -1.1295)
(6.98844 -0.493304 -0.361019)
(6.97363 -0.35976 -0.874988)
(7.98369 -0.450503 0.415531)
(11.945 -0.289817 0.556588)
(23.2903 -0.871877 -1.14352)
(6.94929 -0.484027 -0.363934)
(6.89163 -0.355168 -0.875019)
(7.65416 -0.459804 0.418003)
(11.8487 -0.293103 0.547008)
(23.2497 -0.900252 -1.15779)
(6.90685 -0.475128 -0.366848)
(6.80523 -0.350788 -0.875276)
(7.28571 -0.472097 0.422338)
(11.75 -0.296355 0.537606)
(23.2081 -0.934286 -1.17135)
(6.86111 -0.466564 -0.369794)
(6.71488 -0.346555 -0.875704)
(6.86389 -0.486488 0.429337)
(11.6484 -0.299821 0.528279)
(23.1605 -0.98687 -1.18814)
(6.81264 -0.458242 -0.372782)
(6.62089 -0.342441 -0.876314)
(6.39783 -0.506607 0.439022)
(11.5422 -0.303639 0.519078)
(23.1131 -1.03595 -1.2086)
(6.76133 -0.450187 -0.375828)
(6.52311 -0.338299 -0.877172)
(5.90455 -0.531856 0.451375)
(11.4315 -0.307744 0.509996)
(23.0657 -1.07383 -1.22624)
(6.70738 -0.442386 -0.37894)
(6.42252 -0.333977 -0.878247)
(5.38846 -0.56324 0.466573)
(11.3152 -0.312331 0.500992)
(22.7115 0.038472 0.0423082)
(23.0148 -1.11192 -1.24411)
(23.27 0.0904948 -0.638898)
(6.65297 -0.434735 -0.381723)
(6.32128 -0.329402 -0.879137)
(4.91647 -0.595858 0.480985)
(11.1923 -0.317339 0.49242)
(10.9696 -0.248529 -0.788518)
(22.7089 0.0384922 0.0421222)
(22.7236 0.0386414 0.0117359)
(22.9579 -1.15983 -1.26636)
(23.2874 0.00560249 -0.689444)
(6.5966 -0.427164 -0.384622)
(6.21641 -0.324673 -0.880223)
(4.53518 -0.625916 0.492234)
(11.064 -0.322948 0.483828)
(10.6569 -0.220321 -0.794911)
(22.7063 0.0384619 0.0419231)
(22.7212 0.0387503 0.0117622)
(22.8769 -1.22704 -1.28694)
(23.2885 -0.0626783 -0.738786)
(6.53779 -0.419761 -0.387628)
(6.10826 -0.319884 -0.881448)
(10.927 -0.329357 0.475399)
(10.3097 -0.187236 -0.801469)
(22.7617 -0.066038 0.0502486)
(22.7037 0.0383874 0.041713)
(22.7187 0.038821 0.011816)
(22.7925 -1.29444 -1.32213)
(23.2903 -0.130225 -0.780251)
(6.47704 -0.412472 -0.39076)
(5.99769 -0.31493 -0.882801)
(8.27131 -0.42359 -0.929546)
(10.7846 -0.336442 0.467166)
(9.9253 -0.147901 -0.807862)
(22.7596 -0.0662858 0.0504124)
(22.7012 0.0382749 0.0414972)
(22.7538 0.0335549 0.0443624)
(22.7163 0.0388565 0.0118937)
(22.7058 -1.35125 -1.35874)
(23.298 -0.201372 -0.815352)
(6.41429 -0.405302 -0.394023)
(5.88438 -0.309731 -0.884304)
(8.25531 -0.413103 -0.923431)
(10.6355 -0.344114 0.459283)
(9.5085 -0.10207 -0.813813)
(22.7574 -0.0665049 0.0505777)
(22.6987 0.0381245 0.0412758)
(22.7511 0.0339901 0.0443109)
(22.7139 0.0388561 0.0119952)
(22.7604 0.0327867 0.0143913)
(22.6034 -1.4065 -1.39031)
(23.3152 -0.275371 -0.844748)
(6.34952 -0.398228 -0.397436)
(5.76887 -0.304186 -0.885943)
(8.22498 -0.404347 -0.918562)
(10.4757 -0.352726 0.452259)
(9.21293 -0.0817419 -0.818703)
(22.7553 -0.0666933 0.050743)
(22.7954 -0.058494 0.0479224)
(22.6962 0.0379368 0.0410482)
(22.7483 0.0344116 0.0442497)
(22.7114 0.0388224 0.0121189)
(22.7579 0.0333048 0.0141538)
(22.4753 -1.45493 -1.39471)
(23.3458 -0.356133 -0.865742)
(6.28198 -0.391241 -0.401015)
(5.64986 -0.298228 -0.887754)
(8.19057 -0.396245 -0.914037)
(10.3092 -0.3623 0.44589)
(9.00368 -0.0714531 -0.821923)
(22.7531 -0.0668496 0.0509073)
(22.7936 -0.0589765 0.0480043)
(22.6937 0.0377105 0.0408132)
(22.7455 0.0348188 0.0441784)
(22.709 0.0387579 0.0122595)
(22.7555 0.0338211 0.0139181)
(22.3458 -1.49897 -1.41419)
(23.3924 -0.442994 -0.882461)
(6.21131 -0.384325 -0.404772)
(5.52773 -0.291898 -0.889662)
(8.15231 -0.388751 -0.909791)
(10.1316 -0.37318 0.440335)
(8.81681 -0.0631542 -0.824719)
(22.7509 -0.0669723 0.0510695)
(22.7918 -0.0594611 0.0480913)
(22.6913 0.0374502 0.0405795)
(22.7427 0.035213 0.0440976)
(22.7067 0.0386613 0.0124138)
(22.7531 0.0343314 0.0136843)
(22.2207 -1.51375 -1.39882)
(23.4193 -0.506149 -0.898271)
(6.13798 -0.377419 -0.408711)
(8.11015 -0.381822 -0.905825)
(9.94923 -0.384242 0.435421)
(8.64545 -0.0546808 -0.826747)
(22.7488 -0.0670632 0.0512288)
(22.79 -0.0599483 0.0481828)
(22.6889 0.0371616 0.0403528)
(22.74 0.0356006 0.0440071)
(22.7044 0.0385311 0.0125791)
(22.7508 0.0348331 0.0134505)
(22.1118 -1.47902 -1.31341)
(23.4305 -0.548011 -0.916146)
(6.06142 -0.370553 -0.41284)
(8.06352 -0.375464 -0.902194)
(9.75739 -0.39632 0.431198)
(8.50687 -0.0460288 -0.826902)
(22.7466 -0.067125 0.0513846)
(22.7882 -0.0604376 0.048279)
(22.6866 0.036846 0.0401326)
(22.7372 0.0359825 0.0439065)
(22.7021 0.0383652 0.0127522)
(22.7484 0.0353238 0.0132133)
(22.0362 -1.37549 -1.15491)
(23.439 -0.5841 -0.932633)
(5.98168 -0.363713 -0.417146)
(8.01235 -0.36958 -0.898949)
(9.55846 -0.409079 0.427531)
(8.38489 -0.0376327 -0.826263)
(22.7444 -0.0671569 0.0515359)
(22.7863 -0.0609266 0.0483812)
(22.6989 0.0419795 0.0905041)
(22.6844 0.0365027 0.0399173)
(22.7346 0.0363591 0.0437956)
(22.7876 0.0260694 0.0441607)
(22.6999 0.0381605 0.0129301)
(22.7461 0.0357995 0.0129707)
(22.7416 -0.0653407 0.0303439)
(21.9165 -1.23148 -0.973601)
(23.4437 -0.613307 -0.950893)
(5.89864 -0.35689 -0.421643)
(7.95627 -0.364152 -0.896136)
(9.34979 -0.42224 0.424594)
(12.9284 -0.239717 0.64354)
(8.26113 -0.0294042 -0.825966)
(22.7423 -0.0671583 0.0516818)
(22.7845 -0.0614129 0.0484906)
(22.6971 0.0415144 0.0904894)
(22.6823 0.0361306 0.0397064)
(22.732 0.03673 0.0436729)
(22.7852 0.0266391 0.0442566)
(22.6978 0.037914 0.01311)
(22.7439 0.0362561 0.0127194)
(22.563 0.00826389 -0.0130065)
(22.7392 -0.0651686 0.0306766)
(22.7889 -0.0629023 0.0250921)
(21.8312 -1.06693 -0.785143)
(23.4446 -0.636939 -0.969535)
(5.81226 -0.350041 -0.426297)
(7.47979 -0.519019 -0.384347)
(7.89474 -0.359126 -0.893773)
(9.13199 -0.434336 0.42208)
(12.8283 -0.246072 0.633023)
(8.13567 -0.0213387 -0.82594)
(22.7402 -0.0671282 0.0518218)
(22.7826 -0.0618958 0.0486084)
(22.8147 -0.051712 0.0472096)
(22.6953 0.0410193 0.0904433)
(22.6804 0.0357301 0.039501)
(22.7296 0.0370947 0.0435391)
(22.7829 0.0272268 0.0443333)
(22.6958 0.037622 0.0132887)
(22.7418 0.036688 0.0124565)
(22.7859 0.0257901 0.0185869)
(22.5608 0.00817455 -0.0121997)
(22.6076 0.00923954 -0.0233423)
(22.7368 -0.0649708 0.0310007)
(22.7867 -0.0632541 0.0252037)
(21.594 -0.942955 -0.669966)
(23.4403 -0.655345 -0.993454)
(5.72226 -0.343152 -0.431089)
(7.44676 -0.508875 -0.386342)
(7.82763 -0.354546 -0.891829)
(8.91311 -0.444887 0.419102)
(12.7251 -0.25214 0.622714)
(8.0111 -0.0137654 -0.826158)
(22.7382 -0.067065 0.0519552)
(22.7808 -0.0623736 0.0487355)
(22.8136 -0.0521561 0.0472316)
(22.6935 0.0404939 0.0903672)
(22.7312 0.0477451 0.0869044)
(22.6786 0.0352999 0.0392996)
(22.7272 0.0374538 0.0433951)
(22.7806 0.0278331 0.0443899)
(22.694 0.0372774 0.0134551)
(22.7398 0.0370852 0.0121731)
(22.7842 0.0263412 0.018135)
(22.5586 0.00808255 -0.0113743)
(22.605 0.00927321 -0.0232128)
(22.7345 -0.0647497 0.0313103)
(22.7846 -0.0635976 0.0253182)
(21.5058 -0.80498 -0.545472)
(23.4331 -0.680726 -1.0204)
(5.62814 -0.336234 -0.436051)
(7.41248 -0.499086 -0.388343)
(7.75469 -0.350459 -0.890259)
(8.68222 -0.453678 0.416039)
(12.6192 -0.257941 0.612605)
(7.8864 -0.00646236 -0.82664)
(22.7361 -0.0669672 0.0520813)
(22.7789 -0.0628438 0.0488734)
(22.8124 -0.0526103 0.0472623)
(22.6916 0.0399387 0.0902623)
(22.7291 0.0476366 0.0872348)
(22.6771 0.0348404 0.0391003)
(22.7251 0.0378088 0.0432427)
(22.7784 0.0284592 0.0444241)
(22.6922 0.0368927 0.0136432)
(22.7378 0.0374581 0.0119095)
(22.7825 0.0269044 0.0176722)
(22.5564 0.00798772 -0.0105339)
(22.6024 0.00929896 -0.0230425)
(22.7324 -0.0645084 0.0315995)
(22.7825 -0.0639344 0.0254328)
(21.051 -0.741073 -0.540301)
(23.4254 -0.718642 -1.05164)
(7.3751 -0.489681 -0.390325)
(7.67543 -0.346854 -0.889068)
(8.42386 -0.461892 0.413571)
(12.5074 -0.263771 0.602706)
(7.76052 0.000489013 -0.827432)
(12.3134 -0.315007 -0.807492)
(22.7342 -0.0668333 0.0521989)
(22.7771 -0.0633014 0.0490252)
(22.8111 -0.0530769 0.0472927)
(22.6898 0.039354 0.0901297)
(22.727 0.0475055 0.0875475)
(22.6755 0.034345 0.0389074)
(22.7231 0.038149 0.0430866)
(22.7763 0.0291101 0.0444314)
(22.6903 0.036478 0.0138722)
(22.7356 0.0378076 0.011686)
(22.7807 0.0274944 0.0172351)
(22.5543 0.00788987 -0.00968236)
(22.5998 0.00931685 -0.0228309)
(22.7304 -0.0642542 0.0318532)
(22.7805 -0.0642714 0.0255388)
(20.504 -0.652006 -0.520022)
(23.4096 -0.767559 -1.08821)
(7.33393 -0.480652 -0.392304)
(7.59015 -0.343706 -0.888234)
(8.13092 -0.471657 0.412055)
(12.3941 -0.269279 0.593013)
(7.6313 0.00733098 -0.828604)
(12.164 -0.311878 -0.812811)
(22.7323 -0.0666598 0.0523074)
(22.7753 -0.0637471 0.0491792)
(22.8098 -0.0535554 0.0473231)
(22.688 0.0387407 0.0899705)
(22.7249 0.0473511 0.0878424)
(22.6738 0.0338152 0.0387215)
(22.7209 0.0384358 0.0429346)
(22.7741 0.0297525 0.0444298)
(22.6883 0.0360331 0.014138)
(22.7334 0.038129 0.0115014)
(22.7787 0.0281015 0.0168225)
(22.5521 0.0077874 -0.00882562)
(22.5973 0.00932712 -0.0225801)
(22.7284 -0.0639733 0.0321055)
(22.7784 -0.0645847 0.0256618)
(23.3773 -0.80959 -1.11926)
(7.28896 -0.472064 -0.394272)
(7.49953 -0.340828 -0.887755)
(7.7925 -0.481282 0.412043)
(12.2789 -0.274514 0.583483)
(7.50256 0.0143529 -0.830019)
(11.9827 -0.304763 -0.81858)
(22.7303 -0.0664454 0.0524063)
(22.7733 -0.064178 0.0493339)
(22.8084 -0.0540418 0.0473562)
(22.6862 0.0380995 0.0897857)
(22.7228 0.0471732 0.0881196)
(22.6721 0.0332521 0.0385389)
(22.7186 0.038669 0.0427826)
(22.7718 0.0303725 0.0444246)
(22.6863 0.0355576 0.0144378)
(22.7311 0.0384178 0.0113547)
(22.7766 0.0287174 0.016434)
(22.55 0.00767973 -0.00796759)
(22.5947 0.00933002 -0.0222914)
(22.7263 -0.0636582 0.0323815)
(22.7763 -0.06486 0.0258142)
(23.3359 -0.844367 -1.14074)
(7.24034 -0.463824 -0.396264)
(7.40378 -0.338002 -0.887657)
(7.40508 -0.494994 0.414034)
(12.1589 -0.279693 0.57415)
(7.37331 0.0214233 -0.831742)
(11.7709 -0.29292 -0.824628)
(22.7283 -0.0661897 0.0524954)
(22.7714 -0.0645913 0.0494897)
(22.8069 -0.0545355 0.047392)
(22.7086 0.0272299 0.101053)
(22.6844 0.0374318 0.0895758)
(22.7206 0.0469712 0.0883789)
(22.6703 0.0326569 0.038356)
(22.7161 0.0388486 0.0426274)
(22.7694 0.0309695 0.0444155)
(22.6842 0.0350519 0.0147675)
(22.7288 0.0386707 0.011245)
(22.7745 0.0293345 0.0160695)
(22.5479 0.00756573 -0.00711297)
(22.5922 0.00932571 -0.0219666)
(22.7242 -0.0633106 0.0326774)
(22.774 -0.0651 0.0259934)
(23.2918 -0.876054 -1.1596)
(7.18847 -0.455866 -0.398296)
(7.30362 -0.335099 -0.887901)
(6.9614 -0.51064 0.418695)
(12.036 -0.284688 0.565)
(7.24163 0.0286892 -0.833878)
(11.5274 -0.27671 -0.831125)
(22.7262 -0.0658929 0.0525745)
(22.7693 -0.0649839 0.0496475)
(22.8055 -0.0550331 0.0474326)
(22.6745 0.0240421 0.0984372)
(22.7066 0.0272744 0.101167)
(22.6826 0.0367386 0.0893415)
(22.7185 0.0467493 0.0886199)
(22.6684 0.0320314 0.0381707)
(22.7136 0.0389737 0.0424676)
(22.7669 0.0315435 0.0444023)
(22.6822 0.0345164 0.0151226)
(22.7264 0.0388859 0.0111712)
(22.7723 0.0299466 0.0157266)
(22.5457 0.00744381 -0.00626645)
(22.5897 0.0093139 -0.0216058)
(22.7219 -0.0629324 0.0329897)
(22.7717 -0.0653069 0.026197)
(22.8153 -0.0572555 0.0238657)
(23.245 -0.910383 -1.17777)
(21.4462 1.15804 -0.538716)
(7.13331 -0.448188 -0.400379)
(7.19936 -0.3321 -0.888434)
(8.86604 -0.470934 -0.988268)
(6.45938 -0.531899 0.426513)
(11.9123 -0.289637 0.555882)
(7.10695 0.0359655 -0.836572)
(11.2509 -0.255458 -0.837542)
(22.7242 -0.0655551 0.0526437)
(22.7673 -0.065353 0.049808)
(22.8039 -0.0555334 0.0474777)
(22.673 0.0237639 0.0980075)
(22.7046 0.0273028 0.10126)
(22.6809 0.036023 0.0890838)
(22.7163 0.0465073 0.0888414)
(22.7522 0.0484216 0.0802743)
(22.6665 0.0313753 0.0379787)
(22.7111 0.0390452 0.0422996)
(22.7643 0.0320947 0.0443849)
(22.6801 0.0339528 0.0154983)
(22.724 0.0390622 0.0111326)
(22.77 0.0305478 0.0154045)
(22.5436 0.00731291 -0.00543064)
(22.5872 0.00929426 -0.0212091)
(22.7197 -0.0625253 0.0333151)
(22.7693 -0.0654827 0.0264229)
(22.8135 -0.0577549 0.0238419)
(23.1968 -0.960179 -1.1981)
(21.8844 1.04258 -0.556174)
(7.07502 -0.440752 -0.402535)
(7.09101 -0.329201 -0.889155)
(8.90864 -0.452398 -0.97799)
(5.92607 -0.560303 0.437984)
(11.783 -0.294839 0.546877)
(6.96678 0.0432155 -0.840039)
(10.9411 -0.22863 -0.843796)
(22.7222 -0.065177 0.0527027)
(22.7652 -0.0656958 0.0499712)
(22.8024 -0.0560338 0.0475295)
(22.6714 0.023474 0.0975537)
(22.7026 0.0273133 0.101331)
(22.6792 0.0352904 0.0888037)
(22.7142 0.0462443 0.0890425)
(22.7503 0.0484598 0.0807752)
(22.6646 0.0306873 0.0377774)
(22.7085 0.0390635 0.0421204)
(22.7616 0.0326206 0.0443653)
(22.678 0.0333625 0.0158896)
(22.7215 0.0391999 0.0111281)
(22.7677 0.0311335 0.0151024)
(22.5415 0.00717172 -0.00460784)
(22.5847 0.00926641 -0.0207766)
(22.7173 -0.0620909 0.0336503)
(22.7668 -0.0656294 0.0266685)
(22.8116 -0.0582451 0.0238333)
(23.1424 -1.02556 -1.22424)
(22.3296 0.89375 -0.555719)
(7.01393 -0.433522 -0.404771)
(6.97834 -0.326421 -0.890032)
(8.94244 -0.435141 -0.968265)
(5.38014 -0.594341 0.452149)
(11.6501 -0.300227 0.5379)
(6.82165 0.0501694 -0.844373)
(10.5945 -0.195441 -0.850041)
(22.7201 -0.0647594 0.0527512)
(22.763 -0.06601 0.0501372)
(22.8007 -0.0565344 0.0475879)
(22.6699 0.023172 0.0970774)
(22.7006 0.0273046 0.10138)
(22.6775 0.0345423 0.0885007)
(22.7121 0.0459607 0.0892224)
(22.7484 0.0484922 0.081269)
(22.6627 0.0299648 0.0375579)
(22.7059 0.0390313 0.0419284)
(22.7588 0.0331213 0.0443419)
(22.6759 0.0327467 0.0162931)
(22.7191 0.0392964 0.011156)
(22.7653 0.0317008 0.0148184)
(22.5394 0.00701931 -0.00380011)
(22.5823 0.0092298 -0.020309)
(22.715 -0.0616309 0.0339918)
(22.7643 -0.0657485 0.0269319)
(22.8097 -0.0587276 0.0238388)
(23.0884 -1.07738 -1.25139)
(22.653 0.688082 -0.527252)
(6.95047 -0.426443 -0.407094)
(6.86311 -0.32355 -0.891029)
(8.96754 -0.419115 -0.959085)
(4.88117 -0.629437 0.467287)
(11.5115 -0.305892 0.529021)
(6.67026 0.0563862 -0.849667)
(10.2044 -0.155172 -0.85604)
(22.7181 -0.0643026 0.0527886)
(22.7609 -0.0662936 0.0503055)
(22.7991 -0.0570324 0.0476538)
(22.4697 -0.0357205 0.0620439)
(22.6685 0.0228562 0.0965819)
(22.6987 0.0272752 0.10141)
(22.6759 0.0337795 0.0881746)
(22.71 0.0456607 0.0893814)
(22.7465 0.0485191 0.081755)
(22.6608 0.0292122 0.0373227)
(22.7033 0.0389528 0.0417249)
(22.7561 0.0335976 0.0443124)
(22.6738 0.0321067 0.0167055)
(22.7166 0.0393537 0.0112126)
(22.7629 0.03225 0.0145497)
(22.5373 0.00685431 -0.00300909)
(22.5799 0.00918371 -0.0198076)
(22.7127 -0.0611469 0.0343362)
(22.7618 -0.0658412 0.0272107)
(22.8077 -0.0592022 0.0238575)
(23.0321 -1.12053 -1.27332)
(22.9065 0.513072 -0.520772)
(6.88464 -0.41951 -0.40953)
(6.74521 -0.320426 -0.892195)
(8.97403 -0.40544 -0.951158)
(4.51285 -0.659397 0.476199)
(11.366 -0.312167 0.520146)
(6.5122 0.0613626 -0.856096)
(9.87101 -0.128673 -0.861417)
(22.7161 -0.0638103 0.0528138)
(22.7587 -0.0665474 0.0504757)
(22.7974 -0.0575279 0.0477269)
(22.4695 -0.0348893 0.0619257)
(22.667 0.022525 0.0960689)
(22.6968 0.0272235 0.101421)
(22.6742 0.0330095 0.0878266)
(22.7079 0.0453438 0.0895195)
(22.7445 0.0485405 0.0822329)
(22.6589 0.028441 0.0370881)
(22.7007 0.0388358 0.0415152)
(22.7533 0.0340527 0.0442751)
(22.6718 0.0314461 0.0171199)
(22.7142 0.039375 0.0112947)
(22.7605 0.0327892 0.0142906)
(22.5352 0.00667552 -0.00223607)
(22.5775 0.00912731 -0.0192732)
(22.7104 -0.0606405 0.03468)
(22.7592 -0.0659076 0.0275031)
(22.8057 -0.0596681 0.0238879)
(22.9689 -1.17414 -1.29977)
(23.091 0.355476 -0.534679)
(6.8167 -0.412701 -0.412092)
(6.62391 -0.316901 -0.893618)
(8.96728 -0.393473 -0.944309)
(11.2187 -0.318832 0.511227)
(6.34479 0.0649248 -0.863951)
(9.61385 -0.113519 -0.86536)
(22.7141 -0.0632869 0.0528268)
(22.7565 -0.0667717 0.050647)
(22.7956 -0.0580242 0.0478062)
(22.4693 -0.0340804 0.0618425)
(22.6656 0.0221769 0.0955399)
(22.6949 0.027147 0.101414)
(22.7301 0.0257265 0.097293)
(22.6727 0.0322348 0.0874583)
(22.7059 0.0450096 0.0896367)
(22.7426 0.0485566 0.0827017)
(22.657 0.0276522 0.0368548)
(22.6982 0.0386798 0.0412984)
(22.7505 0.0344941 0.0442287)
(22.6697 0.0307686 0.0175321)
(22.7117 0.0393593 0.0114022)
(22.758 0.0333165 0.0140408)
(22.5331 0.00648193 -0.00148183)
(22.5752 0.00905956 -0.0187076)
(22.7081 -0.0601126 0.0350205)
(22.7567 -0.0659461 0.0278072)
(22.8036 -0.0601251 0.0239291)
(22.8765 -1.25456 -1.32894)
(23.2081 0.22318 -0.569516)
(6.74642 -0.406035 -0.414793)
(6.49973 -0.313026 -0.895201)
(8.95381 -0.382411 -0.937834)
(11.0648 -0.326231 0.50239)
(9.41088 -0.102078 -0.867169)
(22.7122 -0.062735 0.0528271)
(22.7543 -0.0669648 0.0508183)
(22.7939 -0.0585193 0.0478915)
(22.4691 -0.0332929 0.061793)
(22.6643 0.02181 0.0949969)
(22.6931 0.0270435 0.101392)
(22.7283 0.0259116 0.097697)
(22.6711 0.0314559 0.0870709)
(22.7039 0.0446574 0.0897337)
(22.7407 0.0485677 0.083161)
(22.6552 0.026847 0.0366237)
(22.6957 0.0384832 0.0410733)
(22.7477 0.0349212 0.0441732)
(22.6677 0.0300775 0.0179388)
(22.7093 0.0393123 0.0115288)
(22.7556 0.0338386 0.0137962)
(22.531 0.00627231 -0.000747281)
(22.5729 0.00897794 -0.018114)
(22.7059 -0.0595645 0.0353567)
(22.7541 -0.065956 0.0281219)
(22.8015 -0.0605722 0.0239812)
(22.7777 -1.33349 -1.37306)
(23.2653 0.10896 -0.618882)
(6.67435 -0.399459 -0.417633)
(6.37181 -0.309079 -0.896895)
(8.9333 -0.372208 -0.931783)
(10.9019 -0.334533 0.493896)
(9.24379 -0.0931951 -0.867987)
(22.7103 -0.0621556 0.0528147)
(22.7521 -0.0671251 0.0509884)
(22.7921 -0.0590138 0.0479823)
(22.469 -0.0325249 0.0617754)
(22.663 0.0214223 0.0944416)
(22.6914 0.0269105 0.101358)
(22.7266 0.0260717 0.0981036)
(22.6696 0.0306729 0.0866661)
(22.7019 0.0442866 0.0898106)
(22.7388 0.048573 0.0836111)
(22.6534 0.0260281 0.0364)
(22.6932 0.0382455 0.0408434)
(22.7449 0.0353336 0.044108)
(22.6657 0.0293729 0.0183372)
(22.7069 0.0392338 0.0116717)
(22.7532 0.0343563 0.013554)
(22.5289 0.00604524 -3.32792e-05)
(22.5706 0.00889265 -0.0174836)
(22.7037 -0.0589972 0.0356879)
(22.7515 -0.0659367 0.0284464)
(22.7994 -0.0610076 0.0240442)
(22.6757 -1.39428 -1.41224)
(23.283 0.0177973 -0.677759)
(7.32914 0.255009 0.125043)
(6.60072 -0.392934 -0.420621)
(6.24119 -0.304823 -0.898729)
(8.90581 -0.362835 -0.926183)
(10.7353 -0.343503 0.485743)
(9.0757 -0.0844408 -0.869199)
(22.7084 -0.0615504 0.052789)
(22.7499 -0.067251 0.0511562)
(22.7903 -0.0595118 0.0480774)
(22.4688 -0.0317748 0.0617881)
(22.6617 0.0210115 0.093876)
(22.6898 0.0267456 0.101314)
(22.7249 0.0262272 0.098487)
(22.6681 0.0298856 0.0862455)
(22.7 0.0438961 0.0898692)
(22.7369 0.0485726 0.0840524)
(22.6517 0.0251966 0.0361876)
(22.6908 0.0379762 0.0406169)
(22.7421 0.0357348 0.0440331)
(22.6638 0.0286546 0.0187237)
(22.7046 0.0391225 0.0118283)
(22.7508 0.0348676 0.0133123)
(22.5268 0.00581076 0.000664977)
(22.5683 0.00880612 -0.0168166)
(22.7015 -0.0584105 0.0360141)
(22.7489 -0.0658869 0.0287797)
(22.7972 -0.0614306 0.0241181)
(22.5471 -1.45518 -1.43953)
(23.282 -0.0603881 -0.73141)
(7.11056 0.273232 0.122054)
(6.52423 -0.386486 -0.423811)
(6.10765 -0.30013 -0.900659)
(8.87382 -0.354075 -0.920955)
(10.5597 -0.353873 0.47802)
(8.93074 -0.075322 -0.869174)
(22.7065 -0.0609273 0.0527499)
(22.7477 -0.0673455 0.051321)
(22.7885 -0.0600112 0.0481769)
(22.4687 -0.0310402 0.0618307)
(22.6605 0.0205758 0.0933021)
(22.6883 0.0265435 0.101267)
(22.723 0.0263801 0.0988421)
(22.6667 0.0290939 0.0858111)
(22.6981 0.0434854 0.0899111)
(22.735 0.048568 0.0844855)
(22.6499 0.0243484 0.0359824)
(22.6884 0.0376788 0.0403962)
(22.7393 0.0361282 0.0439485)
(22.6619 0.0279233 0.0190964)
(22.7023 0.038977 0.0119956)
(22.7484 0.0353692 0.0130697)
(22.5247 0.00556966 0.00134776)
(22.5661 0.00871805 -0.0161152)
(22.7464 -0.0658051 0.0291194)
(22.795 -0.0618405 0.0242022)
(22.3897 -1.513 -1.45378)
(23.2856 -0.140875 -0.776547)
(6.88439 0.291969 0.118861)
(6.44527 -0.380038 -0.427221)
(5.97082 -0.294922 -0.902724)
(8.83719 -0.346007 -0.916146)
(10.379 -0.365163 0.470666)
(14.0214 -0.138919 0.718652)
(8.8081 -0.0661616 -0.867944)
(22.7047 -0.0602893 0.0526968)
(22.7455 -0.0674099 0.051482)
(22.7866 -0.0605111 0.0482816)
(22.4686 -0.0303191 0.0618991)
(22.6867 0.0263379 0.101181)
(22.7212 0.0265288 0.0991706)
(22.6654 0.028297 0.0853649)
(22.6963 0.0430543 0.0899393)
(22.7331 0.0485483 0.0849025)
(22.6483 0.0234811 0.0357833)
(22.6861 0.0373532 0.0401808)
(22.7366 0.0365155 0.0438534)
(22.6601 0.0271766 0.0194535)
(22.7 0.0387951 0.0121705)
(22.7461 0.0358577 0.0128233)
(22.5226 0.00532237 0.00201555)
(22.5639 0.00862811 -0.0153825)
(22.7438 -0.0656913 0.0294626)
(22.7928 -0.0622374 0.0242956)
(22.2374 -1.55448 -1.47327)
(23.2997 -0.224376 -0.814001)
(6.64877 0.311401 0.116132)
(6.36358 -0.373588 -0.430857)
(5.83158 -0.289117 -0.904907)
(8.79573 -0.338664 -0.911714)
(10.1901 -0.377227 0.464038)
(13.9193 -0.146552 0.710224)
(8.69117 -0.0570018 -0.866523)
(22.7029 -0.0596385 0.0526287)
(22.7434 -0.0674433 0.0516381)
(22.7848 -0.0610111 0.0483923)
(22.4685 -0.0296089 0.0619907)
(22.6851 0.0261302 0.101054)
(22.7192 0.0266715 0.0994739)
(22.664 0.0274941 0.0849099)
(22.6945 0.0425997 0.089951)
(22.7312 0.0485105 0.0853012)
(22.6467 0.0225955 0.0355915)
(22.6839 0.0369997 0.0399708)
(22.7339 0.0368963 0.0437477)
(22.6583 0.0264121 0.0197921)
(22.6979 0.0385741 0.0123501)
(22.7438 0.0363296 0.0125708)
(22.5204 0.00506945 0.00266895)
(22.5617 0.00853601 -0.0146213)
(22.7413 -0.0655469 0.0298059)
(22.7906 -0.0626219 0.0243972)
(22.0826 -1.5577 -1.44148)
(23.3313 -0.31941 -0.841275)
(6.40339 0.3315 0.114148)
(6.27937 -0.367116 -0.434723)
(5.68938 -0.282906 -0.907156)
(8.74923 -0.332055 -0.907655)
(9.99415 -0.390507 0.457904)
(13.8109 -0.155343 0.701144)
(8.57057 -0.0482445 -0.865673)
(22.7012 -0.0589753 0.0525444)
(22.7412 -0.0674451 0.0517885)
(22.7829 -0.0615096 0.04851)
(22.4684 -0.0289071 0.0621025)
(22.6835 0.025919 0.100888)
(22.7173 0.0268068 0.0997534)
(22.6628 0.0266854 0.0844526)
(22.6928 0.0421153 0.0899315)
(22.7292 0.0484532 0.0856821)
(22.6452 0.021689 0.0354062)
(22.6819 0.0366167 0.0397654)
(22.7314 0.0372715 0.0436301)
(22.6566 0.0256284 0.0201102)
(22.6958 0.0383113 0.0125316)
(22.7416 0.0367802 0.0123097)
(22.5182 0.00481151 0.00330904)
(22.5595 0.00844163 -0.0138345)
(22.7389 -0.0653738 0.0301448)
(22.7884 -0.0629948 0.0245059)
(21.9594 -1.49279 -1.32356)
(23.3885 -0.423824 -0.86363)
(6.15163 0.35154 0.11269)
(6.19251 -0.360618 -0.438802)
(7.97098 -0.502794 -0.411656)
(5.54527 -0.276139 -0.90942)
(8.6961 -0.326297 -0.904063)
(9.78992 -0.404699 0.452301)
(13.6999 -0.16468 0.691586)
(8.44706 -0.0396357 -0.865176)
(12.616 -0.293463 -0.862426)
(22.6995 -0.0583029 0.0524421)
(22.7391 -0.0674141 0.0519326)
(22.7811 -0.0620033 0.048636)
(22.4683 -0.0282108 0.0622312)
(22.6819 0.0257031 0.100684)
(22.7153 0.0269331 0.10001)
(22.6616 0.0258675 0.0839816)
(22.691 0.041601 0.0898819)
(22.7272 0.0483761 0.0860454)
(22.6438 0.0207586 0.0352264)
(22.68 0.0362044 0.0395646)
(22.7289 0.03764 0.0435007)
(22.655 0.0248213 0.0204059)
(22.6939 0.0380031 0.0127118)
(22.7394 0.0372037 0.0120376)
(22.516 0.00454919 0.00393651)
(22.5573 0.00834485 -0.0130256)
(22.7365 -0.0651743 0.0304749)
(22.7862 -0.0633574 0.0246199)
(21.8484 -1.34386 -1.11599)
(23.4217 -0.496886 -0.886453)
(5.90884 0.367819 0.114431)
(6.10285 -0.354068 -0.44309)
(7.9339 -0.492425 -0.413282)
(5.42245 -0.268255 -0.910794)
(8.63608 -0.321369 -0.900941)
(9.58192 -0.418963 0.447173)
(13.5818 -0.174904 0.681644)
(8.32266 -0.0311318 -0.8649)
(12.5832 -0.297053 -0.859539)
(22.698 -0.0576234 0.0523207)
(22.737 -0.0673493 0.0520697)
(22.7792 -0.0624899 0.0487717)
(22.4682 -0.027519 0.0623729)
(22.6803 0.0254814 0.100446)
(22.7132 0.0270489 0.100245)
(22.6603 0.0250452 0.0834852)
(22.6892 0.0410568 0.0898035)
(22.7252 0.0482784 0.0863914)
(22.6424 0.0197999 0.0350499)
(22.6782 0.0357621 0.0393676)
(22.7265 0.0380008 0.0433637)
(22.6535 0.0239883 0.0206775)
(22.6921 0.0376431 0.0128815)
(22.7374 0.0375911 0.0117486)
(22.5138 0.00428352 0.00455262)
(22.5552 0.00824551 -0.0121981)
(22.7342 -0.0649512 0.0307905)
(22.784 -0.0637111 0.0247369)
(21.7201 -1.15793 -0.88876)
(23.4337 -0.543852 -0.909135)
(5.69207 0.376645 0.121981)
(6.01027 -0.347463 -0.44758)
(7.89686 -0.482324 -0.414941)
(5.30402 -0.259754 -0.912269)
(8.56902 -0.317246 -0.898305)
(9.36186 -0.433672 0.442531)
(13.4588 -0.185483 0.671527)
(8.19754 -0.0227766 -0.864834)
(12.5123 -0.299404 -0.859724)