/*--------------------------------*- C++ -*----------------------------------*\
| =========                 |                                                 |
| \\      /  F ield         | OpenFOAM: The Open Source CFD Toolbox           |
|  \\    /   O peration     | Version:  2.1.1                                 |
|   \\  /    A nd           | Web:      www.OpenFOAM.org                      |
|    \\/     M anipulation  |                                                 |
\*---------------------------------------------------------------------------*/
FoamFile
{
    version     2.0;
    format      ascii;
    class       scalarField;
    location    "0.001";
    object      d;
}
// * * * * * * * * * * * * * * * * * * * * * * * * * * * * * * * * * * * * * //


45757
(
0.0001
5.38156e-05
5.38621e-05
5.3928e-05
5.40102e-05
5.41112e-05
5.42309e-05
5.43699e-05
5.45288e-05
5.47082e-05
5.49086e-05
5.51305e-05
5.53745e-05
5.56409e-05
5.59303e-05
5.62429e-05
5.65791e-05
5.3009e-05
5.29611e-05
5.29259e-05
5.29043e-05
5.28969e-05
5.29044e-05
5.29273e-05
5.29662e-05
5.30218e-05
5.30947e-05
5.31857e-05
5.32954e-05
5.34244e-05
5.35733e-05
5.37429e-05
5.39338e-05
5.41465e-05
5.43817e-05
5.27009e-05
5.46399e-05
5.25888e-05
5.07668e-05
5.49212e-05
5.24871e-05
5.0811e-05
5.52282e-05
5.23972e-05
5.0875e-05
5.55598e-05
5.23187e-05
5.09583e-05
5.59162e-05
5.2252e-05
5.10613e-05
5.62979e-05
5.21976e-05
5.11851e-05
5.21559e-05
5.13302e-05
5.21275e-05
5.14975e-05
5.21131e-05
5.16881e-05
5.21131e-05
5.19027e-05
5.21282e-05
5.21422e-05
5.21592e-05
5.22068e-05
5.22704e-05
5.23519e-05
4.98126e-05
5.24524e-05
4.97144e-05
5.25736e-05
4.9631e-05
5.27151e-05
4.95618e-05
5.28779e-05
5.24464e-05
4.95071e-05
5.30626e-05
5.23003e-05
4.94674e-05
5.32701e-05
5.21637e-05
4.94432e-05
5.35012e-05
5.20367e-05
4.94349e-05
5.37567e-05
5.19198e-05
4.94432e-05
5.40373e-05
5.18131e-05
4.94687e-05
5.43438e-05
5.17171e-05
4.9512e-05
5.46769e-05
5.1632e-05
4.95739e-05
5.50374e-05
5.15585e-05
4.9655e-05
5.5426e-05
5.14968e-05
4.97563e-05
5.58432e-05
5.14476e-05
4.98785e-05
5.14113e-05
5.00226e-05
5.13886e-05
5.01894e-05
5.13802e-05
5.81875e-05
5.038e-05
5.13868e-05
5.80154e-05
5.05954e-05
4.92311e-05
5.14092e-05
5.78558e-05
5.08366e-05
4.907e-05
5.1448e-05
5.77082e-05
5.11041e-05
4.8921e-05
5.15042e-05
5.75732e-05
4.87846e-05
5.15787e-05
5.74509e-05
4.86609e-05
5.16724e-05
5.73413e-05
4.85502e-05
5.17864e-05
5.21687e-05
5.72447e-05
4.84527e-05
5.19216e-05
5.20002e-05
5.71615e-05
4.83688e-05
5.20791e-05
5.18403e-05
5.70981e-05
4.82986e-05
5.22599e-05
5.16894e-05
5.70565e-05
4.82428e-05
5.24651e-05
5.15476e-05
5.7037e-05
4.82017e-05
5.26956e-05
5.14152e-05
5.704e-05
4.81759e-05
5.29524e-05
5.12924e-05
4.81661e-05
5.32365e-05
5.11797e-05
4.81728e-05
5.3549e-05
5.10773e-05
4.81967e-05
5.38908e-05
5.09855e-05
5.22151e-05
4.82386e-05
5.4263e-05
5.0905e-05
5.20005e-05
4.82993e-05
5.46664e-05
5.08362e-05
5.17972e-05
4.83796e-05
5.51018e-05
5.07795e-05
5.76663e-05
5.16055e-05
4.84804e-05
4.8935e-05
5.07357e-05
5.7456e-05
5.14256e-05
4.86027e-05
4.87314e-05
5.07055e-05
5.72568e-05
5.12577e-05
4.87475e-05
4.85353e-05
5.06894e-05
5.70686e-05
5.11019e-05
4.89159e-05
4.83468e-05
5.06882e-05
5.68917e-05
5.09583e-05
4.91089e-05
4.81658e-05
5.07029e-05
5.67262e-05
5.08269e-05
4.93276e-05
4.79943e-05
5.07342e-05
5.65723e-05
5.0708e-05
4.95733e-05
4.78346e-05
4.19051e-05
5.07832e-05
5.21705e-05
5.64303e-05
5.06016e-05
4.98471e-05
4.76868e-05
5.56355e-05
4.19058e-05
4.1921e-05
5.08503e-05
5.19789e-05
5.6299e-05
5.05067e-05
5.01491e-05
4.75506e-05
5.53385e-05
4.19063e-05
4.19216e-05
5.0937e-05
5.17929e-05
5.61799e-05
5.04246e-05
4.74268e-05
5.50504e-05
4.22455e-05
4.19067e-05
4.19223e-05
5.10446e-05
5.16125e-05
5.60729e-05
5.03554e-05
5.3544e-05
4.73157e-05
5.47716e-05
4.22441e-05
4.19071e-05
4.33045e-05
4.1923e-05
5.11741e-05
5.14395e-05
5.59782e-05
5.02991e-05
5.32552e-05
4.72176e-05
5.45026e-05
4.22426e-05
4.19074e-05
4.33044e-05
4.19236e-05
4.34069e-05
5.13266e-05
5.1275e-05
5.58963e-05
5.02568e-05
5.29836e-05
4.71327e-05
5.42436e-05
4.22408e-05
4.36812e-05
4.19077e-05
4.33042e-05
4.19243e-05
4.34079e-05
5.15037e-05
5.11192e-05
5.58333e-05
5.02351e-05
5.27185e-05
4.70617e-05
5.39952e-05
4.22392e-05
4.36792e-05
4.19079e-05
4.33042e-05
4.1925e-05
4.34089e-05
5.17064e-05
5.09723e-05
5.57912e-05
5.02349e-05
5.2458e-05
4.70048e-05
5.3757e-05
4.22374e-05
4.3677e-05
4.19081e-05
4.33042e-05
4.19256e-05
4.34099e-05
5.19359e-05
5.08346e-05
5.57702e-05
5.22033e-05
4.69625e-05
5.35292e-05
4.22356e-05
4.36747e-05
4.19081e-05
4.33042e-05
4.19262e-05
4.34109e-05
5.21934e-05
5.07062e-05
5.57708e-05
5.19557e-05
4.69355e-05
5.33119e-05
4.22336e-05
4.36723e-05
4.19081e-05
4.33043e-05
4.19268e-05
4.34119e-05
5.24804e-05
5.05875e-05
5.57933e-05
5.1716e-05
4.69244e-05
5.31054e-05
4.22316e-05
4.36697e-05
4.21309e-05
4.1908e-05
4.33043e-05
4.46571e-05
4.19274e-05
4.34128e-05
4.16082e-05
5.27977e-05
5.04789e-05
5.58382e-05
5.14855e-05
4.69299e-05
4.88324e-05
5.29098e-05
4.22295e-05
4.3667e-05
4.21301e-05
4.19077e-05
4.33044e-05
4.46556e-05
4.19279e-05
4.34138e-05
4.50964e-05
4.1606e-05
4.30401e-05
5.31463e-05
5.03807e-05
5.59057e-05
5.74061e-05
5.1264e-05
4.69525e-05
4.8596e-05
5.27247e-05
4.22272e-05
4.36642e-05
4.50701e-05
4.21291e-05
4.19073e-05
4.33044e-05
4.46542e-05
4.19283e-05
4.34146e-05
4.47896e-05
4.50969e-05
4.652e-05
4.16037e-05
4.30373e-05
5.35278e-05
5.02935e-05
5.59975e-05
5.71666e-05
5.10528e-05
4.69936e-05
4.83669e-05
5.25512e-05
4.22249e-05
4.36613e-05
4.50673e-05
4.2128e-05
4.35328e-05
4.19069e-05
4.33045e-05
4.46528e-05
4.19287e-05
4.34155e-05
4.479e-05
4.50973e-05
4.6522e-05
4.16013e-05
4.30345e-05
5.39432e-05
5.02177e-05
5.61136e-05
5.69361e-05
5.08517e-05
4.70537e-05
4.8145e-05
5.23889e-05
4.22226e-05
4.36585e-05
4.50644e-05
4.21269e-05
4.35301e-05
4.19064e-05
4.33046e-05
4.46516e-05
4.1929e-05
4.34164e-05
4.47905e-05
4.50976e-05
4.65239e-05
4.1599e-05
4.30317e-05
5.43932e-05
5.01538e-05
5.6715e-05
5.0661e-05
4.71338e-05
4.79303e-05
5.22377e-05
5.67652e-05
4.22201e-05
4.36557e-05
4.50615e-05
4.21256e-05
4.35274e-05
4.19057e-05
4.33047e-05
4.46505e-05
4.19293e-05
4.34173e-05
4.4791e-05
4.50977e-05
4.65258e-05
4.15965e-05
4.3029e-05
5.48789e-05
5.01026e-05
5.65035e-05
5.04809e-05
4.72348e-05
4.77229e-05
5.20979e-05
5.63935e-05
4.22177e-05
4.36528e-05
4.50585e-05
4.21242e-05
4.35246e-05
4.19049e-05
4.33048e-05
4.46495e-05
4.19295e-05
4.34182e-05
4.47916e-05
4.50976e-05
4.65277e-05
4.1594e-05
4.30263e-05
5.00645e-05
5.6302e-05
5.03118e-05
4.73579e-05
4.75228e-05
5.19694e-05
5.60412e-05
4.22151e-05
4.36501e-05
4.50554e-05
4.21227e-05
4.35218e-05
4.1904e-05
4.3305e-05
4.46486e-05
4.19296e-05
4.3419e-05
4.47923e-05
4.50974e-05
4.65295e-05
4.15914e-05
4.30237e-05
5.00404e-05
5.61106e-05
5.01537e-05
4.75042e-05
4.733e-05
5.18523e-05
5.57077e-05
4.22125e-05
4.36473e-05
4.50523e-05
4.36875e-05
4.21211e-05
4.3519e-05
4.19029e-05
4.33052e-05
4.46478e-05
4.19296e-05
4.34198e-05
4.4793e-05
4.5097e-05
4.65312e-05
4.15888e-05
4.30211e-05
5.0031e-05
5.59296e-05
5.00069e-05
4.76748e-05
4.71447e-05
5.17467e-05
5.53924e-05
4.22099e-05
4.36446e-05
4.50491e-05
4.22662e-05
4.36857e-05
4.21194e-05
4.35162e-05
4.19016e-05
4.33054e-05
4.4647e-05
4.19295e-05
4.34207e-05
4.47938e-05
4.50964e-05
4.65329e-05
4.15861e-05
4.30185e-05
4.44228e-05
5.00373e-05
5.20702e-05
5.57595e-05
4.98715e-05
5.44666e-05
4.78711e-05
4.69669e-05
5.16551e-05
5.50896e-05
4.22072e-05
4.3642e-05
4.50459e-05
4.2265e-05
4.36839e-05
4.21175e-05
4.35135e-05
4.48651e-05
4.19001e-05
4.33057e-05
4.46463e-05
4.19293e-05
4.34216e-05
4.47946e-05
4.50957e-05
4.65345e-05
4.15834e-05
4.3016e-05
4.44195e-05
5.00603e-05
5.18671e-05
5.56006e-05
4.97483e-05
5.40827e-05
4.80946e-05
4.67983e-05
5.15817e-05
5.4793e-05
4.22047e-05
4.36396e-05
4.50428e-05
4.22636e-05
4.36822e-05
4.21155e-05
4.35108e-05
4.48599e-05
4.18986e-05
4.33062e-05
4.46458e-05
4.1929e-05
4.34226e-05
4.47955e-05
4.50949e-05
4.65361e-05
4.15808e-05
4.30137e-05
4.44163e-05
5.01008e-05
5.16694e-05
5.54528e-05
4.96367e-05
5.37193e-05
4.83465e-05
4.66411e-05
5.15262e-05
5.45027e-05
4.22022e-05
4.36372e-05
4.50396e-05
4.22622e-05
4.36805e-05
4.21135e-05
4.35083e-05
4.48546e-05
4.18968e-05
4.33067e-05
4.46454e-05
4.19285e-05
4.34237e-05
4.47964e-05
4.50939e-05
4.65377e-05
4.15781e-05
4.30114e-05
4.44131e-05
5.016e-05
5.1477e-05
5.53162e-05
4.95371e-05
5.33753e-05
4.8628e-05
4.64955e-05
5.14889e-05
5.42194e-05
4.21997e-05
4.3635e-05
4.50365e-05
4.83517e-05
4.22606e-05
4.36788e-05
4.21114e-05
4.35057e-05
4.48493e-05
4.18949e-05
4.33072e-05
4.46451e-05
4.19279e-05
4.34247e-05
4.47974e-05
4.50928e-05
4.65391e-05
4.15755e-05
4.30092e-05
4.44099e-05
5.0239e-05
5.12901e-05
5.51909e-05
4.94494e-05
5.30503e-05
4.89407e-05
4.63617e-05
5.14701e-05
5.39437e-05
4.21972e-05
4.36328e-05
4.50334e-05
4.83499e-05
4.22589e-05
4.36772e-05
4.21092e-05
4.35032e-05
4.4844e-05
4.18928e-05
4.33078e-05
4.46448e-05
4.19271e-05
4.34258e-05
4.47984e-05
4.50916e-05
4.65404e-05
4.15729e-05
4.30071e-05
4.44068e-05
5.0339e-05
5.11087e-05
5.50771e-05
4.93737e-05
5.27438e-05
4.62401e-05
5.14698e-05
5.36761e-05
4.21948e-05
4.36307e-05
4.50303e-05
4.83481e-05
4.2257e-05
4.36756e-05
4.50453e-05
4.21069e-05
4.35007e-05
4.48386e-05
4.18906e-05
4.33084e-05
4.46447e-05
4.19263e-05
4.34269e-05
4.47995e-05
4.50902e-05
4.65417e-05
4.15704e-05
4.3005e-05
4.44037e-05
5.04613e-05
5.09331e-05
5.49747e-05
4.93103e-05
5.24552e-05
4.61308e-05
5.34172e-05
4.21925e-05
4.36287e-05
4.50272e-05
4.83461e-05
4.22551e-05
4.3674e-05
4.50412e-05
4.21045e-05
4.34983e-05
4.48332e-05
4.18882e-05
4.3309e-05
4.46446e-05
4.19252e-05
4.3428e-05
4.48005e-05
4.50887e-05
4.65428e-05
4.15679e-05
4.3003e-05
4.44006e-05
5.06072e-05
5.0765e-05
5.4884e-05
4.9259e-05
5.21845e-05
4.60341e-05
5.31673e-05
4.21902e-05
4.36268e-05
4.50242e-05
4.8344e-05
4.22531e-05
4.36723e-05
4.5037e-05
4.21021e-05
4.34959e-05
4.48278e-05
4.18857e-05
4.33096e-05
4.46445e-05
4.19241e-05
4.3429e-05
4.48017e-05
4.50871e-05
4.65438e-05
4.15654e-05
4.30011e-05
4.43976e-05
5.07779e-05
5.06052e-05
5.58531e-05
5.48053e-05
4.92204e-05
5.1931e-05
4.59504e-05
5.29266e-05
4.2188e-05
4.36249e-05
4.50211e-05
4.83419e-05
4.2251e-05
4.36707e-05
4.50327e-05
4.20997e-05
4.34934e-05
4.48224e-05
4.18831e-05
4.33102e-05
4.46445e-05
4.19228e-05
4.343e-05
4.48028e-05
4.50854e-05
4.65447e-05
4.1563e-05
4.29992e-05
4.43945e-05
5.0975e-05
5.0454e-05
5.57835e-05
5.47443e-05
4.91996e-05
5.16853e-05
4.58802e-05
5.26954e-05
4.21858e-05
4.36232e-05
4.50181e-05
4.83397e-05
4.22489e-05
4.36691e-05
4.50284e-05
4.20971e-05
4.34911e-05
4.4817e-05
4.18803e-05
4.33107e-05
4.46446e-05
4.19214e-05
4.34309e-05
4.48039e-05
4.50837e-05
4.65455e-05
4.29974e-05
4.43915e-05
5.11997e-05
5.03116e-05
5.57348e-05
5.4703e-05
4.91992e-05
5.14435e-05
4.58238e-05
4.86508e-05
5.24738e-05
4.21838e-05
4.36215e-05
4.50151e-05
4.83374e-05
4.36674e-05
4.5024e-05
4.20946e-05
4.34887e-05
4.48115e-05
4.18774e-05
4.33112e-05
4.46447e-05
4.192e-05
4.34318e-05
4.4805e-05
4.50819e-05
4.65462e-05
4.29957e-05
4.43886e-05
5.14536e-05
5.01783e-05
5.57074e-05
5.46818e-05
4.92195e-05
5.12069e-05
4.5782e-05
4.83933e-05
5.22619e-05
4.21818e-05
4.36199e-05
4.50122e-05
4.83351e-05
4.36657e-05
4.50196e-05
4.20921e-05
4.34863e-05
4.48061e-05
4.18745e-05
4.33117e-05
4.46449e-05
4.19184e-05
4.34326e-05
4.48062e-05
4.508e-05
4.65467e-05
4.2994e-05
4.43857e-05
5.1738e-05
5.00543e-05
5.57021e-05
5.46812e-05
4.92608e-05
5.09765e-05
4.57552e-05
4.81426e-05
5.206e-05
4.21799e-05
4.36183e-05
4.50092e-05
4.83328e-05
4.3664e-05
4.50152e-05
4.20895e-05
4.3484e-05
4.48007e-05
4.18714e-05
4.33122e-05
4.46451e-05
4.19167e-05
4.34333e-05
4.48073e-05
4.50781e-05
4.65471e-05
4.29923e-05
4.43828e-05
5.20545e-05
4.994e-05
5.57195e-05
5.47017e-05
5.68748e-05
4.93236e-05
5.07536e-05
4.57441e-05
4.78987e-05
5.18682e-05
5.74403e-05
4.21781e-05
4.36169e-05
4.50063e-05
4.83305e-05
4.36623e-05
4.50108e-05
4.20869e-05
4.34817e-05
4.47953e-05
4.18683e-05
4.33126e-05
4.46453e-05
4.1915e-05
4.34339e-05
4.48084e-05
4.50761e-05
4.65473e-05
4.29907e-05
4.438e-05
5.24046e-05
4.98358e-05
5.57604e-05
5.47438e-05
5.66314e-05
4.94082e-05
5.05388e-05
4.57496e-05
4.76616e-05
5.16867e-05
5.69866e-05
4.21765e-05
4.36154e-05
4.50034e-05
4.83281e-05
4.36606e-05
4.50063e-05
4.20843e-05
4.34794e-05
4.47899e-05
4.18652e-05
4.3313e-05
4.46455e-05
4.19132e-05
4.34344e-05
4.48095e-05
4.50741e-05
4.65475e-05
4.2989e-05
4.43772e-05
5.27894e-05
4.97421e-05
5.58256e-05
5.48082e-05
5.63954e-05
4.95155e-05
5.03325e-05
4.57725e-05
4.74314e-05
5.15156e-05
5.65559e-05
4.2175e-05
4.36141e-05
4.50006e-05
4.36588e-05
4.50019e-05
4.20818e-05
4.34771e-05
4.47845e-05
4.1862e-05
4.33133e-05
4.46458e-05
4.19114e-05
4.34349e-05
4.48105e-05
4.50721e-05
4.65475e-05
4.29874e-05
4.43745e-05
5.321e-05
4.96595e-05
5.5916e-05
6.0314e-05
5.48957e-05
5.61673e-05
4.96459e-05
5.01352e-05
4.58135e-05
4.72082e-05
5.13549e-05
5.6147e-05
4.21735e-05
4.36127e-05
4.4998e-05
4.3657e-05
4.49974e-05
4.20793e-05
4.34748e-05
4.47791e-05
4.18588e-05
4.33135e-05
4.4646e-05
4.19096e-05
4.34352e-05
4.48115e-05
4.65472e-05
4.29858e-05
4.43719e-05
5.36677e-05
4.95884e-05
5.60325e-05
6.00516e-05
5.50069e-05
5.59475e-05
4.99472e-05
4.58738e-05
4.69921e-05
5.12049e-05
5.57588e-05
4.21723e-05
4.36113e-05
4.49954e-05
4.36552e-05
4.4993e-05
4.20769e-05
4.34726e-05
4.47738e-05
4.18556e-05
4.33137e-05
4.46463e-05
4.19077e-05
4.34354e-05
4.48124e-05
4.65468e-05
4.29841e-05
4.43695e-05
5.41636e-05
4.95295e-05
5.61762e-05
5.98018e-05
5.51427e-05
5.57365e-05
4.97688e-05
4.59544e-05
4.6783e-05
5.10655e-05
5.53905e-05
4.21711e-05
4.36098e-05
4.4993e-05
4.36534e-05
4.49885e-05
4.20746e-05
4.34703e-05
4.47684e-05
4.18523e-05
4.33137e-05
4.46465e-05
4.19058e-05
4.34355e-05
4.48133e-05
4.65461e-05
4.29823e-05
4.43673e-05
4.94835e-05
5.63481e-05
5.9565e-05
4.92108e-05
4.92108e-05
4.92108e-05
5.53039e-05
5.55344e-05
4.96003e-05
5.51854e-05
4.60562e-05
4.6581e-05
5.09369e-05
5.50411e-05
4.36084e-05
4.49907e-05
4.36515e-05
4.49841e-05
4.20724e-05
4.34681e-05
4.47631e-05
4.18489e-05
4.33137e-05
4.46468e-05
4.19038e-05
4.34355e-05
4.48141e-05
4.65455e-05
4.29805e-05
4.43652e-05
4.94509e-05
5.93415e-05
4.90109e-05
4.90109e-05
4.90109e-05
5.54915e-05
5.53416e-05
4.94419e-05
5.47333e-05
4.61807e-05
4.63861e-05
5.08192e-05
5.47101e-05
4.36069e-05
4.49886e-05
4.36495e-05
4.49799e-05
4.20703e-05
4.34659e-05
4.47579e-05
4.18457e-05
4.33135e-05
4.46471e-05
4.19018e-05
4.34353e-05
4.4815e-05
4.65446e-05
4.29787e-05
4.43632e-05
4.94328e-05
5.1836e-05
5.91316e-05
4.88219e-05
4.88219e-05
4.88219e-05
5.51584e-05
4.92939e-05
5.43052e-05
4.63289e-05
4.61985e-05
5.07124e-05
5.43968e-05
4.36054e-05
4.49865e-05
4.36475e-05
4.49757e-05
4.20683e-05
4.34636e-05
4.47529e-05
4.18424e-05
4.33131e-05
4.46475e-05
4.18999e-05
4.34349e-05
4.48159e-05
4.65436e-05
4.29768e-05
4.43614e-05
4.94299e-05
5.16269e-05
5.89356e-05
4.86439e-05
4.86439e-05
4.86439e-05
5.49851e-05
4.91565e-05
5.39001e-05
4.65023e-05
4.60181e-05
5.06166e-05
5.41008e-05
4.36039e-05
4.49847e-05
4.36455e-05
4.49716e-05
4.20663e-05
4.34613e-05
4.47479e-05
4.18393e-05
4.33126e-05
4.4648e-05
4.1898e-05
4.34342e-05
4.48168e-05
4.65425e-05
4.29749e-05
4.43597e-05
4.94431e-05
5.1423e-05
5.87536e-05
4.84773e-05
4.84773e-05
4.84773e-05
5.48221e-05
4.90298e-05
5.35164e-05
4.67023e-05
4.5845e-05
5.05336e-05
5.3818e-05
4.36024e-05
4.49829e-05
4.36433e-05
4.49677e-05
4.20645e-05
4.3459e-05
4.47432e-05
4.18362e-05
4.33119e-05
4.46486e-05
4.18961e-05
4.34333e-05
4.48178e-05
4.65412e-05
4.2973e-05
4.43581e-05
4.94736e-05
5.12245e-05
5.85858e-05
4.83221e-05
4.83221e-05
4.83221e-05
5.46693e-05
4.89141e-05
5.31531e-05
4.69305e-05
4.56802e-05
5.04676e-05
5.35405e-05
4.36009e-05
4.49813e-05
4.36411e-05
4.49639e-05
4.20628e-05
4.34566e-05
4.47385e-05
4.18332e-05
4.3311e-05
4.46492e-05
4.18944e-05
4.34322e-05
4.48188e-05
4.65398e-05
4.29711e-05
4.43567e-05
4.95223e-05
5.10313e-05
5.5156e-05
5.84325e-05
4.81785e-05
4.81785e-05
4.81785e-05
5.4527e-05
4.88095e-05
5.28092e-05
4.71883e-05
4.55264e-05
5.0419e-05
5.32688e-05
4.35993e-05
4.49797e-05
4.36388e-05
4.49602e-05
4.34542e-05
4.47341e-05
4.18302e-05
4.33099e-05
4.465e-05
4.18927e-05
4.34309e-05
4.48197e-05
4.65382e-05
4.29691e-05
4.43554e-05
4.95905e-05
5.08436e-05
5.49731e-05
5.82938e-05
4.80465e-05
4.80465e-05
4.80465e-05
5.43954e-05
4.87161e-05
5.2484e-05
4.74774e-05
4.53837e-05
5.0388e-05
5.30035e-05
4.35978e-05
4.49784e-05
4.36365e-05
4.49566e-05
4.34518e-05
4.47297e-05
4.18274e-05
4.33087e-05
4.46507e-05
4.1891e-05
4.34294e-05
4.48207e-05
4.65365e-05
4.29672e-05
4.43542e-05
4.96795e-05
5.06613e-05
5.48069e-05
5.81698e-05
4.79263e-05
4.79263e-05
4.79263e-05
5.42744e-05
4.86341e-05
5.21767e-05
4.77996e-05
4.52525e-05
5.03748e-05
5.27453e-05
4.35963e-05
4.49771e-05
4.36341e-05
4.49532e-05
4.34493e-05
4.47256e-05
4.18247e-05
4.33073e-05
4.46515e-05
4.18894e-05
4.34276e-05
4.48217e-05
4.65347e-05
4.29653e-05
4.4353e-05
4.97907e-05
5.04845e-05
5.46589e-05
5.80615e-05
4.7818e-05
4.7818e-05
4.7818e-05
5.18361e-05
5.41644e-05
4.85634e-05
5.18871e-05
4.81565e-05
4.5133e-05
5.03798e-05
5.24946e-05
4.35948e-05
4.4976e-05
4.36317e-05
4.49498e-05
4.34469e-05
4.47215e-05
4.18221e-05
4.33058e-05
4.46524e-05
4.1888e-05
4.34257e-05
4.48226e-05
4.65329e-05
4.29634e-05
4.4352e-05
4.99253e-05
5.03134e-05
5.45293e-05
5.79754e-05
4.77215e-05
4.77215e-05
4.77215e-05
5.1866e-05
5.40652e-05
4.85042e-05
5.16145e-05
4.50255e-05
4.85813e-05
5.04032e-05
5.22521e-05
4.35933e-05
4.49749e-05
4.36293e-05
4.49466e-05
4.34444e-05
4.47176e-05
4.18196e-05
4.33041e-05
4.46532e-05
4.18866e-05
4.34236e-05
4.48235e-05
4.65309e-05
4.29615e-05
4.43511e-05
5.00849e-05
5.01502e-05
5.44184e-05
4.76368e-05
4.76368e-05
4.76368e-05
5.19178e-05
5.39772e-05
4.84567e-05
5.13589e-05
4.49303e-05
4.83056e-05
5.04454e-05
5.2018e-05
4.35919e-05
4.4974e-05
4.36269e-05
4.49435e-05
4.34419e-05
4.47138e-05
4.18172e-05
4.33023e-05
4.46541e-05
4.18853e-05
4.34214e-05
4.48244e-05
4.65289e-05
4.29598e-05
4.43502e-05
5.0271e-05
4.99952e-05
5.43267e-05
4.75641e-05
4.75641e-05
4.75641e-05
5.071e-05
5.071e-05
5.071e-05
5.19917e-05
5.39009e-05
4.84208e-05
5.11199e-05
4.48479e-05
4.80361e-05
5.05069e-05
5.17926e-05
4.35906e-05
4.49733e-05
4.36245e-05
4.49404e-05
4.34394e-05
4.47102e-05
4.1815e-05
4.33004e-05
4.4655e-05
4.18841e-05
4.3419e-05
4.48252e-05
4.65268e-05
4.2958e-05
4.43494e-05
5.04851e-05
4.98487e-05
5.42544e-05
4.75048e-05
4.75048e-05
4.75048e-05
5.04387e-05
5.04387e-05
5.04387e-05
5.20886e-05
5.3842e-05
4.84015e-05
5.08891e-05
4.47787e-05
4.7773e-05
5.05881e-05
5.15761e-05
4.35893e-05
4.49726e-05
4.36221e-05
4.49375e-05
4.34369e-05
4.47067e-05
4.18129e-05
4.32983e-05
4.46559e-05
4.18831e-05
4.34165e-05
4.48259e-05
4.65246e-05
4.29564e-05
4.43487e-05
5.07288e-05
4.97109e-05
5.42022e-05
4.74638e-05
4.74638e-05
4.74638e-05
5.01735e-05
5.01735e-05
5.01735e-05
5.22098e-05
5.3802e-05
4.84015e-05
5.0662e-05
4.47232e-05
4.75165e-05
5.06896e-05
5.13686e-05
5.75751e-05
4.35882e-05
4.4972e-05
4.36197e-05
4.49346e-05
4.34344e-05
4.47033e-05
4.1811e-05
4.32962e-05
4.46568e-05
4.18822e-05
4.34139e-05
4.48266e-05
4.65224e-05
4.29549e-05
4.4348e-05
5.10038e-05
4.95821e-05
5.41704e-05
4.99141e-05
4.99141e-05
4.99141e-05
5.23565e-05
5.37812e-05
5.64967e-05
4.84211e-05
5.04397e-05
4.4682e-05
4.72665e-05
5.11704e-05
5.70711e-05
4.35871e-05
4.49716e-05
4.36174e-05
4.49319e-05
4.34319e-05
4.47e-05
4.18091e-05
4.32941e-05
4.46576e-05
4.18814e-05
4.34113e-05
4.48272e-05
4.65202e-05
4.29535e-05
4.43474e-05
5.13117e-05
4.94625e-05
5.41599e-05
5.99146e-05
4.96609e-05
4.96609e-05
4.96609e-05
5.25303e-05
5.37801e-05
5.62511e-05
4.84607e-05
5.02232e-05
4.46556e-05
4.70232e-05
5.09817e-05
5.65937e-05
4.35862e-05
4.49713e-05
4.36151e-05
4.49292e-05
4.34295e-05
4.46969e-05
4.18074e-05
4.32919e-05
4.46584e-05
4.18806e-05
4.34086e-05
4.48277e-05
4.6518e-05
4.29522e-05
4.43469e-05
5.16542e-05
4.93527e-05
5.41714e-05
5.96184e-05
4.94146e-05
4.94146e-05
4.94146e-05
5.27326e-05
5.37994e-05
5.60114e-05
4.85207e-05
5.00136e-05
4.46448e-05
4.67866e-05
5.08025e-05
5.61412e-05
4.35853e-05
4.4971e-05
4.36128e-05
4.49265e-05
4.34271e-05
4.46938e-05
4.18057e-05
4.32897e-05
4.46593e-05
4.18799e-05
4.34059e-05
4.48282e-05
4.65157e-05
4.2951e-05
4.43464e-05
5.20331e-05
4.92528e-05
5.42058e-05
5.93322e-05
4.91756e-05
4.91756e-05
4.91756e-05
5.29651e-05
5.38396e-05
5.57782e-05
4.86016e-05
4.98116e-05
4.46504e-05
4.65567e-05
5.06331e-05
5.57119e-05
4.35846e-05
4.49709e-05
4.36107e-05
4.4924e-05
4.34249e-05
4.46909e-05
4.18042e-05
4.32874e-05
4.46601e-05
3.77963e-05
3.77963e-05
3.77963e-05
4.18794e-05
4.34032e-05
4.48286e-05
4.65135e-05
4.295e-05
4.4346e-05
3.6817e-05
3.69207e-05
5.24499e-05
4.91635e-05
5.42639e-05
5.90567e-05
4.89444e-05
4.89444e-05
4.89444e-05
5.32295e-05
5.39014e-05
5.55519e-05
4.87041e-05
4.96175e-05
4.46734e-05
4.63337e-05
5.04735e-05
5.53045e-05
4.3584e-05
4.49708e-05
4.36087e-05
4.49215e-05
4.34227e-05
4.4688e-05
4.18028e-05
4.32851e-05
4.46608e-05
3.7798e-05
3.7798e-05
3.7798e-05
4.18789e-05
4.34005e-05
4.48288e-05
4.65112e-05
4.29491e-05
4.43456e-05
3.6819e-05
3.69226e-05
5.29052e-05
4.90851e-05
5.4346e-05
5.87916e-05
4.87209e-05
4.87209e-05
4.87209e-05
5.35267e-05
5.3985e-05
5.53326e-05
4.88284e-05
4.94311e-05
4.47142e-05
4.61173e-05
5.03235e-05
5.49172e-05
4.35834e-05
4.49705e-05
4.36067e-05
4.4919e-05
4.34205e-05
4.46852e-05
4.18014e-05
4.32827e-05
4.46614e-05
3.77997e-05
3.77997e-05
3.77997e-05
4.18784e-05
4.33976e-05
4.48289e-05
4.67198e-05
4.65089e-05
4.29481e-05
4.4345e-05
4.45405e-05
4.45087e-05
3.68209e-05
3.69244e-05
5.34008e-05
4.90183e-05
5.44539e-05
5.85379e-05
4.85061e-05
4.85061e-05
4.85061e-05
5.38592e-05
5.40917e-05
5.51211e-05
4.89758e-05
4.92534e-05
4.47742e-05
4.59079e-05
5.01836e-05
5.45497e-05
4.35829e-05
4.49703e-05
4.49792e-05
4.36048e-05
4.49166e-05
4.34185e-05
4.46824e-05
3.76885e-05
3.76885e-05
3.76885e-05
4.18001e-05
4.32803e-05
4.46618e-05
3.78014e-05
3.78014e-05
3.78014e-05
4.18781e-05
4.33948e-05
4.48288e-05
4.67217e-05
4.65066e-05
4.29473e-05
4.43443e-05
4.45422e-05
4.45105e-05
3.68229e-05
3.69259e-05
5.39379e-05
4.89637e-05
5.18744e-05
5.45885e-05
5.82962e-05
4.83003e-05
4.83003e-05
4.83003e-05
5.42287e-05
5.42225e-05
5.49179e-05
4.9147e-05
4.90848e-05
5.4826e-05
4.48546e-05
4.57054e-05
5.00538e-05
5.42012e-05
4.35826e-05
4.497e-05
4.73576e-05
4.49807e-05
4.50757e-05
4.3603e-05
4.49142e-05
4.34165e-05
4.46798e-05
4.6743e-05
3.769e-05
3.769e-05
3.769e-05
4.17989e-05
4.32779e-05
4.46622e-05
3.78031e-05
3.78031e-05
3.78031e-05
4.18778e-05
4.3392e-05
4.48286e-05
4.67237e-05
4.65043e-05
4.29467e-05
4.43436e-05
4.45439e-05
4.45122e-05
3.68234e-05
3.69259e-05
4.38778e-05
4.89222e-05
5.1655e-05
5.4751e-05
5.80667e-05
4.81039e-05
4.81039e-05
4.81039e-05
5.43782e-05
5.47232e-05
4.9343e-05
4.89253e-05
5.43714e-05
4.49565e-05
4.551e-05
4.99344e-05
5.38708e-05
4.35823e-05
4.49697e-05
4.73595e-05
4.49822e-05
4.50772e-05
4.36013e-05
4.49119e-05
4.34146e-05
4.46772e-05
4.67446e-05
4.7107e-05
3.76914e-05
3.76914e-05
3.76914e-05
4.17978e-05
4.32755e-05
4.46623e-05
3.78049e-05
3.78049e-05
3.78049e-05
3.89715e-05
4.18777e-05
4.33892e-05
4.48281e-05
4.67255e-05
4.6502e-05
5.0139e-05
4.29462e-05
4.43428e-05
4.45446e-05
4.45124e-05
3.82937e-05
3.77985e-05
3.68233e-05
3.69245e-05
4.38795e-05
4.88947e-05
5.14409e-05
5.49439e-05
5.7851e-05
4.79183e-05
4.79183e-05
4.79183e-05
5.45611e-05
5.4538e-05
4.87763e-05
5.39425e-05
4.50819e-05
4.5322e-05
4.98264e-05
5.3559e-05
4.35825e-05
4.49697e-05
4.73616e-05
4.49839e-05
4.50787e-05
4.36e-05
4.49099e-05
4.34132e-05
4.46749e-05
4.67464e-05
4.71091e-05
3.76928e-05
3.76928e-05
3.76928e-05
4.1797e-05
4.32736e-05
4.46627e-05
3.78067e-05
3.78067e-05
3.78067e-05
3.89734e-05
4.18777e-05
4.33869e-05
4.48278e-05
4.67275e-05
4.65e-05
5.01408e-05
4.29461e-05
4.43423e-05
3.78202e-05
4.45439e-05
4.45113e-05
3.88007e-05
3.82946e-05
3.77994e-05
3.68222e-05
3.69221e-05
4.38808e-05
3.71559e-05
4.88818e-05
5.12321e-05
5.51674e-05
5.4578e-05
5.76482e-05
4.77428e-05
4.77428e-05
4.77428e-05
5.47711e-05
5.43613e-05
4.8637e-05
5.35365e-05
4.52315e-05
4.5141e-05
4.97288e-05
5.32641e-05
4.35829e-05
4.49697e-05
4.73636e-05
4.49856e-05
4.50803e-05
4.35989e-05
4.49079e-05
4.34119e-05
4.46727e-05
4.67482e-05
4.7111e-05
3.76942e-05
3.76942e-05
3.76942e-05
4.17962e-05
4.32717e-05
4.46629e-05
3.78085e-05
3.78085e-05
3.78085e-05
3.89753e-05
4.03928e-05
4.18779e-05
4.33847e-05
4.48273e-05
4.67296e-05
4.6498e-05
5.01425e-05
4.29462e-05
4.43418e-05
3.88277e-05
3.83208e-05
3.78211e-05
4.45419e-05
4.4509e-05
3.88016e-05
3.82954e-05
3.78003e-05
3.682e-05
4.0385e-05
4.38818e-05
3.8169e-05
3.76567e-05
3.71567e-05
4.88841e-05
5.10282e-05
5.43507e-05
5.74574e-05
4.75766e-05
4.75766e-05
4.75766e-05
5.50083e-05
5.41927e-05
4.85068e-05
5.31513e-05
4.54063e-05
4.49667e-05
4.96409e-05
5.29847e-05
4.35832e-05
4.49694e-05
4.73656e-05
4.49871e-05
4.50817e-05
4.35978e-05
4.49058e-05
3.77755e-05
3.77755e-05
3.77755e-05
4.34106e-05
4.46703e-05
4.67498e-05
4.71128e-05
3.76953e-05
3.76953e-05
3.76953e-05
4.17955e-05
4.32699e-05
4.46629e-05
3.78101e-05
3.78101e-05
3.78101e-05
3.89771e-05
4.0394e-05
4.18779e-05
4.33825e-05
4.48265e-05
4.67315e-05
4.64959e-05
5.01439e-05
4.29464e-05
4.43412e-05
3.88283e-05
3.83214e-05
3.78219e-05
3.88012e-05
3.8296e-05
3.7801e-05
3.92359e-05
4.04028e-05
4.03857e-05
4.38819e-05
3.81696e-05
3.76574e-05
3.71574e-05
4.8903e-05
5.08296e-05
5.41341e-05
5.72799e-05
4.74208e-05
4.74208e-05
4.74208e-05
5.09851e-05
5.5275e-05
5.40334e-05
4.83869e-05
5.27866e-05
4.56083e-05
4.47996e-05
4.9565e-05
5.27185e-05
4.35837e-05
4.49692e-05
4.73674e-05
4.49885e-05
4.5083e-05
4.35968e-05
4.49038e-05
3.77759e-05
3.77759e-05
3.77759e-05
4.34095e-05
4.4668e-05
4.67513e-05
4.71143e-05
3.76964e-05
3.76964e-05
3.76964e-05
4.17948e-05
4.32682e-05
4.46627e-05
3.78115e-05
3.78115e-05
3.78115e-05
3.89789e-05
4.03952e-05
4.1878e-05
4.33804e-05
4.48255e-05
4.67335e-05
4.64938e-05
5.01451e-05
4.29467e-05
4.43405e-05
3.88304e-05
3.83237e-05
3.7825e-05
3.82966e-05
3.78017e-05
3.92374e-05
4.04042e-05
4.03865e-05
4.3879e-05
3.81695e-05
3.76598e-05
3.71607e-05
4.89395e-05
5.06363e-05
5.39282e-05
5.71159e-05
4.72757e-05
4.72757e-05
4.72757e-05
5.08953e-05
5.38838e-05
4.82773e-05
5.24413e-05
4.58393e-05
4.46404e-05
4.95053e-05
5.24576e-05
4.35844e-05
4.4969e-05
4.73691e-05
4.49899e-05
4.50843e-05
4.3596e-05
4.49017e-05
3.77762e-05
3.77762e-05
3.77762e-05
4.34085e-05
4.46658e-05
4.67527e-05
4.71157e-05
3.76974e-05
3.76974e-05
3.76974e-05
4.17942e-05
4.32666e-05
4.46623e-05
3.78128e-05
3.78128e-05
3.78128e-05
3.89807e-05
4.03964e-05
4.18782e-05
4.33785e-05
4.48243e-05
4.67355e-05
4.75728e-05
4.64917e-05
5.01461e-05
4.29472e-05
4.43398e-05
3.88326e-05
3.8326e-05
3.78267e-05
3.82991e-05
3.78045e-05
3.92385e-05
4.0405e-05
4.03872e-05
3.76619e-05
3.7162e-05
4.89948e-05
5.04484e-05
5.37333e-05
5.69656e-05
5.74381e-05
4.71414e-05
4.71414e-05
4.71414e-05
5.15308e-05
5.15308e-05
5.15308e-05
5.08214e-05
5.37442e-05
5.92092e-05
4.81781e-05
5.21145e-05
4.6101e-05
4.44916e-05
4.94623e-05
5.22021e-05
4.35851e-05
4.49687e-05
4.73707e-05
4.49911e-05
4.58402e-05
4.50855e-05
4.35954e-05
4.48998e-05
3.77763e-05
3.77763e-05
3.77763e-05
4.34076e-05
4.46636e-05
4.67539e-05
4.7669e-05
4.71168e-05
3.76983e-05
3.76983e-05
3.76983e-05
3.88674e-05
4.17937e-05
4.32652e-05
4.46619e-05
3.78139e-05
3.78139e-05
3.78139e-05
3.89825e-05
4.03976e-05
4.18785e-05
4.33768e-05
4.4823e-05
4.67374e-05
4.7575e-05
4.64897e-05
5.01469e-05
4.29479e-05
4.43391e-05
3.88334e-05
3.83267e-05
3.78275e-05
3.73554e-05
3.83003e-05
3.78055e-05
3.92392e-05
4.04057e-05
4.03879e-05
4.3469e-05
3.76627e-05
3.71628e-05
4.90702e-05
5.02658e-05
5.35498e-05
5.68291e-05
5.73505e-05
4.7018e-05
4.7018e-05
4.7018e-05
5.117e-05
5.117e-05
5.117e-05
5.0765e-05
5.36149e-05
5.90899e-05
4.80895e-05
5.18055e-05
4.63952e-05
4.43534e-05
4.83099e-05
4.94364e-05
5.19527e-05
4.3586e-05
4.49684e-05
4.73721e-05
4.49922e-05
4.58415e-05
4.50864e-05
4.35949e-05
4.48978e-05
3.77762e-05
3.77762e-05
3.77762e-05
4.34069e-05
4.46614e-05
4.67549e-05
4.76706e-05
4.71177e-05
3.7699e-05
3.7699e-05
3.7699e-05
3.8869e-05
4.17933e-05
4.32639e-05
4.46614e-05
3.78147e-05
3.78147e-05
3.78147e-05
3.89843e-05
4.03989e-05
4.18788e-05
4.33752e-05
4.48215e-05
4.67393e-05
4.75772e-05
4.64878e-05
5.01473e-05
4.29487e-05
4.43385e-05
3.88339e-05
3.83274e-05
3.78282e-05
3.73575e-05
3.83009e-05
3.78061e-05
4.04063e-05
4.03886e-05
4.34767e-05
3.76634e-05
3.71635e-05
4.91671e-05
5.00887e-05
5.33819e-05
5.67064e-05
5.72837e-05
4.69056e-05
4.69056e-05
4.69056e-05
5.08287e-05
5.08287e-05
5.08287e-05
5.07268e-05
5.34961e-05
5.89848e-05
4.80117e-05
5.15137e-05
4.67238e-05
4.42262e-05
4.80263e-05
4.94278e-05
5.17098e-05
4.35871e-05
4.49682e-05
4.73732e-05
4.81677e-05
4.4993e-05
4.58429e-05
4.50872e-05
4.35946e-05
4.4896e-05
3.7776e-05
3.7776e-05
3.7776e-05
4.34064e-05
4.46593e-05
4.67556e-05
4.76721e-05
4.71183e-05
3.76996e-05
3.76996e-05
3.76996e-05
3.88706e-05
4.1793e-05
4.32628e-05
4.46608e-05
3.78154e-05
3.78154e-05
3.78154e-05
3.8986e-05
4.04002e-05
4.18792e-05
4.33738e-05
4.48199e-05
4.6741e-05
4.75794e-05
4.64858e-05
5.01474e-05
4.29497e-05
4.43379e-05
3.88346e-05
3.8328e-05
3.7829e-05
3.73582e-05
3.83015e-05
3.78068e-05
3.7342e-05
4.04069e-05
4.03893e-05
4.34781e-05
3.76641e-05
3.71642e-05
4.92869e-05
4.99171e-05
5.32318e-05
5.6598e-05
5.72382e-05
4.68043e-05
4.68043e-05
4.68043e-05
5.05062e-05
5.05062e-05
5.05062e-05
5.07078e-05
5.33882e-05
5.88995e-05
4.79446e-05
5.12386e-05
4.70888e-05
4.41103e-05
4.77482e-05
4.94368e-05
5.1474e-05
4.35883e-05
4.4968e-05
4.7374e-05
4.81681e-05
4.49937e-05
4.58441e-05
4.50878e-05
4.61038e-05
4.35945e-05
4.48942e-05
3.77755e-05
3.77755e-05
3.77755e-05
4.3406e-05
4.46573e-05
4.67561e-05
4.76736e-05
4.71187e-05
3.76999e-05
3.76999e-05
3.76999e-05
3.88722e-05
4.17928e-05
4.3262e-05
4.46602e-05
3.78157e-05
3.78157e-05
3.78157e-05
3.89877e-05
4.04016e-05
4.18797e-05
4.33726e-05
4.48181e-05
4.67426e-05
4.75816e-05
4.6484e-05
5.01471e-05
4.29509e-05
4.43373e-05
3.88351e-05
3.83286e-05
3.78298e-05
3.73589e-05
3.83021e-05
3.78076e-05
3.73451e-05
3.96769e-05
3.91931e-05
3.87157e-05
4.03322e-05