/*--------------------------------*- C++ -*----------------------------------*\
| =========                 |                                                 |
| \\      /  F ield         | OpenFOAM: The Open Source CFD Toolbox           |
|  \\    /   O peration     | Version:  2.1.1                                 |
|   \\  /    A nd           | Web:      www.OpenFOAM.org                      |
|    \\/     M anipulation  |                                                 |
\*---------------------------------------------------------------------------*/
FoamFile
{
    version     2.0;
    format      ascii;
    class       Cloud<solidParticle>;
    location    "0.001";
    object      positions;
}
// * * * * * * * * * * * * * * * * * * * * * * * * * * * * * * * * * * * * * //

45757
(
(0.000782076 0.00899583 0.00100644) 20041
(0.0173161 0.00647668 0.00222364) 6094
(0.0172601 0.00647625 0.00222175) 6094
(0.0172003 0.00647599 0.00221974) 6094
(0.0171386 0.00647584 0.00221764) 6094
(0.0170742 0.00647585 0.00221543) 6094
(0.0170066 0.00647598 0.00221303) 6094
(0.0169354 0.00647626 0.00221046) 6093
(0.0168616 0.00647663 0.00220769) 6093
(0.0167848 0.00647713 0.00220476) 6093
(0.0167045 0.00647776 0.00220162) 6093
(0.0166211 0.00647851 0.00219829) 6093
(0.0165337 0.00647941 0.00219475) 6093
(0.016442 0.00648053 0.00219106) 6092
(0.0163473 0.00648187 0.00218736) 6092
(0.0162497 0.00648339 0.00218364) 6092
(0.0161495 0.00648515 0.00217997) 13412
(0.0177644 0.00648952 0.00223607) 6095
(0.0177206 0.00648833 0.00223386) 6095
(0.0176753 0.00648722 0.00223161) 6095
(0.0176284 0.00648617 0.00222933) 6095
(0.0175797 0.00648517 0.00222697) 6095
(0.0175288 0.00648425 0.00222453) 6095
(0.0174754 0.00648342 0.00222202) 6094
(0.0174199 0.00648266 0.00221944) 6094
(0.0173609 0.00648201 0.00221673) 6094
(0.0173004 0.00648148 0.00221399) 6094
(0.0172365 0.00648109 0.00221111) 6094
(0.01717 0.00648082 0.00220813) 6094
(0.0171002 0.00648072 0.00220504) 6094
(0.0170274 0.00648077 0.00220183) 6094
(0.0169511 0.00648094 0.00219845) 6093
(0.0168725 0.00648124 0.00219494) 6093
(0.0167895 0.00648174 0.00219126) 6093
(0.0167033 0.00648243 0.00218744) 6093
(0.018124 0.00650546 0.0022513) 6096
(0.0166126 0.00648338 0.00218345) 6093
(0.0180868 0.00650387 0.00224904) 6096
(0.0151081 0.0030698 0.0032074) 750
(0.0165189 0.0064845 0.00217928) 13413
(0.0180486 0.0065023 0.00224665) 6096
(0.01502 0.00306692 0.00320713) 750
(0.0164212 0.00648597 0.00217507) 13412
(0.0180092 0.00650077 0.00224418) 6096
(0.0149279 0.00306406 0.00320706) 749
(0.0163215 0.00648779 0.00217096) 13412
(0.0179687 0.00649927 0.00224163) 6095
(0.0148288 0.00306089 0.00320733) 749
(0.0162186 0.00649009 0.00216697) 13412
(0.0179269 0.00649781 0.00223903) 6095
(0.0147214 0.00305725 0.00320801) 749
(0.016112 0.00649296 0.00216312) 13412
(0.0178839 0.00649639 0.00223634) 6095
(0.014605 0.00305302 0.00320914) 749
(0.0178393 0.00649503 0.00223359) 6095
(0.0144801 0.00304811 0.00321073) 748
(0.0177933 0.00649371 0.00223074) 6095
(0.0143467 0.00304235 0.00321282) 748
(0.0177456 0.00649245 0.00222781) 6095
(0.0142062 0.00303557 0.00321545) 748
(0.017696 0.00649127 0.00222483) 6095
(0.0140611 0.00302767 0.00321863) 748
(0.0176436 0.0064902 0.00222177) 6095
(0.0139163 0.00301879 0.00322219) 747
(0.0175884 0.00648919 0.00221859) 6095
(0.0175317 0.00648826 0.00221542) 6095
(0.0174712 0.00648746 0.00221215) 6094
(0.017408 0.00648675 0.00220875) 6094
(0.0161044 0.00309286 0.00320862) 752
(0.0173416 0.00648612 0.00220514) 6094
(0.0160449 0.00309112 0.00320655) 752
(0.0172717 0.00648566 0.00220142) 6094
(0.0159833 0.00308924 0.00320473) 751
(0.017198 0.00648539 0.00219756) 6094
(0.0159184 0.00308713 0.00320319) 751
(0.0171205 0.00648536 0.0021936) 6094
(0.018397 0.00652014 0.00226129) 6096
(0.0158515 0.00308487 0.00320181) 751
(0.0170394 0.0064855 0.00218951) 6094
(0.0183629 0.00651822 0.00225922) 6096
(0.0157814 0.0030824 0.0032006) 751
(0.0169542 0.00648591 0.00218534) 6093
(0.0183278 0.00651634 0.00225704) 6096
(0.0157086 0.0030798 0.00319956) 751
(0.0168648 0.00648661 0.0021811) 13413
(0.0182919 0.0065145 0.00225476) 6096
(0.0156331 0.00307707 0.00319867) 751
(0.0167717 0.00648764 0.0021768) 13413
(0.0182551 0.00651271 0.0022524) 6096
(0.0155544 0.00307431 0.00319791) 751
(0.0166737 0.00648912 0.00217246) 13413
(0.0182175 0.00651099 0.00224999) 6096
(0.0154716 0.00307146 0.00319731) 750
(0.0165714 0.00649115 0.00216817) 13413
(0.0181787 0.00650932 0.00224749) 6096
(0.0153852 0.00306864 0.00319684) 750
(0.0164658 0.00649372 0.00216398) 13412
(0.0181387 0.00650771 0.00224491) 6096
(0.0152948 0.00306584 0.00319651) 750
(0.0163559 0.00649699 0.00215995) 13412
(0.0180974 0.00650616 0.00224225) 6096
(0.0151969 0.00306272 0.0031965) 750
(0.0162412 0.00650106 0.00215612) 13412
(0.0180549 0.00650466 0.0022395) 6096
(0.0150905 0.00305913 0.00319687) 750
(0.0161215 0.00650608 0.00215252) 13412
(0.0180109 0.00650324 0.00223668) 6096
(0.014975 0.00305495 0.00319768) 749
(0.0179651 0.00650187 0.00223375) 6095
(0.0148507 0.00305004 0.00319894) 749
(0.0179175 0.00650053 0.00223071) 6095
(0.014717 0.00304415 0.00320075) 749
(0.0178679 0.0064993 0.00222759) 6095
(0.0150218 0.00470938 0.000988185) 11610
(0.0145768 0.00303716 0.00320309) 749
(0.0178158 0.00649816 0.00222437) 6095
(0.014997 0.00471397 0.000986692) 11609
(0.0144323 0.00302892 0.00320601) 748
(0.0167422 0.00310164 0.00321192) 753
(0.0177613 0.00649709 0.00222099) 6095
(0.0149715 0.00471844 0.000985162) 11609
(0.0142886 0.00301957 0.00320931) 748
(0.0166908 0.00310076 0.00320917) 753
(0.0177043 0.0064961 0.00221751) 6095
(0.0149453 0.0047228 0.000983629) 11609
(0.0141546 0.00300983 0.0032126) 748
(0.0166378 0.00309975 0.00320651) 753
(0.0176441 0.00649522 0.00221391) 6095
(0.0149186 0.00472705 0.000982097) 11609
(0.016583 0.00309858 0.00320397) 753
(0.0175807 0.00649442 0.00221016) 6095
(0.0148914 0.0047312 0.000980559) 11609
(0.0165261 0.00309723 0.00320154) 753
(0.0175142 0.00649376 0.00220633) 6095
(0.0148636 0.00473523 0.000979019) 11609
(0.0164671 0.0030957 0.00319925) 752
(0.0174431 0.00649326 0.00220232) 6094
(0.0186332 0.00653451 0.00226817) 6097
(0.0148354 0.00473917 0.000977476) 11609
(0.0164065 0.00309401 0.00319709) 752
(0.017369 0.00649291 0.0021982) 6094
(0.0186003 0.00653245 0.00226677) 6097
(0.0148068 0.004743 0.000975929) 11609
(0.0163435 0.00309211 0.00319516) 752
(0.0172901 0.0064928 0.00219392) 6094
(0.0185666 0.00653042 0.00226517) 6097
(0.0147775 0.00474674 0.000974371) 11609
(0.0162782 0.00309 0.00319346) 752
(0.0172068 0.00649301 0.00218954) 6094
(0.0185322 0.00652843 0.00226344) 6097
(0.0147474 0.00475041 0.000972797) 11609
(0.0162112 0.00308771 0.00319188) 752
(0.0171184 0.0064935 0.00218503) 13414
(0.018497 0.00652649 0.00226157) 6096
(0.0147166 0.00475403 0.000971202) 11609
(0.0161413 0.00308519 0.00319044) 752
(0.0170258 0.00649435 0.00218047) 13414
(0.018461 0.00652458 0.00225958) 6096
(0.014685 0.0047576 0.000969586) 11609
(0.0160696 0.00308256 0.0031891) 752
(0.0169287 0.00649566 0.00217591) 13413
(0.018424 0.00652273 0.00225747) 6096
(0.0159955 0.00307981 0.00318789) 751
(0.0168263 0.00649757 0.00217134) 13413
(0.018386 0.00652096 0.00225527) 6096
(0.015919 0.00307705 0.00318677) 751
(0.0167186 0.00650018 0.00216683) 13413
(0.0183469 0.00651926 0.00225297) 6096
(0.015839 0.00307428 0.00318575) 751
(0.0166057 0.00650357 0.00216245) 13413
(0.0183067 0.00651765 0.0022506) 6096
(0.015811 0.00525076 0.000817181) 11911
(0.0157555 0.00307155 0.00318482) 751
(0.0164876 0.00650785 0.00215823) 13412
(0.0182654 0.00651611 0.00224816) 6096
(0.0157806 0.00525478 0.000818825) 11911
(0.0156677 0.00306887 0.00318399) 751
(0.016364 0.00651317 0.00215429) 13412
(0.0182227 0.00651466 0.00224562) 6096
(0.0157491 0.00525864 0.000820331) 11911
(0.0155721 0.00306584 0.00318344) 751
(0.0162335 0.00651978 0.00215066) 13412
(0.0181785 0.00651328 0.00224299) 6096
(0.0155969 0.00469319 0.000992464) 11551
(0.0157166 0.00526238 0.000821719) 11911
(0.0154676 0.00306234 0.00318326) 750
(0.0173673 0.00310774 0.00321908) 814
(0.0181324 0.006512 0.00224022) 6096
(0.0155731 0.00469817 0.000991095) 11551
(0.0156829 0.00526601 0.000822921) 11911
(0.0153534 0.00305819 0.00318344) 750
(0.0173207 0.00310752 0.00321578) 754
(0.0180848 0.0065108 0.00223735) 6096
(0.0155484 0.00470298 0.000989744) 11551
(0.0156481 0.00526952 0.000824012) 11911
(0.0152293 0.00305319 0.0031841) 750
(0.0172729 0.00310725 0.00321258) 754
(0.0180355 0.00650967 0.00223437) 6096
(0.0155229 0.00470764 0.000988404) 11611
(0.0156125 0.00527296 0.000825008) 11911
(0.015095 0.00304704 0.00318532) 750
(0.0172239 0.00310688 0.00320948) 754
(0.0179839 0.00650861 0.00223122) 6095
(0.0154966 0.00471217 0.000987074) 11610
(0.015576 0.00527634 0.000825919) 11911
(0.0149529 0.00303956 0.00318714) 749
(0.0171735 0.0031064 0.00320649) 754
(0.0179295 0.00650766 0.00222793) 6095
(0.0154696 0.00471659 0.00098575) 11610
(0.0155386 0.00527968 0.000826752) 11911
(0.0148072 0.00303073 0.00318958) 749
(0.0171215 0.00310582 0.00320358) 754
(0.0178731 0.00650674 0.00222445) 6095
(0.0154419 0.00472088 0.000984431) 11610
(0.0155006 0.00528299 0.000827523) 11911
(0.0146644 0.00302084 0.00319243) 749
(0.0170679 0.0031051 0.00320074) 754
(0.00925787 0.00367771 0.00345025) 14478
(0.0178132 0.00650596 0.00222086) 6095
(0.0189019 0.00655216 0.00227175) 6097
(0.015414 0.00472507 0.00098327) 11610
(0.0154622 0.00528631 0.000828388) 11910
(0.0145346 0.00301085 0.00319538) 749
(0.0170124 0.00310424 0.00319809) 754
(0.0172135 0.00655593 0.00173146) 6754
(0.00923431 0.00367763 0.00345027) 14478
(0.00920658 0.00377277 0.00367536) 14538
(0.0177507 0.00650527 0.00221711) 6095
(0.0188692 0.00655003 0.00227158) 6097
(0.0153856 0.00472921 0.000982092) 11610
(0.0154231 0.00528966 0.000829181) 11910
(0.0144305 0.00300238 0.00319746) 748
(0.0169555 0.00310323 0.00319546) 753
(0.0171428 0.00656021 0.00173072) 6754
(0.00921075 0.00367754 0.00345029) 14478
(0.00918339 0.00377269 0.00367538) 14538
(0.0176846 0.0065047 0.00221316) 6095
(0.0188361 0.00654792 0.00227122) 6097
(0.0153567 0.00473328 0.000980902) 11610
(0.0153834 0.00529302 0.000829915) 11910
(0.0168966 0.00310202 0.00319292) 753
(0.0170676 0.00656502 0.00172988) 6754
(0.00918881 0.00639844 0.00288234) 13518
(0.0091872 0.00367743 0.00345031) 14478
(0.00916024 0.0037726 0.00367542) 14538
(0.0176151 0.00650427 0.00220907) 6095
(0.0188026 0.00654581 0.00227066) 6097
(0.0153275 0.00473729 0.000979692) 11610
(0.0153434 0.0052964 0.000830602) 11910
(0.0165675 0.005211 0.000807897) 11913
(0.0168366 0.00310064 0.00319042) 753
(0.0169875 0.00657043 0.00172897) 6753
(0.00916622 0.00639844 0.00288236) 13518
(0.00916366 0.0036773 0.00345034) 14478
(0.00965799 0.00367377 0.0034517) 14479
(0.00913713 0.0037725 0.00367546) 14538
(0.0175413 0.00650398 0.00220478) 6095
(0.0187686 0.00654374 0.00226992) 6097
(0.0152979 0.00474124 0.000978466) 11610
(0.0153028 0.0052998 0.000831236) 11910
(0.0165489 0.00521681 0.000811274) 11913
(0.0167752 0.0030991 0.00318801) 753
(0.0169039 0.00657642 0.00172803) 6753
(0.00914358 0.00639846 0.00288239) 13518
(0.00914014 0.00367716 0.00345037) 14478
(0.00963446 0.00367395 0.00345167) 14479
(0.00911405 0.0037724 0.00367551) 14538
(0.00959909 0.00376982 0.00367916) 14539
(0.0174632 0.00650389 0.00220034) 6094
(0.0187339 0.00654169 0.00226899) 6097
(0.015268 0.00474514 0.000977218) 11610
(0.0152618 0.00530324 0.000831831) 11910
(0.0165278 0.00522221 0.000814342) 11913
(0.0167117 0.00309733 0.00318581) 753
(0.016832 0.00657959 0.00172748) 6753
(0.00912093 0.00639849 0.0028824) 13518
(0.0095906 0.00640349 0.00288038) 13519
(0.00911666 0.003677 0.00345041) 14478
(0.00961092 0.00367413 0.00345164) 14479
(0.00909102 0.00377228 0.00367557) 14538
(0.00957548 0.00376992 0.00367905) 14539
(0.0173808 0.00650403 0.00219572) 6094
(0.0186988 0.00653968 0.0022679) 6097
(0.0152375 0.00474902 0.000975945) 11610
(0.01522 0.00530674 0.000832378) 11910
(0.0165059 0.00522737 0.000817249) 11913
(0.0166469 0.00309537 0.0031838) 753
(0.0167725 0.00658156 0.00172748) 6753
(0.00909825 0.00639854 0.00288241) 13518
(0.00956893 0.00640317 0.00288049) 13519
(0.00909321 0.00367683 0.00345044) 14478
(0.00958738 0.00367429 0.0034516) 14479
(0.00906803 0.00377215 0.00367563) 14538
(0.00955188 0.00377002 0.00367894) 14539
(0.0172933 0.00650445 0.00219096) 6094
(0.0186629 0.00653772 0.00226661) 6097
(0.0152064 0.00475287 0.000974643) 11610
(0.0151776 0.00531031 0.000832895) 10110
(0.0164831 0.00523231 0.000820015) 11912
(0.0165798 0.00309315 0.00318196) 753
(0.0167163 0.0065833 0.00172757) 6753
(0.00907554 0.00639861 0.00288241) 13518
(0.00954719 0.00640287 0.0028806) 13519
(0.00906979 0.00367664 0.00345048) 14478
(0.00956382 0.00367444 0.00345157) 14479
(0.00904507 0.00377202 0.00367571) 14538
(0.0095283 0.0037701 0.00367884) 14539
(0.0172005 0.0065052 0.00218606) 13414
(0.0186261 0.00653584 0.00226517) 6097
(0.0151749 0.00475672 0.00097331) 11610
(0.0164594 0.00523703 0.000822637) 11912
(0.0165119 0.00309083 0.00318018) 753
(0.0166636 0.00658517 0.00172789) 6753
(0.0090528 0.00639869 0.00288241) 13518
(0.00952538 0.00640259 0.00288071) 13519
(0.00904639 0.00367644 0.00345053) 14478
(0.00954026 0.00367458 0.00345155) 14479
(0.00902216 0.00377187 0.00367579) 14538
(0.00950475 0.00377018 0.00367875) 14539
(0.0171024 0.00650645 0.00218109) 13414
(0.0185886 0.00653403 0.00226358) 6097
(0.0151427 0.00476056 0.000971943) 11610
(0.0164346 0.00524155 0.000825114) 11912
(0.016442 0.0030883 0.00317851) 752
(0.0166191 0.00658732 0.00172878) 2493
(0.00903003 0.00639879 0.0028824) 13518
(0.0095035 0.00640232 0.00288081) 13519
(0.00902303 0.00367623 0.00345057) 14478
(0.0095167 0.0036747 0.00345152) 14479
(0.00899928 0.00377172 0.00367588) 14537
(0.00948121 0.00377024 0.00367866) 14538
(0.0169985 0.00650831 0.00217606) 13413
(0.0185503 0.00653229 0.00226187) 6097
(0.0151101 0.00476438 0.000970541) 11610
(0.0164088 0.00524587 0.000827444) 11912
(0.0163702 0.00308566 0.00317694) 752
(0.016579 0.00658961 0.00172994) 2493
(0.00900723 0.0063989 0.00288239) 13518
(0.00948155 0.00640207 0.00288091) 13518
(0.00890837 0.00420005 0.00184753) 14117
(0.00899969 0.003676 0.00345062) 14477
(0.00949312 0.0036748 0.0034515) 14478
(0.00998458 0.00366776 0.00345324) 14479
(0.00897644 0.00377156 0.00367598) 14537
(0.0094577 0.00377029 0.00367857) 14538
(0.00900946 0.00640237 0.00312531) 15258
(0.0168884 0.00651103 0.00217112) 13413
(0.0185111 0.00653062 0.00226001) 6097
(0.0150769 0.00476819 0.000969102) 11610
(0.0163818 0.00525001 0.000829615) 11912
(0.0162961 0.00308292 0.00317547) 752
(0.0179916 0.00310942 0.00322521) 815
(0.0165383 0.00659191 0.00173098) 2493
(0.0089844 0.00639903 0.00288237) 13517
(0.00945958 0.00640184 0.002881) 13518
(0.00888658 0.00419991 0.0018475) 14117
(0.00897638 0.00367576 0.00345068) 14477
(0.00946953 0.0036749 0.00345148) 14478
(0.00996125 0.00366805 0.00345318) 14479
(0.00895365 0.00377139 0.00367608) 14537
(0.00943421 0.00377034 0.0036785) 14538
(0.00883025 0.00500534 0.00439103) 14837
(0.0089867 0.00640251 0.00312537) 15257
(0.00946254 0.00640455 0.00312526) 15258
(0.0167726 0.00651468 0.00216633) 13413
(0.0184709 0.00652903 0.00225803) 6096
(0.0150432 0.00477198 0.000967633) 11610
(0.0161691 0.00468234 0.000997644) 11552
(0.0163536 0.00525398 0.000831632) 11912
(0.0162189 0.00308019 0.00317409) 752
(0.0179485 0.00310986 0.00322198) 815
(0.0164972 0.0065942 0.0017319) 2492
(0.00896154 0.00639917 0.00288234) 13517
(0.00943753 0.00640162 0.00288109) 13518
(0.00988816 0.00641114 0.00287817) 13519
(0.0088648 0.00419976 0.00184747) 14117
(0.0089531 0.0036755 0.00345073) 14477
(0.00944593 0.00367497 0.00345147) 14478
(0.00993791 0.00366833 0.00345312) 14479
(0.00893088 0.00377121 0.00367619) 14537
(0.00941075 0.00377037 0.00367843) 14538
(0.00990095 0.00376554 0.00368343) 14539
(0.00880793 0.00500525 0.00439128) 14837
(0.00927965 0.00500702 0.00439135) 14838
(0.00896392 0.00640267 0.00312543) 15257
(0.00944027 0.00640436 0.00312528) 15258
(0.0166503 0.00651935 0.00216173) 13413
(0.0184295 0.0065275 0.00225591) 6096
(0.0150088 0.00477574 0.000966135) 11610
(0.0161467 0.00468779 0.000996592) 11552
(0.016324 0.00525779 0.000833502) 11912
(0.0161388 0.00307756 0.00317275) 752
(0.017904 0.00311024 0.00321885) 815
(0.0164558 0.00659642 0.00173271) 2492
(0.00893865 0.00639933 0.0028823) 13517
(0.00941541 0.00640142 0.00288117) 13518
(0.00986747 0.00641065 0.0028783) 13519
(0.00884305 0.00419961 0.00184743) 14117
(0.00929308 0.00419793 0.00184495) 14118
(0.00892983 0.00367523 0.00345079) 14477
(0.00942231 0.00367503 0.00345145) 14478
(0.00991457 0.00366861 0.00345307) 14479
(0.00890816 0.00377103 0.00367631) 14537
(0.00938732 0.00377039 0.00367837) 14538
(0.0098773 0.00376573 0.00368328) 14539
(0.00878563 0.00500516 0.00439153) 14837
(0.00925689 0.00500688 0.00439134) 14838
(0.00894112 0.00640283 0.0031255) 15257
(0.00941796 0.00640418 0.00312529) 15258
(0.0165222 0.0065252 0.00215737) 13413
(0.0183868 0.00652606 0.00225367) 6096
(0.0149737 0.00477945 0.000964589) 11609
(0.0161242 0.00469307 0.000995548) 11552
(0.0162932 0.00526147 0.000835236) 11912
(0.0160539 0.00307492 0.00317151) 752
(0.0178583 0.00311055 0.0032158) 755
(0.016414 0.00659859 0.0017334) 2492
(0.00891573 0.0063995 0.00288226) 13517
(0.00939322 0.00640123 0.00288126) 13518
(0.0098467 0.00641018 0.00287843) 13519
(0.00882132 0.00419945 0.00184739) 14117
(0.00927111 0.00419799 0.00184507) 14118
(0.00890659 0.00367495 0.00345085) 14477
(0.00939868 0.00367508 0.00345144) 14478
(0.00989121 0.00366887 0.00345301) 14479
(0.00888547 0.00377084 0.00367644) 14537
(0.00936392 0.0037704 0.00367832) 14538
(0.00985364 0.00376591 0.00368313) 14539
(0.00876335 0.00500507 0.0043918) 14837
(0.00923413 0.00500674 0.00439134) 14838
(0.0089183 0.00640301 0.00312557) 15257
(0.00939561 0.00640402 0.00312531) 15258
(0.0163866 0.00653257 0.0021534) 13412
(0.0183428 0.00652472 0.00225131) 6096
(0.0161008 0.00469816 0.000994519) 11552
(0.0162611 0.00526504 0.000836834) 11912
(0.0159611 0.00307197 0.00317051) 751
(0.0178107 0.00311075 0.00321287) 755
(0.0163717 0.00660074 0.00173397) 2492
(0.0178802 0.00655172 0.00173262) 6755
(0.00889278 0.00639968 0.00288222) 13517
(0.00937096 0.00640107 0.00288133) 13518
(0.00982585 0.00640972 0.00287856) 13519
(0.0087996 0.00419928 0.00184734) 14117
(0.00924914 0.00419804 0.00184519) 14118
(0.00888338 0.00367465 0.00345092) 14477
(0.00937504 0.00367511 0.00345144) 14478
(0.00986784 0.00366913 0.00345295) 14479
(0.00886282 0.00377064 0.00367657) 14537
(0.00934054 0.00377041 0.00367827) 14538
(0.00982998 0.00376609 0.00368299) 14539
(0.00874109 0.00500498 0.00439207) 14837
(0.0092114 0.0050066 0.00439136) 14838
(0.00889545 0.0064032 0.00312564) 15257
(0.0093732 0.00640388 0.00312533) 15258
(0.0162414 0.00654192 0.00214991) 13412
(0.0182977 0.00652347 0.00224884) 6096
(0.0160764 0.00470307 0.000993505) 11552
(0.0162278 0.0052685 0.000838311) 11912
(0.0158588 0.00306852 0.00316985) 751
(0.017762 0.00311088 0.00321003) 755
(0.0163292 0.00660294 0.00173441) 2492
(0.0178375 0.00655381 0.00173363) 6755
(0.0088698 0.00639988 0.00288216) 13517
(0.00934863 0.00640092 0.00288141) 13518
(0.00980491 0.00640927 0.00287869) 13519
(0.00877791 0.00419911 0.00184729) 14117
(0.00922718 0.00419808 0.00184529) 14118
(0.00886019 0.00367435 0.00345098) 14477
(0.00935138 0.00367512 0.00345144) 14478
(0.00984445 0.00366938 0.0034529) 14479
(0.0088402 0.00377044 0.0036767) 14537
(0.0093172 0.0037704 0.00367823) 14538
(0.00980631 0.00376625 0.00368285) 14539
(0.00871884 0.0050049 0.00439235) 14837
(0.00918868 0.00500646 0.0043914) 14838
(0.00887259 0.00640341 0.00312572) 15257
(0.00935073 0.00640376 0.00312535) 15258
(0.0182508 0.00652234 0.00224625) 6096
(0.016051 0.00470781 0.000992501) 11612
(0.0161933 0.00527188 0.000839676) 11912
(0.0157458 0.00306437 0.00316962) 751
(0.0177124 0.00311094 0.00320725) 755
(0.0162874 0.0066052 0.00173477) 2492
(0.0177906 0.00655614 0.00173426) 6755
(0.00884679 0.00640009 0.0028821) 13517
(0.00932623 0.0064008 0.00288147) 13518
(0.0097839 0.00640884 0.00287882) 13519
(0.00875623 0.00419893 0.00184723) 14117
(0.00920521 0.0041981 0.00184539) 14118
(0.00883703 0.00367403 0.00345105) 14477
(0.00932772 0.00367511 0.00345144) 14478
(0.00982103 0.00366962 0.00345285) 14479
(0.00881762 0.00377023 0.00367684) 14537
(0.00929389 0.00377038 0.0036782) 14538
(0.00978265 0.00376641 0.00368271) 14539
(0.00869661 0.00500483 0.00439263) 14837
(0.00916598 0.00500632 0.00439144) 14838
(0.00884972 0.00640362 0.00312579) 15257
(0.0093282 0.00640365 0.00312538) 15258
(0.0182022 0.00652131 0.00224351) 6096
(0.0160246 0.0047124 0.000991503) 11612
(0.0161577 0.00527519 0.000840931) 11912
(0.0156216 0.00305929 0.0031699) 751
(0.0176609 0.00311089 0.00320456) 755
(0.0162458 0.00660745 0.001735) 2492
(0.0177395 0.00655875 0.00173458) 6755
(0.00882375 0.00640032 0.00288204) 13517
(0.00930376 0.00640069 0.00288154) 13518
(0.0097628 0.00640841 0.00287894) 13519
(0.00914874 0.00441362 0.00172359) 14058
(0.00873456 0.00419874 0.00184717) 14117
(0.00918324 0.00419812 0.00184548) 14118
(0.0088139 0.0036737 0.00345112) 14477
(0.00930404 0.00367509 0.00345144) 14478
(0.00979759 0.00366985 0.0034528) 14479
(0.00879506 0.00377001 0.00367699) 14537
(0.00927061 0.00377035 0.00367818) 14538
(0.00975898 0.00376656 0.00368258) 14539
(0.00867438 0.00500475 0.00439292) 14837
(0.0091433 0.00500618 0.0043915) 14838
(0.00882683 0.00640384 0.00312588) 15257
(0.00930561 0.00640356 0.0031254) 15258
(0.0181519 0.00652037 0.00224063) 6096
(0.0159973 0.00471685 0.000990509) 11611
(0.0161209 0.00527845 0.00084209) 11912
(0.0154867 0.00305298 0.00317075) 750
(0.0176082 0.00311075 0.00320195) 755
(0.0162035 0.00660969 0.00173506) 2492
(0.0176844 0.00656167 0.00173465) 6755
(0.00880069 0.00640055 0.00288196) 13517
(0.00928123 0.0064006 0.0028816) 13518
(0.00974162 0.006408 0.00287906) 13519
(0.00868323 0.00441327 0.00172483) 14057
(0.00912693 0.00441363 0.00172365) 14058
(0.00871292 0.00419855 0.00184709) 14117
(0.00916128 0.00419812 0.00184556) 14118
(0.0087908 0.00367336 0.00345119) 14477
(0.00928037 0.00367505 0.00345145) 14478
(0.00977412 0.00367007 0.00345276) 14479
(0.00877254 0.00376979 0.00367714) 14537
(0.00924736 0.00377032 0.00367816) 14538
(0.00973531 0.00376671 0.00368245) 14539
(0.00865217 0.00500468 0.00439322) 14837
(0.00912065 0.00500604 0.00439157) 14838
(0.00880393 0.00640407 0.00312596) 15257
(0.00928298 0.00640349 0.00312544) 15258
(0.00974831 0.00641016 0.00312598) 15259
(0.0180992 0.00651951 0.00223755) 6096
(0.0191412 0.00656717 0.00226737) 6098
(0.0159693 0.00472118 0.000989515) 11611
(0.0160832 0.00528167 0.000843162) 11912
(0.0171192 0.00518721 0.000804394) 11914
(0.0153431 0.00304514 0.00317224) 750
(0.0175549 0.00311054 0.00319939) 755
(0.0161602 0.00661188 0.00173488) 2492
(0.0176253 0.00656497 0.00173453) 6755
(0.00877761 0.0064008 0.00288188) 13517
(0.00925864 0.00640053 0.00288165) 13518
(0.00972041 0.0064076 0.00287918) 13519
(0.00866149 0.00441318 0.00172463) 14057
(0.0091051 0.00441364 0.0017237) 14058
(0.00869128 0.00419835 0.00184702) 14117
(0.00913932 0.00419812 0.00184563) 14118
(0.00958704 0.00419331 0.00184041) 14119
(0.00876774 0.00367302 0.00345126) 14477
(0.0092567 0.003675 0.00345146) 14478
(0.00975063 0.00367029 0.00345272) 14479
(0.00875006 0.00376957 0.0036773) 14537
(0.00922416 0.00377027 0.00367815) 14538
(0.00971165 0.00376685 0.00368232) 14539
(0.00862996 0.00500462 0.00439353) 14837
(0.00909802 0.00500591 0.00439166) 14838
(0.00878103 0.00640432 0.00312605) 15257
(0.0092603 0.00640344 0.00312547) 15258
(0.00972683 0.00640978 0.00312597) 15259
(0.0180443 0.00651875 0.00223426) 6096
(0.0191081 0.00656516 0.00226846) 6098
(0.0159404 0.00472541 0.000988518) 11611
(0.0160447 0.00528485 0.000844146) 10112
(0.0171132 0.00519475 0.000809118) 11914
(0.0151961 0.00303579 0.00317436) 750
(0.0174998 0.0031102 0.00319692) 754
(0.0161151 0.006614 0.00173442) 2492
(0.0175624 0.0065687 0.00173426) 6755
(0.0087545 0.00640106 0.0028818) 13517
(0.00923599 0.00640047 0.0028817) 13518
(0.00969912 0.00640721 0.0028793) 13519
(0.00863974 0.0044131 0.00172443) 14057
(0.00908328 0.00441363 0.00172374) 14058
(0.00866966 0.00419815 0.00184694) 14117
(0.00911737 0.0041981 0.00184569) 14118
(0.00956546 0.00419349 0.00184067) 14119
(0.00874471 0.00367266 0.00345133) 14477
(0.00923306 0.00367493 0.00345148) 14478
(0.00972712 0.00367049 0.00345268) 14479
(0.0087276 0.00376934 0.00367747) 14537
(0.00920099 0.00377021 0.00367815) 14538
(0.00968799 0.00376698 0.0036822) 14539
(0.00860776 0.00500455 0.00439384) 14837
(0.00907541 0.00500577 0.00439175) 14838
(0.00875811 0.00640457 0.00312614) 15257
(0.00923758 0.00640341 0.00312551) 15258
(0.00970529 0.0064094 0.00312596) 15259
(0.0179868 0.00651801 0.00223072) 6095
(0.0190746 0.00656314 0.00226933) 6098
(0.015911 0.00472954 0.000987516) 11611
(0.0160052 0.00528801 0.00084505) 10112
(0.0171051 0.00520187 0.000813584) 11914
(0.0150539 0.00302541 0.00317688) 750
(0.0174434 0.00310975 0.00319448) 754
(0.0160683 0.00661603 0.00173363) 2492
(0.0174954 0.00657294 0.00173387) 6754
(0.00873136 0.00640133 0.00288171) 13517
(0.0092133 0.00640044 0.00288174) 13518
(0.00967775 0.00640684 0.00287942) 13519
(0.00861799 0.00441301 0.00172422) 14057
(0.00906145 0.00441362 0.00172377) 14058
(0.00864805 0.00419794 0.00184685) 14117
(0.00909543 0.00419807 0.00184575) 14118
(0.00954385 0.00419366 0.00184092) 14119
(0.00872171 0.00367229 0.0034514) 14477
(0.00920944 0.00367485 0.0034515) 14478
(0.00970361 0.00367068 0.00345264) 14479
(0.00870516 0.0037691 0.00367763) 14537
(0.00917786 0.00377015 0.00367816) 14538
(0.00966434 0.0037671 0.00368208) 14539
(0.00858557 0.00500449 0.00439415) 14837
(0.00905283 0.00500564 0.00439186) 14838
(0.00873519 0.00640483 0.00312623) 15257
(0.00921482 0.00640339 0.00312554) 15258
(0.00968368 0.00640905 0.00312595) 15259
(0.0179262 0.00651735 0.00222692) 6095
(0.0190407 0.00656111 0.00227) 6098
(0.015881 0.00473359 0.000986508) 11611
(0.0159651 0.00529118 0.000845885) 10111
(0.0170949 0.0052086 0.0008178) 11914
(0.0149285 0.00301531 0.0031792) 749
(0.0173855 0.00310916 0.00319209) 754
(0.0160195 0.00661792 0.0017325) 2492
(0.0174238 0.00657777 0.00173336) 6754
(0.00870821 0.00640161 0.00288161) 13517
(0.00919055 0.00640042 0.00288177) 13518
(0.00965629 0.00640648 0.00287954) 13519
(0.00849745 0.00580963 0.00188132) 13756
(0.00859624 0.00441293 0.00172401) 14057
(0.00903962 0.00441361 0.00172378) 14058
(0.00862645 0.00419773 0.00184676) 14117
(0.0090735 0.00419804 0.00184579) 14118
(0.00952221 0.00419383 0.00184116) 14119
(0.00869873 0.00367192 0.00345147) 14477
(0.00918584 0.00367475 0.00345152) 14478
(0.00968007 0.00367087 0.0034526) 14479
(0.00868275 0.00376885 0.0036778) 14537
(0.00915477 0.00377008 0.00367818) 14538
(0.0096407 0.00376721 0.00368196) 14539
(0.00856338 0.00500443 0.00439447) 14837
(0.00903028 0.00500552 0.00439198) 14838
(0.00871226 0.00640509 0.00312633) 15257
(0.00919202 0.00640339 0.00312558) 15258
(0.00966198 0.0064087 0.00312594) 15259
(0.0178627 0.00651678 0.00222292) 6095
(0.0190066 0.00655905 0.00227047) 6098
(0.0158505 0.00473758 0.000985486) 11611
(0.0159243 0.00529434 0.000846652) 10111
(0.0170817 0.00521484 0.000821684) 11914
(0.0148328 0.00300734 0.00318052) 749
(0.0173257 0.0031084 0.00318974) 754
(0.0159684 0.00661961 0.00173095) 2491
(0.0173552 0.00658133 0.00173306) 6754
(0.00868503 0.00640191 0.00288151) 13517
(0.00916776 0.00640042 0.0028818) 13518
(0.00963474 0.00640614 0.00287965) 13519
(0.00847542 0.00580979 0.0018811) 13756
(0.00857448 0.00441283 0.00172378) 14057
(0.00901779 0.0044136 0.00172378) 14058
(0.00860485 0.00419751 0.00184666) 14117
(0.00905159 0.00419799 0.00184583) 14118
(0.00950053 0.00419398 0.00184139) 14119
(0.00867577 0.00367154 0.00345154) 14477
(0.00916226 0.00367464 0.00345155) 14478
(0.00965653 0.00367104 0.00345256) 14479
(0.00866037 0.00376861 0.00367797) 14537
(0.00913172 0.00376999 0.0036782) 14538
(0.00961706 0.00376732 0.00368185) 14539
(0.00854118 0.00500438 0.00439479) 14837
(0.00900775 0.00500539 0.0043921) 14838
(0.00868932 0.00640536 0.00312642) 15257
(0.0091692 0.00640341 0.00312563) 15258
(0.00964022 0.00640838 0.00312593) 15259
(0.0177958 0.00651629 0.00221863) 6095
(0.018972 0.00655698 0.0022707) 6097
(0.0158196 0.0047415 0.000984448) 11611
(0.0158828 0.00529752 0.000847358) 10111
(0.0170662 0.00522067 0.00082528) 11914
(0.0172657 0.00310751 0.00318739) 754
(0.0159144 0.00662109 0.00172893) 2491
(0.0172935 0.00658363 0.00173314) 6754
(0.00866183 0.00640221 0.00288141) 13517
(0.00914494 0.00640044 0.00288183) 13518
(0.00961312 0.00640581 0.00287977) 13519
(0.00845338 0.00580995 0.00188089) 13756
(0.00855271 0.00441274 0.00172355) 14057
(0.00899596 0.00441357 0.00172376) 14057
(0.00943875 0.00441227 0.0017182) 14058
(0.00858326 0.00419729 0.00184656) 14117
(0.00902969 0.00419794 0.00184586) 14118
(0.00947883 0.00419413 0.00184161) 14118
(0.00865283 0.00367115 0.0034516) 14477
(0.00913872 0.00367452 0.00345158) 14478
(0.00963297 0.0036712 0.00345253) 14479
(0.008638 0.00376835 0.00367814) 14537
(0.00910871 0.00376991 0.00367823) 14538
(0.00959344 0.00376742 0.00368174) 14539
(0.00851899 0.00500433 0.00439511) 14837
(0.00898525 0.00500527 0.00439224) 14837
(0.00866638 0.00640564 0.00312652) 15257
(0.00914635 0.00640344 0.00312567) 15258
(0.00961837 0.00640806 0.00312592) 15259
(0.017725 0.00651594 0.00221413) 6095
(0.0189372 0.0065549 0.00227072) 6097
(0.0157884 0.00474537 0.000983388) 11611
(0.0158409 0.00530074 0.000848018) 10111
(0.0170489 0.00522618 0.000828686) 11914
(0.0172042 0.00310644 0.00318508) 754
(0.0172394 0.00658553 0.0017337) 6754
(0.00863861 0.00640252 0.0028813) 13517
(0.00912208 0.00640047 0.00288185) 13518
(0.00959142 0.0064055 0.00287988) 13519
(0.00843134 0.00581011 0.00188067) 13756
(0.00853094 0.00441265 0.00172332) 14057
(0.00897415 0.00441355 0.00172374) 14057
(0.00941729 0.00441236 0.00171846) 14058
(0.00856167 0.00419706 0.00184645) 14117
(0.00900781 0.00419787 0.00184589) 14118