/*--------------------------------*- C++ -*----------------------------------*\
| =========                 |                                                 |
| \\      /  F ield         | OpenFOAM: The Open Source CFD Toolbox           |
|  \\    /   O peration     | Version:  2.1.1                                 |
|   \\  /    A nd           | Web:      www.OpenFOAM.org                      |
|    \\/     M anipulation  |                                                 |
\*---------------------------------------------------------------------------*/
FoamFile
{
    version     2.0;
    format      ascii;
    class       scalarField;
    location    "0.001";
    object      T;
}
// * * * * * * * * * * * * * * * * * * * * * * * * * * * * * * * * * * * * * //


45757
(
551.192
394.03
388.094
382.168
376.351
370.637
365.158
359.829
354.542
349.524
344.816
340.529
336.796
333.697
330.996
328.824
327.222
432.753
425.211
417.634
410.025
402.393
394.788
387.158
379.487
371.623
363.773
355.912
348.06
340.292
332.666
325.237
317.88
310.718
303.834
483.874
297.316
475.875
486.526
291.388
467.831
477.885
286.094
459.709
469.155
281.35
451.454
459.755
277.093
443.019
449.631
273.258
434.285
439.044
425.366
428.72
416.342
418.954
3.91153e+180
411.47
4.72822e+222
406.937
388.77
404.087
379.464
370.219
360.974
351.579
532.169
342.115
525.703
332.622
518.944
323.145
3.91153e+180
313.735
528.945
504.471
304.469
520.825
496.844
295.36
512.431
488.829
286.414
503.852
480.313
277.857
495.107
471.279
269.679
486.183
461.915
261.987
477.081
451.642
254.692
467.795
440.489
3.91153e+180
458.342
428.025
241.246
448.755
414.216
234.852
3.91153e+180
399.923
429.279
383.803
419.154
365.812
408.724
532.669
347.982
1.19354e+190
532.352
331.513
560.347
387.348
2.06697e+161
313.973
553.611
376.463
531.444
295.349
2.06685e+161
365.519
2.06697e+161
539.715
2.06697e+161
530.042
532.55
343.645
529.129
525.185
332.742
568.396
528.055
517.637
321.761
560.464
526.808
6.75387e+87
310.761
2.06697e+161
525.319
502.105
299.813
544.009
523.541
493.996
288.939
535.513
6.75387e+87
9.09155e+223
2.06697e+161
526.817
519.116
476.889
268.106
517.836
467.914
258.253
508.548
458.618
248.722
498.943
448.998
239.576
489.116
573.738
439.166
230.709
479.083
6.75387e+87
428.797
222.107
468.813
573.445
417.625
213.679
4.2695e+257
494.304
572.969
406.186
606.567
447.552
2.06697e+161
572.268
9.09155e+223
4.2695e+257
436.533
489.914
571.347
378.977
590.794
425.326
487.597
570.216
362.787
582.727
413.943
485.179
568.882
346.147
574.546
4.2695e+257
482.64
9.09155e+223
9.09155e+223
566.269
390.096
479.964
565.647
302.266
557.808
366.765
377.745
615.427
477.075
563.779
280.678
549.253
516.409
365.595
403.541
365.219
9.09155e+223
474.036
561.761
260.586
540.468
514.418
364.5
402.234
352.595
600.78
470.844
559.588
531.55
512.333
371.935
363.556
400.954
339.96
593.05
467.505
557.262
562.505
522.45
510.193
370.67
362.68
358.491
399.686
327.352
2.06697e+161
464.004
9.09155e+223
563.003
513.184
507.977
369.494
361.842
357.814
398.422
399.734
314.885
576.862
9.09155e+223
552.17
563.049
503.791
505.896
368.401
380.9
361.025
357.176
397.153
398.971
302.427
568.379
456.387
9.09155e+223
562.857
494.261
503.958
367.376
379.013
360.226
356.573
395.875
398.198
2.06697e+161
559.655
9.09155e+223
546.274
562.457
484.547
502.008
366.419
377.205
359.44
355.998
394.585
397.412
2.06697e+161
550.683
9.09155e+223
9.09155e+223
474.567
500.084
365.524
375.478
358.666
355.449
393.282
396.61
2.06697e+161
541.475
442.862
560.833
464.259
498.243
364.691
373.824
357.903
354.923
391.965
395.786
254.411
532.082
437.762
559.591
453.795
496.356
363.914
372.24
465.89
357.151
354.423
352.617
390.635
394.941
374.028
243.31
9.09155e+223
432.401
558.083
443.153
673.316
494.328
363.193
370.709
463.486
356.411
353.94
351.959
389.292
394.071
385.716
373.028
381.728
232.6
9.09155e+223
426.99
497.875
556.294
432.371
665.579
492.179
362.508
369.226
399.515
461.084
355.668
353.46
351.302
387.935
393.177
392.379
384.31
401.934
372.062
380.141
222.244
502.66
421.612
494.904
554.218
421.43
657.594
489.875
361.847
367.784
396.652
458.676
495.028
354.921
352.98
350.641
386.564
392.25
391.644
382.885
400.512
371.128
378.6
212.286
492.205
9.09155e+223
491.713
551.837
410.423
649.262
487.45
361.203
366.369
393.859
456.263
492.511
354.165
352.488
349.971
385.177
391.292
390.897
381.442
399.087
370.225
377.102
202.387
9.09155e+223
488.379
549.154
399.41
640.716
484.901
542.038
360.572
364.989
391.124
453.844
490.011
353.399
351.984
349.295
383.774
390.299
390.133
380.012
397.662
369.35
375.654
192.882
470.293
484.915
546.179
387.842
631.925
482.204
540.409
359.948
363.635
388.446
451.408
487.521
352.616
351.462
348.607
382.35
389.263
389.347
378.598
396.237
368.499
374.251
458.916
9.09155e+223
542.885
376.067
622.957
479.293
538.553
359.325
362.306
385.81
448.979
485.046
351.81
350.911
347.901
380.901
388.179
388.534
377.204
394.833
367.669
372.887
9.09155e+223
477.54
539.277
364.202
613.846
476.217
536.437
358.698
360.988
383.239
513.25
446.578
482.581
350.974
350.307
347.171
379.423
387.036
387.684
375.84
393.447
366.853
371.545
435.288
9.09155e+223
1.49258e+195
353.634
604.594
473.083
534.091
358.062
359.675
380.748
471.745
510.707
444.205
480.148
350.091
349.637
346.401
377.908
385.816
386.827
374.515
392.074
366.043
370.22
390.86
422.992
653.947
469.586
531.075
9.09155e+223
3.94662e+180
9.09155e+223
469.877
531.589
357.407
358.356
378.34
469.492
508.215
441.858
477.748
516.993
349.143
348.868
345.563
376.342
384.561
385.97
373.228
390.712
365.228
368.896
388.435
410.395
647.384
9.09155e+223
9.09155e+223
562.629
327.536
585.714
466.541
529.022
356.722
357.075
376.012
467.324
505.767
439.55
475.373
514.284
348.091
347.937
344.689
374.764
383.324
385.134
371.974
389.357
364.4
367.616
386.096
397.573
640.537
9.09155e+223
521.485
564.166
314.803
575.954
463.096
526.413
356.069
355.846
373.767
465.228
503.367
437.283
473.021
511.622
347.004
347.058
343.855
373.218
382.121
384.33
370.753
388.012
363.603
366.379
383.845
384.286
633.448
456.247
516.163
565.278
301.244
566.005
459.558
523.706
355.451
354.691
371.623
345.245
463.202
501.009
435.057
470.69
509.006
346.033
346.272
343.107
371.739
380.937
383.548
369.566
386.674
362.834
365.192
381.693
370.519
626.079
451.422
510.538
565.958
287.878
555.824
456.057
520.853
354.897
353.62
369.574
344.384
461.237
498.675
432.867
468.376
506.435
345.159
345.534
342.417
370.31
379.761
382.779
368.412
385.343
362.09
364.072
379.623
356.436
618.491
9.09155e+223
497.198
566.188
545.409
452.659
517.855
354.418
352.625
367.61
343.541
459.322
496.379
538.742
430.714
466.075
503.906
344.354
344.827
341.775
368.918
378.586
382.016
367.292
384.022
361.403
363.005
377.636
342.16
9.09155e+223
441.193
498.217
565.95
534.732
514.759
354.009
351.699
365.736
342.716
457.454
494.109
535.954
428.599
463.787
501.398
343.603
344.142
341.176
367.553
377.406
381.255
366.208
382.702
360.758
361.98
375.72
327.799
9.09155e+223
9.09155e+223
491.519
565.25
523.784
511.526
353.666
350.84
363.939
341.911
455.63
491.843
533.174
426.518
461.516
498.906
342.902
343.474
340.613
366.21
376.217
380.49
365.159
381.381
360.145
360.992
373.865
313.533
9.09155e+223
468.126
430.117
484.442
564.105
512.607
508.185
353.388
350.044
362.22
341.125
453.844
489.575
530.414
424.471
459.246
496.424
342.245
342.821
340.084
364.883
375.016
379.718
364.135
380.06
359.558
360.036
372.073
299.444
585.038
464.522
424.163
476.933
562.64
501.055
504.857
353.168
349.311
360.567
340.362
452.082
487.301
527.668
422.454
456.971
493.957
341.63
342.182
339.588
363.568
373.802
378.936
363.138
378.738
359.11
370.352
285.498
575.942
460.621
417.885
468.966
560.914
489.116
740.576
501.571
353.002
348.638
358.988
339.615
485.023
524.931
420.47
454.69
491.493
341.053
341.554
339.122
362.265
372.574
378.141
362.169
377.413
358.21
368.699
271.767
566.616
456.42
411.258
460.58
558.909
477.004
733.984
498.187
352.885
348.024
357.487
338.882
482.734
522.186
418.52
452.398
489.027
340.509
340.938
338.688
360.973
371.33
377.329
361.229
376.084
357.337
367.115
9.09155e+223
557.078
451.902
404.307
451.794
556.612
464.621
727.019
494.579
352.805
347.465
356.04
338.158
480.43
519.435
416.599
450.101
486.558
340
340.33
338.271
359.69
370.07
376.496
360.314
374.747
356.489
365.594
245.592
547.331
447.064
9.09155e+223
522.504
442.634
554.044
452.051
719.757
490.752
566.119
352.757
346.939
354.636
337.444
478.105
516.722
414.705
447.798
484.088
339.523
339.712
337.858
358.422
368.793
375.64
359.422
373.401
355.664
364.131
233.256
537.369
442.001
389.646
519.217
434.492
551.158
439.268
712.138
486.688
566.048
352.736
346.432
353.274
336.75
475.759
514.037
412.841
445.487
481.612
339.07
339.081
337.448
357.171
367.499
374.76
358.55
372.041
354.863
362.712
221.455
527.192
437.38
382.129
515.654
427.899
547.977
426.413
704.159
482.405
565.627
352.734
345.937
351.943
473.388
511.385
411.004
443.163
479.151
338.635
338.432
337.036
355.935
366.188
373.851
357.693
370.681
354.082
361.344
2.06697e+161
516.84
433.428
446.017
374.299
511.824
421.114
544.457
413.45
695.879
477.887
564.898
352.744
345.449
350.643
471.044
508.758
409.195
440.823
476.71
338.216
337.763
336.611
354.715
364.857
372.909
369.336
353.315
360.021
199.141
2.06697e+161
9.09155e+223
445.139
366.041
507.774
540.612
400.481
687.273
473.148
563.914
352.753
344.963
349.369
468.73
506.162
407.411
438.477
474.293
337.806
337.07
336.164
353.509
363.505
371.928
368.007
352.559
358.736
2.06697e+161
495.447
424.713
444.1
357.453
503.553
536.43
387.629
678.354
468.136
562.668
352.759
344.474
348.115
466.443
503.611
405.649
436.156
471.893
337.402
336.349
335.684
352.311
362.128
370.9
366.697
351.81
357.483
484.151
9.09155e+223
442.887
533.878
533.878
533.878
348.683
499.164
531.905
562.054
374.889
669.145
462.854
561.204
343.977
346.877
464.19
501.121
403.902
433.86
469.511
336.996
335.59
335.157
351.12
360.724
369.818
365.416
351.065
356.252
472.354
441.487
533.895
2.06697e+161
533.895
9.09155e+223
494.155
527.042
565.028
362.36
659.703
457.349
559.508
343.467
345.65
461.977
498.688
402.194
431.59
467.165
336.581
334.789
334.565
349.93
359.282
368.688
364.175
350.314
355.033
2.06697e+161
686.152
439.898
533.815
533.815
533.815
489.89
521.83
567.598
350.504
649.929
451.64
557.59
342.937
344.424
459.838
496.311
400.527
429.345
464.852
336.146
333.93
333.878
348.733
357.804
367.545
362.967
349.547
353.82
447.574
9.09155e+223
9.09155e+223
533.64
533.64
533.64
484.942
516.254
569.75
339.263
639.829
445.69
555.44
342.394
343.251
457.762
493.982
398.905
427.144
462.568
335.671
332.978
333.096
347.526
356.337
366.41
361.793
348.772
352.648
2.06697e+161
673.997
436.148
533.349
533.349
533.349
479.76
510.317
571.493
327.573
629.537
439.482
553.056
341.88
342.128
455.746
491.692
397.326
424.99
460.308
335.208
332.038
332.347
346.35
354.886
365.301
360.651
348.019
351.516
421.374
2.06697e+161
9.09155e+223
4.2695e+257
532.935
532.935
474.34
504.027
572.817
316.247
619.028
432.933
550.513
341.395
341.064
453.788
489.447
395.789
422.88
458.072
334.778
331.171
331.672
345.2
353.491
364.208
359.532
347.286
350.422
407.769
9.09155e+223
499.037
431.587
532.404
532.404
532.404
468.681
497.414
573.769
308.309
608.246
426.052
547.837
340.96
340.081
451.884
487.241
420.808
455.855
334.39
330.386
331.039
344.08
352.133
363.12
358.443
346.573
349.396
393.813
9.09155e+223
9.09155e+223
428.997
531.737
531.737
531.737
462.769
490.346
574.295
297.755
597.124
418.895
544.988
340.592
339.174
450.035
485.073
418.765
453.654
334.089
329.662
330.435
343.02
350.808
362.032
357.387
345.911
348.422
2.06697e+161
646.408
9.09155e+223
426.196
9.09155e+223
530.925
530.925
456.586
482.859
574.364
288.912
585.703
411.61
541.945
340.287
338.338
448.236
482.912
416.757
451.469
333.865
328.988
329.849
342.01
349.506
360.939
356.366
345.286
347.491
364.951
638.876
490.429
423.166
529.945
529.945
529.945
536.701
450.111
474.983
573.971
280.655
574.039
404.146
538.728
340.039
337.568
446.48
480.749
414.778
449.297
333.705
328.358
329.279
341.038
348.223
359.838
355.374
344.689
346.597
349.853
631.103
486.793
9.09155e+223
3.94662e+180
9.09155e+223
528.821
529.15
443.36
466.707
573.122
562.093
804.139
396.513
535.391
339.845
336.862
444.75
478.58
412.834
447.126
333.601
327.767
328.719
340.096
346.954
358.725
354.404
344.114
345.733
334.551
9.09155e+223
482.733
527.521
527.521
527.521
521.238
436.305
458.038
571.815
549.691
799.352
388.832
532.034
339.703
336.216
443.027
476.406
410.918
444.951
333.544
327.211
328.169
339.175
345.696
357.599
353.455
343.555
344.898
2.06697e+161
614.735
9.09155e+223
526.071
526.071
526.071
533.256
533.256
533.256
513.028
428.931
448.962
570.079
536.941
794.208
381.275
528.638
339.607
335.629
441.31
474.213
409.029
442.763
333.524
326.687
327.628
338.268
344.446
356.46
352.526
343.01
344.088
303.791
606.075
2.06697e+161
524.251
9.09155e+223
524.251
533.942
533.942
533.942
504.579
421.154
439.396
568.057
523.985
788.709
374.047
525.037
339.553
335.098
439.599
472.007
407.164
440.568
333.528
326.192
327.095
337.369
343.204
355.304
351.618
342.472
343.302
288.55
9.09155e+223
467.762
521.871
521.871
521.871
534.466
534.466
534.466
495.91
412.953
429.307
565.826
510.691
782.852
366.713
521.168
587.214
339.533
334.624
437.892
469.783
405.321
438.364
333.548
325.725
326.558
336.478
341.97
354.129
350.728
341.943
342.535
273.518
587.747
461.756
534.611
534.611
534.611
487.204
404.34
564.857
418.716
563.364
496.965
776.643
517.067
588.785
339.537
334.169
436.188
467.536
403.502
436.153
333.58
325.277
326.006
335.592
340.745
352.935
349.856
341.419
341.783
396.821
2.06697e+161
455.229
9.09155e+223
534.426
534.426
534.426
478.399
395.371
562.092
407.692
560.646
482.902
770.045
512.695
589.962
339.555
333.724
434.487
465.257
401.711
433.931
333.629
324.841
325.437
334.719
339.531
351.721
348.999
340.9
341.041
244.529
568.234
448.18
454.912
533.985
533.985
533.985
469.386
386.118
559.059
396.44
557.663
469.522
763.103
508.031
590.754
339.578
333.286
432.78
463
399.944
431.697
333.687
324.411
324.85
333.868
338.329
350.487
348.154
340.387
340.308
230.753
9.09155e+223
440.68
453.486
533.414
533.414
533.414
460.22
376.518
555.731
386.62
554.386
508.993
755.795
503.086
591.17
339.599
332.85
431.065
460.763
398.2
429.451
333.744
323.985
324.241
391.475
391.475
391.475
333.043
337.136
349.23
347.334
339.881
339.582
474.215
460.269
217.484
9.09155e+223
433.213
451.899
532.736
532.736
532.736
450.974
366.453
552.132
377.14
550.821
438.841
748.146
497.825
591.284
339.613
332.413
429.374
458.546
396.479
427.225
333.795
323.561
323.608
391.48
391.48
391.48
332.246
335.951
347.949
346.552
339.381
338.861
474.199
461.497
2.06697e+161
537.43
9.09155e+223
450.145
531.936
531.936
531.936
441.708
356.04
548.323
367.459
546.96
423.931
740.106
492.232
591.131
339.616
331.973
427.717
456.359
394.779
425.023
333.829
323.137
322.951
391.507
391.507
391.507
331.474
334.775
346.645
375.568
345.806
338.885
338.142
395.906
491.306
474.164
463.094
2.06697e+161
526.748
418.171
448.212
530.997
530.997
530.997
432.505
345.398
544.324
357.625
542.808
409.281
731.753
486.301
590.711
339.602
331.522
359.435
426.11
454.204
393.116
422.841
403.513
403.513
403.513
333.836
322.706
322.264
391.544
391.544
391.544
330.722
333.599
345.312
375.703
345.095
338.388
337.419
398.151
493.714
474.338
465.114
2.06697e+161
515.805
721.796
410.115
446.085
529.821
529.821
529.821
423.52
334.574
540.114
347.691
538.322
573.536
394.78
723.024
480.017
590.049
339.565
331.054
488.161
359.359
443.58
424.55
452.101
391.501
420.682
430.023
403.71
403.71
403.71
333.805
322.259
321.539
391.578
391.578
391.578
329.984
332.42
343.945
375.809
344.418
337.884
336.683
400.726
496.345
475.09
467.534
641.485
504.642
716.719
9.09155e+223
443.747
528.43
528.43
528.43
323.617
535.693
337.697
533.535
576.568
380.491
714.006
473.383
589.168
339.498
330.565
488.345
359.291
443.365
423.037
450.067
389.934
418.544
430.44
399.7
403.869
403.869
403.869
333.728
321.789
320.758
391.6
391.6
391.6
359.295
329.248
331.229
342.567
375.896
343.773
537.675
337.368
335.924
403.361
498.934
982.565
885.118
476.246
470.752
638.516
493.254
711.354
393.104
441.181
526.874
526.874
526.874
312.49
531.014
528.391
579.189
366.359
704.642
466.387
587.956
339.42
330.077
488.463
359.221
443.129
421.564
448.084
388.411
416.447
430.805
399.734
404.037
404.037
404.037
333.62
321.29
319.929
391.6
391.6
391.6
359.108
328.505
330.036
341.188
375.99
343.177
536.642
336.837
335.164
759.271
406.171
501.976
833.301
981.941
883.068
477.925
476.157
636.399
901.423
481.508
705.683
384.262
536.22
438.395
525.079
525.079
525.079
301.189
526.059
522.89
581.399
352.555
695.019
458.979
586.298
339.34
329.607
488.584
359.146
442.892
420.161
446.157
386.937
414.391
431.143
399.78
404.206
404.206
404.206
333.508
320.813
319.114
391.597
391.597
391.597
358.931
338.293
327.788
328.87
339.819
376.119
342.625
535.576
336.315
334.416
810.464
808.799
756.826
409.681
506.407
833.063
975.588
880.949
479.516
486.804
636.034
942.981
840.77
900.678
469.186
699.702
534.637
435.388
523.052
523.052
523.052
289.766
520.841
517.061
583.241
339.258
685.191
451.19
584.24
339.263
329.161
488.73
359.071
442.68
418.841
444.282
444.865
444.865
444.865
385.513
412.377
431.465
399.831
404.371
404.371
404.371
333.39
320.368
318.346
391.604
391.604
391.604
358.77
337.886
327.097
327.729
338.494
376.287
342.118
534.471
335.806
333.687
787.414
807.852
754.085
836.165
962.418
878.982
862.453
920.874
488.648
639.07
933.424
1060.06
901.386
456.342
693.378
532.767
2.06697e+161
520.752
520.752
520.752
590.961
278.264
515.316
510.898
584.753
326.452
675.061
442.982
581.853
339.187
328.755
488.859
358.997
442.478
417.595
442.462
445.4
445.4
445.4
384.155
410.403
431.758
399.895
404.546
404.546
404.546
333.263
319.957
317.649
391.615
391.615
391.615
358.619
337.49
326.429
326.615
337.203
376.481
341.653
533.332
335.307
332.973
759.472
807.552
752.155
946.76
877.041
863.087
906.693
491.299
645.747
920.115
981.503
891.778
443.024
686.768
530.594
428.663
518.169
518.169
518.169
583.742
509.489
504.344
585.919
315.128
664.63
434.315
579.21
339.126
328.403
488.97
358.925
442.291
416.418
440.69
445.897
445.897
445.897
382.861
408.461
432.022
399.942
404.737
404.737
404.737
333.127
319.615
317.005
391.633
391.633
391.633
358.478
337.105
325.783
325.548
335.939
376.701
362.815
341.23
532.156
334.817
332.305
764.02
805.647
750.82
926.293
876.423
857.691
897.294
494.048
901.564
898.449
429.221
9.09155e+223
528.067
424.93
488.507
515.296
515.296
515.296
541.234
541.234
541.234
575.91
503.34
451.248
497.328
586.699
303.457
653.827
425.224
576.36
339.093
328.101
489.049
358.86
346.773
442.117
415.306
438.967
446.354
446.354
446.354
381.63
406.55
432.258
423.122
399.972
404.939
404.939
404.939
373.129
332.986
319.343
316.405
391.662
391.662
391.662
358.347
336.73
325.159
324.528
334.697
376.951
363.495
340.848
530.946
334.346
331.67
766.901
804.587
747.74
692.035
903.61
874.521
854.728
895.722
496.755
607.226
897.912
897.709
414.954
672.769
525.159
420.949
485.31
512.122
512.122
512.122
542.937
542.937
542.937
567.468
496.855
449.59
489.877
587.064
292.526
642.714
856.508
415.833
573.278
339.081
327.847
489.064
358.803
346.707
441.952
414.257
437.294
446.768
446.768
446.768
380.457
404.675
432.465
424.831
399.986
405.154
405.154
405.154
373.029
332.874
319.13
315.842
391.704
391.704
391.704
358.227
336.367
324.577
323.547
333.471
377.238
364.221
340.507
529.703
333.9
331.062
770.667
803.492
746.579
687.971
882.144
872.424
893.337
499.509
507.369
900.843
896.753
400.163
9.09155e+223
521.783
416.716
481.722
508.642
508.642
508.642
544.293
544.293
544.293
558.647
490.024
447.638
481.997
587.032
282.81
631.238
852.854
406.229
570.018
339.083
327.637
489.005
498.586
358.757
346.639
441.798
413.264
435.634
447.149
447.149
447.149
379.342
402.827
432.625
426.496
399.971
405.415
405.415
405.415
372.939
332.783
318.969
315.313
391.776
391.776
391.776
358.118
336.025
324.03
322.597
332.258
377.515
364.956
340.207
528.427
333.471
330.474
774.651
802.452
745.762
685.19
863.055
870.563
790.951
896.194
499.893
502.506
897.066
895.65
384.875
9.09155e+223
517.918
412.233
477.738
504.856
504.856
504.856
545.302
545.302
545.302
549.228
482.85
445.312
473.679
586.595
273.38
619.36
848.931
396.398
566.575
339.091
327.468
488.872
499.511
358.72
346.571
441.661
464.056
412.328
433.974
447.499
447.499
447.499
378.285
401.009
432.738
428.113
399.924
405.766
405.766
405.766
372.912
332.704
318.847
314.815
391.892
391.892
391.892
358.044
335.72
323.506
321.669
331.056
377.747
365.648
339.934
527.127
333.05
329.901
775.115
801.366
744.969
683.789
847.259
869.734
785.902
937.988
839.998
838.185
909.357
891.432
500.99
503.372
896.153
893.93
9.09155e+223
650.293
513.539
407.437
473.364
500.764
500.764
500.764
545.956
545.956
545.956
539.166
475.322
442.692
464.935
585.757
263.785
607.132
844.732
386.382
562.924
339.098
327.339
488.66
500.417
358.692
346.503
441.538
463.78
411.432
432.315
447.821
447.821
447.821
377.286
399.214
432.803
429.677
399.851
406.203
406.203
406.203
372.945
350.24
332.631
318.757
314.346
392.048
392.048
392.048
358.007
335.446
322.996
320.756
329.862
377.937
366.298
339.679
525.817
332.633
329.339
775.05
799.963
744.981
682.955
834.027
870.045
782.248
944.802
840.131
833.125
899.972
935.049
899.401
816.735
503.443
503.012
897.067
895.052
872.991
353.112
642.438
508.646
402.309
468.604
496.362
496.362
496.362
546.273
546.273
546.273
557.653
1900.74
467.441
439.764
455.763
584.512
594.727
840.225
376.282
559.033
601.241
339.098
327.247
488.363
501.294
358.67
346.435
441.436
463.512
410.573
430.664
448.109
448.109
448.109
423.959
376.344
397.436
432.82
431.186
399.748
392.22
406.719
406.719
406.719
373.031
350.134
332.558
318.692
313.904
392.233
392.233
392.233
358.001
335.196
322.497
319.855
328.673
378.086
366.907
405.503
339.449
524.5
360.721
332.215
328.783
776.619
798.04
744.266
682.337
823.91
870.003
778.943
953.38
843.068
827.504
887.517
905.483
920.558
809.884
506.642
503.513
896.134
895.47
831.465
336.654
634.411
503.235
396.855
463.467
491.663
491.663
491.663
546.243
546.243
546.243
549.747
517.221
459.307
436.407
446.168
582.872
561.601
582.007
835.421
366.257
554.871
605.132
339.084
327.194
488.007
502.139
358.659
346.368
441.35
463.26
410.366
409.747
429.01
448.362
448.362
448.362
425.247
375.459
395.677
432.791
432.637
399.61
392.425
407.3
407.3
407.3
373.167
350.042
332.483
318.643
313.491
392.441
392.441
392.441
358.02
334.968
322.007
318.966
327.486
378.197
367.475
406.093
339.24
523.168
360.419
331.796
328.231
780.617
794.997
743.551
681.04
817.176
870.06
775.991
845.187
820.279
873.786
878.214
955.197
818.628
513.906
504.827
892.842
908.747
805.219
320.103
9.09155e+223
497.295
391.081
473.84
457.955
486.402
486.402
6.22655e+228
545.827
545.827
545.827
541.399
505.41
450.549
599.414
436.101
580.965
562.35
568.817
830.298
356.33
550.435
608.369
339.052
327.155
487.62
502.958
358.663
346.302
441.281
463.022
411.001
408.955
427.356
448.576
448.576
448.576
426.533
374.629
393.938
432.709
434.026
399.451
392.633
407.94
407.94
407.94
373.349
349.963
332.399
318.597
313.092
392.668
392.668
392.668
358.059
334.757
321.526
318.085
326.304
378.272
368.001
406.64
339.052
521.833
360.135
331.375
327.682
787.625
787.179
743.136
679.472
813.222
871.31
773.339
848.419
815.362
857.433
849.317
832.469
521.786
504.918
880.477
1022.54
807.455
9.09155e+223
617.885
490.83
385.009
472.485
452.077
480.657
480.657
480.657
545.04
545.04
545.04
532.672
493.054
441.469
596.835
425.56
578.851
562.927
555.119
824.896
346.322
545.732
610.987
339
327.114
487.186
503.757
358.683
346.236
441.219
462.802
411.724
408.194
425.697
427.816
378.732
373.855
392.222
432.579
435.365
392.845
408.631
408.631
408.631
373.573
349.899
332.309
318.554
312.695
392.91
392.91
392.91
358.113
334.564
321.054
317.222
325.129
378.311
368.477
407.143
338.881
520.487
359.871
330.95
327.136
989.665
763.646
741.763
678.637
808.988
872.26
770.988
852.139
811.657
852.577
812.023
507.652
857.069
1096.45
807.368
287.458
609.426
9.09155e+223
378.661
471.024
445.841
474.571
474.571
474.571
543.957
543.957
543.957
523.604
480.344
432.002
594.025
414.588
576.514
563.32
540.889
819.167
336.488
540.745
613.173
338.932
327.065
486.723
504.535
358.721
346.17
441.147
462.6
412.564
407.45
424.027
429.095
379.423
373.137
390.527
432.414
436.656
393.058
409.366
409.366
409.366
373.838
349.85
332.219
318.512
312.301
393.162
393.162
393.162
358.18
334.389
320.602
316.382
323.959
378.322
368.921
407.595
338.72
519.137
359.626
330.526
326.593
988.351
731.715
741.05
677.923
805.225
874.281
768.689
857.186
808.651
778.565
859.586
797.089
509.505
839.727
1082.87
806.568
2.06697e+161
600.802
9.09155e+223
371.993
469.446
439.255
468.04
468.04
468.04
542.646
542.646
542.646
514.237
467.313
422.128
591.002
403.217
573.929
563.523
525.905
813.148
327.06
535.482
614.937
338.839
327.003
486.236
505.289
358.779
346.109
441.078
462.413
413.497
406.731
422.36
430.396
406.592
380.209
372.476
388.851
432.22
437.893
393.27
410.147
410.147
410.147
374.147
349.818
332.123
318.461
311.904
393.445
393.445
393.445
358.265
334.239
320.176
315.565
322.793
378.324
369.347
407.994
338.567
517.776
359.404
347.845
330.105
326.051
986.96
708.635
740.27
677.272
802.618
874.427
766.324
860.089
805.05
776.084
798.061
513.698
830.522
925.816
805.683
256.62
591.908
468.376
364.921
467.742
432.338
461.085
461.085
461.085
541.193
541.193
541.193
504.619
453.967
411.803
587.76
391.606
571.071
563.532
510.033
806.823
317.154
529.939
616.274
338.717
326.923
485.732
506.016
358.855
346.053
337.07
441.015
462.242
440.746
414.506
406.039
420.729
431.717
408.444
381.085
371.869
387.191
431.999
439.078
393.482
410.961
410.961
410.961
374.495
349.801
332.022
318.398
311.504
393.758
393.758
393.758
358.379
334.118
319.777
314.774
321.628
378.319
369.755
408.336
338.439
443.911
359.21
347.568
329.687
325.508
984.616
701.574
739.467
676.658
802.15
870.513
764.144
861.143
803.923
776.532
801.568
888.347
736.195
519.432
824.261
859.601
804.272
242.086
582.74
9.09155e+223
465.883
425.116
453.721
453.721
453.721
540.391
539.61
539.61
494.786
440.376
401.113
584.296
380.784
567.927
563.371
493.703
800.196
524.103
617.24
338.561
326.821
485.211
506.714
358.954
346.003
337.133
440.934
462.092
443.197
415.587
405.403
419.139
433.055
410.383
382.05
371.315
385.547
431.75
440.217
432.053
393.694
411.794
411.794
411.794
374.877
349.797
331.909
318.324
311.096
394.093
394.093
394.093
358.521
334.024
319.403
314.006
320.461
378.307
370.147
358.571
408.633
349.016
338.335
444.213
359.057
347.316
329.271
324.962
965.571
702.928
738.524
676.104
802.863
860.935
762.279
869.394
803.644
775.544
803.119
882.14
731.138
526.671
819.324
840.249
802.454
228.154
573.286
451.055
463.852
417.6
445.972
445.972
445.972
537.891
537.891
537.891
484.67
426.627
390.092
580.637
370.004
564.484
563.058
477.062
793.291
517.986
617.871
338.367
326.695
484.655
507.381
359.071
345.96
337.196
440.856
461.96
445.693
416.789
404.842
417.591
434.401
412.407
383.102
370.81
383.947
431.48
441.31
434.932
393.914
412.624
412.624
412.624
375.284
349.8
331.778
318.236
310.679
394.442
394.442
394.442
358.691
333.954
319.051
313.259
319.289
378.285
370.523
359.34
408.899
349.292
338.255
444.452
358.946
347.092
337.643
328.854
324.408
908.102
928.489
709.406
737.248
675.061
804.971
849.516
760.738
878.117
805.076
774.265
802.364
879.981
727.504
532.305
815.966
814.629
797.212
2.06697e+161
563.543
3.94662e+180
441.873
461.671
437.869
437.869
437.869
536.022
536.022
536.022
412.813
378.777
576.822
359.092
560.741
562.585
460.146
786.061
511.561
618.215
347.915
338.133
326.542
508.034
359.205
345.93
337.264
327.618
440.791
461.85
448.293
418.118
404.359
416.082
435.746
414.503
384.242
370.367
382.392
431.188
442.358
437.812
394.166
375.704
349.806
331.624
318.118
310.245
394.793
394.793
394.793
358.884
333.906
318.717
312.526
318.108
378.256
370.886
360.128
409.133
383.406
349.592
338.196
444.645
346.893
337.343
328.432
323.841
895.519
892.878
714.083
736.3
673.074
807.702
837.3
759.576
885.957
805.962
770.871
874.307
724.388
539.232
813.632
812.07
797.017
202.118
553.489
744.508
432.315
567.937
459.338
429.441
429.441
429.441
533.979
533.979
533.979
399.051
367.202
572.85
348.071
556.684
584.607
561.956
443.128
778.51
504.86
618.183
347.637
337.872
326.364
508.675
516.184
359.357
345.914
337.334
327.71
461.765
451.007
419.565
403.954
414.613
437.074
416.676
385.478
369.993
380.883
443.363
440.721
394.448
376.122
349.812
331.442
317.963
309.788
395.141
395.141
395.141
359.096
333.878
318.397
311.802
316.919
378.221
371.239
360.934
409.333
384.051
349.913
338.154
444.788
346.719
337.044
327.999
323.254
882.384
868.395
717.819
735.207
671.229
825.54
758.634
893.33
808.02
768.033
892.305
877.068
765.453
722.081
811.288
811.138
793.728
189.986
9.09155e+223
739.811
422.419
567.05
456.83
531.735
531.735
531.735
385.432
355.412
568.703
336.984
552.315
587.955
561.111
426.158
770.63
497.852
617.659
347.371
337.598
326.189
509.301
517.881
345.911
337.412
327.811
461.715
483.11
453.814
421.129
403.63
413.19
438.384
418.928
386.808
369.687
379.419
444.329
443.65
394.758
376.538
349.822
331.26
317.797
309.323
359.322
333.863
318.084
311.079
315.747
378.175
371.58
361.761
409.499
384.694
350.257
338.129
444.887
346.567
336.742
327.553
322.659
870.24
722.972
733.25
669.362
814.432
757.817
899.877
810.047
766.148
875.788
858.859
889.083
752.91
720.177
810.894
792.788
2.06697e+161
734.764
9.09155e+223
565.994
454.132
529.315
529.315
529.315
372.075
343.466
564.372
325.872
547.635
590.94
559.922
409.3
762.401
490.52
616.636
347.117
337.312
326.015
509.908
519.605
345.933
337.491
327.921
461.7
483.37
456.718
422.845
403.388
411.845
439.678
421.253
388.234
369.45
378
445.28
446.602
395.093
376.987
349.86
331.086
317.631
308.88
359.558
333.864
317.788
310.386
314.601
378.123
371.92
362.644
409.631
385.339
350.62
338.126
444.942
346.429
336.449
327.114
322.076
860.336
729.938
731.305
667.578
803.998
757.102