/*--------------------------------*- C++ -*----------------------------------*\
| =========                 |                                                 |
| \\      /  F ield         | OpenFOAM: The Open Source CFD Toolbox           |
|  \\    /   O peration     | Version:  2.1.1                                 |
|   \\  /    A nd           | Web:      www.OpenFOAM.org                      |
|    \\/     M anipulation  |                                                 |
\*---------------------------------------------------------------------------*/
FoamFile
{
    version     2.0;
    format      ascii;
    class       vectorField;
    location    "0.001";
    object      U;
}
// * * * * * * * * * * * * * * * * * * * * * * * * * * * * * * * * * * * * * //


45757
(
(-0.443495 -0.0147502 0.0147131)
(18.827 -0.618826 -0.489245)
(18.7374 -0.622843 -0.489284)
(18.6374 -0.625993 -0.488837)
(18.5326 -0.628816 -0.488182)
(18.4218 -0.631968 -0.487578)
(18.313 -0.63379 -0.48605)
(18.2042 -0.632268 -0.482777)
(18.0555 -0.635497 -0.483605)
(17.8962 -0.637508 -0.484318)
(17.7242 -0.638113 -0.484891)
(17.5418 -0.638453 -0.485706)
(17.3457 -0.640013 -0.487447)
(17.1397 -0.64149 -0.489383)
(16.914 -0.642175 -0.491509)
(16.6782 -0.640532 -0.49262)
(16.4417 -0.636198 -0.492356)
(19.1299 -0.615583 -0.500845)
(19.0755 -0.623059 -0.506698)
(19.0166 -0.630413 -0.511945)
(18.9546 -0.638054 -0.516674)
(18.8891 -0.646041 -0.520916)
(18.8222 -0.652851 -0.523865)
(18.7663 -0.653334 -0.522762)
(18.6832 -0.65868 -0.524533)
(18.5735 -0.667544 -0.528267)
(18.4572 -0.675528 -0.531539)
(18.3292 -0.682563 -0.534454)
(18.1926 -0.688568 -0.537024)
(18.0482 -0.694565 -0.539476)
(17.8954 -0.7012 -0.542285)
(17.7406 -0.705873 -0.544212)
(17.5582 -0.712142 -0.548141)
(17.3596 -0.716865 -0.551976)
(17.1467 -0.719491 -0.555502)
(19.2979 -0.589562 -0.454714)
(16.9164 -0.722092 -0.559559)
(19.2675 -0.599007 -0.465941)
(8.60164 -0.441483 0.444319)
(16.6809 -0.724707 -0.564141)
(19.2377 -0.606179 -0.475433)
(8.40062 -0.449251 0.445372)
(16.4489 -0.724694 -0.567729)
(19.2123 -0.610027 -0.48301)
(8.18897 -0.456733 0.446749)
(16.2196 -0.719899 -0.569166)
(19.1913 -0.609992 -0.488313)
(7.95649 -0.464898 0.448988)
(15.9893 -0.709972 -0.56749)
(19.1549 -0.614983 -0.495733)
(7.69752 -0.474288 0.452478)
(15.7588 -0.697044 -0.563438)
(19.1016 -0.62499 -0.505161)
(7.40726 -0.485412 0.45751)
(19.0394 -0.636359 -0.514808)
(7.08164 -0.499001 0.464267)
(18.9716 -0.647615 -0.52397)
(6.72059 -0.515376 0.472451)
(18.8977 -0.65856 -0.532598)
(6.32579 -0.53528 0.482564)
(18.8168 -0.669286 -0.540622)
(5.89822 -0.559798 0.494933)
(18.7281 -0.680459 -0.548217)
(5.45062 -0.589069 0.509119)
(18.6319 -0.692435 -0.555526)
(18.5331 -0.704029 -0.561859)
(18.4378 -0.71035 -0.564809)
(18.3081 -0.722135 -0.57112)
(10.1251 -0.400785 0.460418)
(18.1596 -0.735027 -0.578277)
(9.9941 -0.406492 0.457102)
(17.9962 -0.746963 -0.585182)
(9.85707 -0.412529 0.454264)
(17.8174 -0.757247 -0.591684)
(9.71023 -0.419213 0.452178)
(17.6254 -0.767224 -0.598215)
(19.4164 -0.523428 -0.358388)
(9.55736 -0.426355 0.450476)
(17.4209 -0.777891 -0.605306)
(19.3973 -0.535764 -0.37625)
(9.39362 -0.434275 0.449325)
(17.2014 -0.788885 -0.612853)
(19.3748 -0.549537 -0.394716)
(9.22163 -0.442596 0.448596)
(16.9663 -0.797476 -0.620186)
(19.3482 -0.56304 -0.412517)
(9.04176 -0.451205 0.448228)
(16.7284 -0.799993 -0.626251)
(19.3168 -0.576061 -0.429445)
(8.85382 -0.459714 0.448108)
(16.4831 -0.797079 -0.630217)
(19.281 -0.588834 -0.445602)
(8.65253 -0.468503 0.448227)
(16.2358 -0.791646 -0.632081)
(19.2416 -0.601332 -0.460795)
(8.44371 -0.47682 0.448546)
(15.9871 -0.785401 -0.633528)
(19.199 -0.613619 -0.475048)
(8.224 -0.484756 0.449148)
(15.7331 -0.774765 -0.633142)
(19.153 -0.625741 -0.488349)
(7.98069 -0.493531 0.450671)
(15.4677 -0.758375 -0.629023)
(19.1051 -0.636801 -0.500308)
(7.70868 -0.503586 0.453419)
(15.1935 -0.737294 -0.621487)
(19.0599 -0.643884 -0.509815)
(7.40028 -0.515815 0.457722)
(19.0174 -0.646894 -0.517005)
(7.0574 -0.530483 0.463553)
(18.9531 -0.656702 -0.527164)
(6.67447 -0.548557 0.471345)
(18.8692 -0.671155 -0.539094)
(6.06771 -0.53179 -0.352699)
(6.25534 -0.570835 0.481496)
(18.7753 -0.685808 -0.550718)
(6.01127 -0.522665 -0.357129)
(5.79569 -0.599253 0.494601)
(10.932 -0.394025 0.489998)
(18.6722 -0.700275 -0.561912)
(5.95237 -0.513819 -0.361692)
(5.32876 -0.631279 0.508781)
(10.8169 -0.398233 0.484878)
(18.5591 -0.714511 -0.572667)
(5.89156 -0.50521 -0.366308)
(4.87688 -0.666008 0.523634)
(10.6974 -0.40272 0.479952)
(18.4367 -0.729268 -0.583022)
(5.82916 -0.496814 -0.370961)
(10.5725 -0.407562 0.475261)
(18.3043 -0.74493 -0.593129)
(5.76495 -0.488648 -0.375674)
(10.4412 -0.412798 0.47085)
(18.1618 -0.760895 -0.602632)
(5.69917 -0.480699 -0.380431)
(10.3031 -0.418611 0.466703)
(18.006 -0.774752 -0.610934)
(19.437 -0.480199 -0.257459)
(5.63186 -0.472943 -0.385242)
(10.1602 -0.424822 0.462936)
(17.82 -0.791721 -0.62138)
(19.4302 -0.495857 -0.27964)
(5.56294 -0.465413 -0.390107)
(10.0093 -0.43171 0.459818)
(17.6132 -0.807362 -0.631644)
(19.4183 -0.508874 -0.299843)
(5.49166 -0.458067 -0.395048)
(9.85067 -0.439316 0.457341)
(17.3855 -0.820598 -0.641425)
(19.4055 -0.518479 -0.318087)
(5.41743 -0.450862 -0.400088)
(9.68577 -0.447522 0.455201)
(17.137 -0.833653 -0.651621)
(19.3938 -0.523873 -0.334495)
(5.34085 -0.443723 -0.405233)
(9.51132 -0.456446 0.45351)
(16.8836 -0.84393 -0.661343)
(19.3812 -0.527646 -0.350149)
(5.26122 -0.436674 -0.410495)
(9.33176 -0.465583 0.452043)
(16.6293 -0.850196 -0.670157)
(19.3587 -0.535907 -0.367376)
(9.14325 -0.475261 0.450792)
(16.3644 -0.849948 -0.677329)
(19.3274 -0.548409 -0.386167)
(8.94787 -0.484843 0.449694)
(16.085 -0.84289 -0.681123)
(19.2908 -0.564232 -0.406434)
(8.7443 -0.494101 0.448917)
(15.7955 -0.831909 -0.68151)
(19.2481 -0.579925 -0.426069)
(7.09723 -0.403979 -0.908919)
(8.53009 -0.503061 0.448257)
(15.4954 -0.819722 -0.680982)
(19.199 -0.595134 -0.444793)
(7.02112 -0.39664 -0.908327)
(8.30433 -0.511349 0.447595)
(15.1801 -0.803498 -0.680145)
(19.1439 -0.610105 -0.462757)
(6.94068 -0.38963 -0.908116)
(8.05188 -0.520521 0.447732)
(14.8436 -0.778391 -0.673591)
(19.0838 -0.624856 -0.479698)
(6.56128 -0.594522 -0.363549)
(6.85666 -0.382858 -0.908214)
(7.76309 -0.53154 0.448809)
(11.8446 -0.386637 0.531993)
(19.0175 -0.639557 -0.495634)
(6.50548 -0.584114 -0.367711)
(6.76824 -0.37632 -0.908804)
(7.43889 -0.544644 0.451324)
(11.7325 -0.389765 0.525566)
(18.9474 -0.654281 -0.510557)
(6.44655 -0.574092 -0.371916)
(6.67603 -0.369972 -0.909696)
(7.07375 -0.560786 0.455741)
(11.6179 -0.393085 0.519293)
(18.8756 -0.66702 -0.523625)
(6.38448 -0.564411 -0.37618)
(6.58051 -0.363745 -0.910838)
(6.66143 -0.58128 0.4623)
(11.5002 -0.396624 0.513192)
(18.8089 -0.673325 -0.533185)
(6.32004 -0.555009 -0.38047)
(6.48182 -0.357613 -0.912211)
(6.19545 -0.608276 0.471792)
(11.3784 -0.400387 0.507288)
(18.7224 -0.683624 -0.544417)
(6.25327 -0.54591 -0.384782)
(6.37925 -0.351556 -0.913831)
(5.70965 -0.639621 0.483488)
(11.2525 -0.404347 0.501549)
(18.6112 -0.701291 -0.558943)
(6.18447 -0.537098 -0.389125)
(6.2736 -0.345486 -0.915633)
(5.21038 -0.676656 0.497535)
(11.1219 -0.408603 0.495927)
(22.7304 0.0801009 0.0117122)
(18.486 -0.718899 -0.573046)
(19.4025 -0.335082 -0.0691334)
(6.11509 -0.528494 -0.393083)
(6.16649 -0.339336 -0.917207)
(4.74753 -0.714235 0.512171)
(10.986 -0.413169 0.490703)
(11.1078 -0.101228 -0.712265)
(22.7273 0.0801635 0.0120922)
(22.7275 0.0627556 -0.0530605)
(18.3493 -0.736353 -0.586837)
(19.3972 -0.353731 -0.0931349)
(6.04433 -0.519972 -0.397124)
(6.05583 -0.333075 -0.919025)
(4.37728 -0.746563 0.523358)
(10.8454 -0.418231 0.485491)
(10.8019 -0.082287 -0.729376)
(22.7243 0.0802068 0.0124785)
(22.7246 0.062828 -0.05304)
(18.1985 -0.753809 -0.60033)
(19.3957 -0.374475 -0.119332)
(5.97178 -0.511623 -0.401239)
(5.94218 -0.326729 -0.921029)
(10.6982 -0.423818 0.4805)
(10.4633 -0.057739 -0.746545)
(22.753 -0.0778846 0.0389931)
(22.7212 0.0802561 0.0128014)
(22.7217 0.0628837 -0.0530397)
(18.0366 -0.771974 -0.613395)
(19.3947 -0.395417 -0.146122)
(5.89805 -0.50338 -0.405444)
(5.82598 -0.32025 -0.923187)
(8.21005 -0.497123 -0.955234)
(10.5474 -0.42996 0.47562)
(10.0885 -0.0265286 -0.763642)
(22.7502 -0.0782345 0.0392279)
(22.7181 0.0803111 0.0130826)
(22.7765 0.0708582 0.0102694)
(22.7188 0.0629168 -0.0530695)
(17.8588 -0.791637 -0.626531)
(19.3908 -0.416226 -0.173318)
(5.82304 -0.495243 -0.409733)
(5.70683 -0.31363 -0.925528)
(8.17996 -0.484492 -0.948923)
(10.3918 -0.436662 0.470941)
(9.6823 0.0120298 -0.780019)
(22.7474 -0.0785324 0.0394594)
(22.715 0.0803738 0.0133342)
(22.7737 0.0714539 0.0104021)
(22.716 0.0629214 -0.0531404)
(22.7687 0.0570758 -0.0455904)
(17.6674 -0.809795 -0.638428)
(19.3844 -0.436765 -0.200512)
(5.74673 -0.48718 -0.414123)
(5.5852 -0.306811 -0.928003)
(8.13688 -0.4735 -0.944093)
(10.228 -0.44417 0.466898)
(9.38208 0.024752 -0.792225)
(22.7445 -0.0787775 0.0396921)
(22.7934 -0.0661153 0.0342486)
(22.7119 0.0804472 0.0135661)
(22.7709 0.0720731 0.0105232)
(22.7132 0.062892 -0.0532635)
(22.766 0.0575832 -0.0460441)
(17.4416 -0.830091 -0.652166)
(19.3762 -0.456844 -0.227306)
(5.6684 -0.479157 -0.418628)
(5.45968 -0.299744 -0.930636)
(8.09053 -0.46306 -0.9397)
(10.0598 -0.452123 0.46335)
(9.16499 0.02894 -0.800583)
(22.7417 -0.07897 0.0399308)
(22.7912 -0.0669059 0.0345271)
(22.7089 0.080535 0.0137867)
(22.7681 0.0727191 0.010639)
(22.7105 0.0628229 -0.0534501)
(22.7633 0.058055 -0.046568)
(17.1913 -0.848381 -0.665614)
(19.3645 -0.476435 -0.25363)
(5.58773 -0.471152 -0.423267)
(5.33111 -0.292355 -0.933355)
(8.04106 -0.45312 -0.935679)
(9.88335 -0.460912 0.460352)
(8.96942 0.0317807 -0.807911)
(22.7389 -0.0791102 0.0401797)
(22.789 -0.067668 0.0348237)
(22.7059 0.0806412 0.0140048)
(22.7653 0.0733948 0.0107562)
(22.7079 0.0627077 -0.0537113)
(22.7606 0.0584845 -0.0471714)
(16.9163 -0.86342 -0.678731)
(19.3485 -0.495351 -0.279113)
(5.50523 -0.463091 -0.428044)
(7.98823 -0.443666 -0.932022)
(9.70388 -0.470117 0.457394)
(8.78965 0.0354461 -0.814069)
(22.7362 -0.0791986 0.0404427)
(22.7868 -0.0684005 0.0351402)
(22.7029 0.0807671 0.0142298)
(22.7624 0.074101 0.0108815)
(22.7053 0.0625386 -0.0540584)
(22.7579 0.0588641 -0.0478631)
(16.633 -0.87325 -0.691144)
(19.3271 -0.512601 -0.302823)
(5.42035 -0.455006 -0.432974)
(7.93139 -0.434732 -0.928776)
(9.51612 -0.480229 0.45471)
(8.64483 0.0405062 -0.81763)
(22.7335 -0.079236 0.0407233)
(22.7846 -0.0691031 0.0354775)
(22.7 0.0809123 0.0144715)
(22.7596 0.0748369 0.0110222)
(22.7028 0.0623061 -0.0545058)
(22.7553 0.0591789 -0.0486641)
(16.3413 -0.878855 -0.701376)
(19.2999 -0.525794 -0.323558)
(5.33324 -0.446875 -0.438066)
(7.87027 -0.42629 -0.92596)
(9.32361 -0.490465 0.452444)
(8.5187 0.0462505 -0.819839)
(22.7308 -0.0792234 0.0410251)
(22.7824 -0.0697714 0.0358416)
(22.6763 0.0857637 0.0714409)
(22.6972 0.0810742 0.0147412)
(22.7568 0.0756068 0.0111929)
(22.8053 0.0606862 0.00997657)
(22.7005 0.0620048 -0.0550504)
(22.7526 0.0594964 -0.0494073)
(22.7401 -0.068775 -0.0177376)
(16.0383 -0.878728 -0.711722)
(19.2713 -0.534076 -0.341789)
(5.24379 -0.438711 -0.443325)
(7.80454 -0.418335 -0.923616)
(9.12316 -0.501029 0.450582)
(12.9503 -0.388003 0.573546)
(8.39121 0.0521606 -0.822231)
(22.7282 -0.0791593 0.04136)
(22.7801 -0.0704281 0.0361782)
(22.6739 0.085579 0.0713459)
(22.6945 0.0812459 0.0150459)
(22.754 0.0763684 0.0113592)
(22.8033 0.0616544 0.010002)
(22.6981 0.0616996 -0.0555016)
(22.7499 0.0598181 -0.0500734)
(22.509 0.0160546 -0.0712488)
(22.7376 -0.0685708 -0.0181866)
(22.7919 -0.0620646 -0.018798)
(15.7163 -0.87021 -0.717357)
(19.2438 -0.537552 -0.358068)
(5.15195 -0.430423 -0.448701)
(7.12744 -0.649629 -0.373577)
(7.73358 -0.410823 -0.921761)
(8.91352 -0.511356 0.448894)
(12.8355 -0.388845 0.567487)
(8.26227 0.0581424 -0.824788)
(22.7256 -0.0790629 0.041662)
(22.7777 -0.071074 0.0364841)
(22.8093 -0.0518122 0.0309351)
(22.6715 0.0853444 0.0712573)
(22.6917 0.0813381 0.0152981)
(22.7511 0.0770685 0.0114736)
(22.8012 0.0625833 0.00998656)
(22.6956 0.0613844 -0.0558609)
(22.7471 0.0601374 -0.0506635)
(22.7939 0.0482869 -0.0402862)
(22.5065 0.0157399 -0.0708205)
(22.5517 0.0215367 -0.0714465)
(22.7351 -0.0683412 -0.0186018)
(22.7895 -0.0626044 -0.0191761)
(15.3724 -0.855024 -0.71847)
(19.2052 -0.545809 -0.376025)
(5.05747 -0.422011 -0.454187)
(7.07458 -0.63747 -0.376975)
(7.65741 -0.403743 -0.920373)
(8.69675 -0.520803 0.447127)
(12.717 -0.390066 0.561588)
(8.13408 0.0637868 -0.827463)
(22.7229 -0.078937 0.0419175)
(22.7752 -0.0717078 0.036762)
(22.8081 -0.052787 0.031162)
(22.6691 0.0850611 0.0711771)
(22.7081 0.0848062 0.0666259)
(22.6889 0.0813463 0.015509)
(22.7482 0.0777038 0.0115476)
(22.7991 0.0634716 0.00994091)
(22.6931 0.0610535 -0.0561297)
(22.7442 0.0604482 -0.0511777)
(22.7916 0.0489492 -0.0408597)
(22.5041 0.0154108 -0.0703239)
(22.549 0.0211741 -0.071635)
(22.7326 -0.0680978 -0.0189226)
(22.7869 -0.0631313 -0.0194749)
(15.0143 -0.836615 -0.716115)
(19.1558 -0.559877 -0.396254)
(4.95991 -0.413556 -0.459849)
(7.02064 -0.625696 -0.380434)
(7.57614 -0.397005 -0.919435)
(8.46441 -0.529774 0.44529)
(12.5953 -0.391783 0.555832)
(8.00537 0.0692625 -0.83029)
(22.7202 -0.0787821 0.0421307)
(22.7727 -0.0723291 0.037016)
(22.8068 -0.0537679 0.0313844)
(22.6667 0.0847308 0.0711076)
(22.7054 0.0849107 0.0671343)
(22.6861 0.0812668 0.015691)
(22.7452 0.0782702 0.0115965)
(22.7968 0.0643176 0.00987673)
(22.6906 0.0607013 -0.0563088)
(22.7413 0.0607448 -0.0516164)
(22.7892 0.049618 -0.0413773)
(22.5018 0.0150749 -0.0697614)
(22.5463 0.0208073 -0.071785)
(22.73 -0.0678441 -0.0191477)
(22.7843 -0.0636465 -0.0196938)
(14.6177 -0.814088 -0.71646)
(19.0995 -0.578175 -0.418541)
(6.96363 -0.614325 -0.383935)
(7.48928 -0.390581 -0.918951)
(8.20004 -0.540042 0.443853)
(12.4671 -0.394029 0.550351)
(7.87591 0.0746563 -0.833298)
(12.4452 -0.0664552 -0.660854)
(22.7175 -0.0785989 0.0423059)
(22.7702 -0.0729366 0.0372503)
(22.8054 -0.0547565 0.0316071)
(22.6644 0.0843559 0.071051)
(22.7027 0.0849955 0.067627)
(22.6832 0.0810968 0.0158571)
(22.7421 0.0787661 0.0116339)
(22.7945 0.0651201 0.00980692)
(22.6881 0.0603225 -0.0563987)
(22.7384 0.0610211 -0.0519793)
(22.7868 0.0502879 -0.0418392)
(22.4995 0.0147465 -0.0691568)
(22.5437 0.0204388 -0.0718979)
(22.7273 -0.0675838 -0.0192758)
(22.7816 -0.064152 -0.0198329)
(14.184 -0.777531 -0.708211)
(19.037 -0.596013 -0.439913)
(6.90289 -0.603365 -0.387482)
(7.39711 -0.384434 -0.918887)
(7.90136 -0.551705 0.443744)
(12.3368 -0.396536 0.544964)
(7.74488 0.0804761 -0.836589)
(12.3033 -0.0691677 -0.672504)
(22.7147 -0.0783884 0.0424483)
(22.7676 -0.0735301 0.0374706)
(22.804 -0.0557504 0.0318324)
(22.6621 0.0839386 0.0710099)
(22.7 0.0850605 0.0681036)
(22.6803 0.0808344 0.0160209)
(22.7391 0.0791899 0.0116756)
(22.7922 0.0658778 0.00974628)
(22.6856 0.059912 -0.0563993)
(22.7355 0.0612712 -0.0522657)
(22.7843 0.0509537 -0.0422454)
(22.4972 0.0144266 -0.0685113)
(22.541 0.0200707 -0.0719738)
(22.7247 -0.0673195 -0.0193064)
(22.7789 -0.0646494 -0.0198922)
(18.9647 -0.613608 -0.460624)
(6.8383 -0.592803 -0.391093)
(7.29995 -0.378497 -0.919208)
(7.55999 -0.565769 0.445425)
(12.2041 -0.39933 0.539643)
(7.61509 0.0867249 -0.840038)
(12.1314 -0.068926 -0.68621)
(22.712 -0.0781524 0.0425642)
(22.7649 -0.0741089 0.037684)
(22.8024 -0.0567463 0.0320639)
(22.6598 0.0834918 0.0709657)
(22.6973 0.0851055 0.0685635)
(22.6775 0.0804786 0.0161972)
(22.736 0.0795394 0.0117405)
(22.7897 0.0665892 0.00971172)
(22.6832 0.059465 -0.0563115)
(22.7325 0.0614902 -0.0524753)
(22.7817 0.0516099 -0.0425958)
(22.4949 0.0141163 -0.0678259)
(22.5384 0.0197154 -0.0720362)
(22.722 -0.0670541 -0.0192391)
(22.7761 -0.0651394 -0.0198726)
(18.8853 -0.630921 -0.480362)
(6.77027 -0.582636 -0.394738)
(7.19748 -0.372731 -0.919912)
(7.16911 -0.583284 0.448938)
(12.066 -0.402405 0.534499)
(7.48537 0.0931597 -0.843783)
(11.929 -0.065452 -0.701622)
(22.7092 -0.0778922 0.0426612)
(22.7622 -0.0746722 0.0378983)
(22.8008 -0.0577357 0.0322956)
(22.6697 0.0284357 0.0989912)
(22.6576 0.0830244 0.0709034)
(22.6946 0.0851309 0.0690068)
(22.6746 0.0800291 0.0164018)
(22.7329 0.0798134 0.0118499)
(22.7873 0.067255 0.00971923)
(22.6807 0.0589781 -0.0561365)
(22.7296 0.061674 -0.052608)
(22.7792 0.0522524 -0.0428896)
(22.4927 0.013823 -0.0671147)
(22.5356 0.0193764 -0.0720866)
(22.7194 -0.0667894 -0.0190748)
(22.7733 -0.0656224 -0.0197753)
(18.8005 -0.64785 -0.498738)
(6.69931 -0.57281 -0.398409)
(7.09026 -0.367045 -0.920938)
(6.71838 -0.60651 0.454472)
(11.925 -0.405654 0.529448)
(7.35365 0.0998255 -0.84798)
(11.6966 -0.0582068 -0.718152)
(22.7064 -0.0776089 0.0427482)
(22.7594 -0.0752185 0.0381221)
(22.7991 -0.0587133 0.0325223)
(22.6317 0.0236617 0.100403)
(22.667 0.0284056 0.0993392)
(22.6554 0.0825376 0.0708229)
(22.6919 0.0851493 0.0694108)
(22.6718 0.0794873 0.0166538)
(22.7297 0.0800152 0.012023)
(22.7847 0.0678767 0.00978807)
(22.6782 0.058448 -0.0558755)
(22.7267 0.0618192 -0.0526644)
(22.7765 0.0528795 -0.0431598)
(22.4905 0.0135572 -0.0663919)
(22.5329 0.0190559 -0.0721236)
(22.7167 -0.0665256 -0.0188153)
(22.7704 -0.0660973 -0.0196031)
(22.8135 -0.0514853 -0.017196)
(18.7088 -0.665019 -0.516245)
(19.3996 -0.224702 0.0629347)
(6.62544 -0.563317 -0.402111)
(6.97869 -0.361394 -0.922247)
(8.81903 -0.573249 -1.01505)
(6.21944 -0.636012 0.462848)
(11.7829 -0.409008 0.524413)
(7.21862 0.106398 -0.852828)
(11.4327 -0.0463466 -0.735534)
(22.7037 -0.0773031 0.0428349)
(22.7567 -0.0757456 0.0383649)
(22.7974 -0.0596756 0.0327448)
(22.6294 0.0233809 0.100085)
(22.6642 0.0283427 0.0996565)
(22.6532 0.0820323 0.0707249)
(22.6892 0.0851645 0.0697693)
(22.7223 0.0791714 0.0583864)
(22.669 0.0788585 0.0169729)
(22.7266 0.0801498 0.0122833)
(22.7821 0.0684572 0.00993855)
(22.6758 0.0578725 -0.0555305)
(22.7238 0.0619344 -0.0526764)
(22.7739 0.0534942 -0.0434123)
(22.4883 0.0133215 -0.0656562)
(22.5301 0.018756 -0.0721458)
(22.7141 -0.0662621 -0.0184629)
(22.7676 -0.0665623 -0.0193593)
(22.8117 -0.0524168 -0.017153)
(18.6122 -0.681213 -0.532227)
(19.3973 -0.247176 0.0412294)
(6.54884 -0.554139 -0.405861)
(6.86358 -0.355731 -0.923802)
(8.83902 -0.55406 -1.00348)
(5.69066 -0.672227 0.474399)
(11.6353 -0.412695 0.519554)
(7.07783 0.112905 -0.858569)
(11.1367 -0.0292684 -0.753421)
(22.7009 -0.0769748 0.0429319)
(22.7539 -0.0762395 0.0386122)
(22.7955 -0.0606241 0.0329656)
(22.6272 0.0230793 0.0997261)
(22.6615 0.0282426 0.0999445)
(22.6511 0.0815212 0.0705858)
(22.6865 0.0851778 0.0700793)
(22.7201 0.0795776 0.0590189)
(22.6662 0.0781503 0.017381)
(22.7235 0.0802284 0.0126425)
(22.7795 0.069016 0.0101382)
(22.6735 0.0572627 -0.055136)
(22.7209 0.0620312 -0.0526739)
(22.7712 0.0541006 -0.0436665)
(22.486 0.0131183 -0.0649065)
(22.5273 0.0184783 -0.0721518)
(22.7115 -0.0659931 -0.0180319)
(22.7647 -0.066993 -0.0190917)
(22.8098 -0.0533282 -0.0171006)
(18.52 -0.690518 -0.544487)
(19.3917 -0.26807 0.0197328)
(6.46985 -0.545227 -0.409657)
(6.74485 -0.349991 -0.925571)
(8.85175 -0.536 -0.992699)
(5.15539 -0.714205 0.488202)
(11.4843 -0.416714 0.514732)
(6.93178 0.119082 -0.865304)
(10.8055 -0.00579972 -0.771577)
(22.6982 -0.0766057 0.0430202)
(22.751 -0.0766936 0.0388576)
(22.7936 -0.061555 0.0331871)
(22.625 0.022751 0.0993305)
(22.6588 0.028101 0.100205)
(22.649 0.0810104 0.0703958)
(22.6838 0.0851904 0.0703376)
(22.7179 0.0799894 0.0596151)
(22.6635 0.0773953 0.0178292)
(22.7204 0.0802885 0.0129989)
(22.7769 0.0695705 0.010345)
(22.6712 0.0566305 -0.0547176)
(22.7179 0.0621119 -0.052684)
(22.7684 0.0546934 -0.0439478)
(22.4838 0.0129504 -0.064142)
(22.5245 0.0182243 -0.0721401)
(22.7089 -0.065697 -0.017576)
(22.7618 -0.0673818 -0.0188039)
(22.8078 -0.0542205 -0.0170379)
(18.4067 -0.70403 -0.558732)
(19.3798 -0.285643 -0.00104624)
(6.38895 -0.536514 -0.413504)
(6.62387 -0.344093 -0.927465)
(8.85729 -0.519016 -0.982684)
(4.67468 -0.755722 0.501812)
(11.3285 -0.421108 0.509969)
(6.77997 0.124665 -0.873195)
(10.4334 0.0252919 -0.789927)
(22.6955 -0.0761944 0.0431003)
(22.7482 -0.0771023 0.0390967)
(22.7916 -0.0624624 0.0334162)
(22.4127 -0.0702678 0.0451718)
(22.6229 0.02239 0.0989017)
(22.6561 0.0279141 0.100438)
(22.647 0.0805024 0.0701513)
(22.6812 0.0852042 0.0705408)
(22.7156 0.0804071 0.0601723)
(22.6608 0.076632 0.0182302)
(22.7173 0.0803496 0.0133072)
(22.7741 0.070139 0.0105197)
(22.6688 0.0559845 -0.0543133)
(22.715 0.0621709 -0.0527154)
(22.7657 0.0552676 -0.0442632)
(22.4816 0.0128197 -0.0633616)
(22.5216 0.0179953 -0.0721095)
(22.7064 -0.0653673 -0.0170964)
(22.7588 -0.0677217 -0.0185039)
(22.8058 -0.0550825 -0.0169996)
(18.2644 -0.725364 -0.576607)
(19.3656 -0.299415 -0.0212966)
(6.30618 -0.52798 -0.417429)
(6.50021 -0.338051 -0.929508)
(8.84604 -0.504247 -0.974289)
(4.30961 -0.789527 0.511199)
(11.1663 -0.426144 0.505332)
(6.62138 0.129112 -0.882524)
(10.1067 0.0423339 -0.805133)
(22.6928 -0.0757342 0.043165)
(22.7453 -0.0774596 0.0393284)
(22.7896 -0.0633448 0.0336555)
(22.41 -0.0698717 0.0443562)
(22.6209 0.0219922 0.0984419)
(22.6534 0.0276787 0.100645)
(22.645 0.0799993 0.0698485)
(22.6785 0.0852205 0.0706855)
(22.7133 0.080831 0.0606878)
(22.6581 0.075868 0.0185772)
(22.7142 0.0804136 0.0135797)
(22.7714 0.0707234 0.0106724)
(22.6666 0.0553178 -0.0539325)
(22.7122 0.0622027 -0.052777)
(22.7629 0.0558187 -0.04462)
(22.4794 0.0127283 -0.0625643)
(22.5187 0.0177921 -0.0720584)
(22.704 -0.0649995 -0.0165959)
(22.7559 -0.0679959 -0.018239)
(22.8036 -0.0559123 -0.0169976)
(18.1066 -0.746913 -0.594424)
(19.3499 -0.309569 -0.0415348)
(6.22187 -0.519591 -0.421437)
(6.37283 -0.3319 -0.931778)
(8.82313 -0.49104 -0.96721)
(11.0033 -0.431626 0.500623)
(6.45421 0.132295 -0.893424)
(9.84597 0.0481172 -0.816524)
(22.6902 -0.0752208 0.0432131)
(22.7424 -0.0777647 0.0395578)
(22.7876 -0.0642017 0.0339075)
(22.4075 -0.0694722 0.0435303)
(22.619 0.0215529 0.0979532)
(22.6508 0.0273824 0.100827)
(22.683 0.0276346 0.090176)
(22.6431 0.0795039 0.0694828)
(22.676 0.0852397 0.0707688)
(22.711 0.0812616 0.0611564)
(22.6554 0.0751035 0.0188828)
(22.711 0.0804825 0.0138273)
(22.7686 0.071326 0.0108108)
(22.6644 0.0546247 -0.0535847)
(22.7093 0.0622021 -0.0528787)
(22.7601 0.0563418 -0.0450266)
(22.4772 0.0126781 -0.0617494)
(22.5158 0.0176213 -0.071987)
(22.7015 -0.0645723 -0.0161365)
(22.7529 -0.0682055 -0.0180208)
(22.8015 -0.0567096 -0.0170389)
(17.9306 -0.768217 -0.612055)
(19.3335 -0.322957 -0.0631014)
(6.13595 -0.511357 -0.425553)
(6.24266 -0.325552 -0.934202)
(8.79446 -0.478582 -0.960603)
(10.8353 -0.437772 0.495983)
(9.63669 0.0513564 -0.824376)
(22.6876 -0.0746559 0.0432513)
(22.7395 -0.0780172 0.0397898)
(22.7855 -0.0650316 0.0341748)
(22.4051 -0.069071 0.0426977)
(22.6171 0.021067 0.0974366)
(22.6482 0.0270463 0.100979)
(22.6807 0.0276578 0.0908527)
(22.6413 0.079019 0.0690493)
(22.6734 0.085263 0.070787)
(22.7087 0.081661 0.0616272)
(22.6527 0.0743388 0.0191584)
(22.7079 0.0805592 0.0140592)
(22.7657 0.0719499 0.0109416)
(22.6622 0.0538995 -0.0532808)
(22.7065 0.0621643 -0.0530305)
(22.7573 0.0568323 -0.0454918)
(22.475 0.0126758 -0.0609183)
(22.5129 0.0174408 -0.0718861)
(22.6991 -0.0640853 -0.0157311)
(22.75 -0.0683514 -0.0178606)
(22.7993 -0.0574733 -0.017131)
(17.7401 -0.790296 -0.629469)
(19.3177 -0.340255 -0.0866482)
(6.04898 -0.503214 -0.429768)
(6.10955 -0.318986 -0.936796)
(8.75952 -0.466835 -0.954484)
(10.661 -0.444614 0.491569)
(9.46379 0.0536363 -0.829927)
(22.6851 -0.0740411 0.0432858)
(22.7367 -0.0782171 0.0400289)
(22.7833 -0.0658346 0.0344586)
(22.4027 -0.0686702 0.0418624)
(22.6154 0.0205295 0.0968917)
(22.6456 0.0267283 0.101078)
(22.6783 0.027697 0.0915017)
(22.6396 0.0785464 0.0685433)
(22.671 0.0852985 0.0707264)
(22.7062 0.0820279 0.0621011)
(22.6501 0.0735754 0.0194135)
(22.7048 0.080647 0.0142837)
(22.7628 0.0725981 0.0110709)
(22.6601 0.0531364 -0.0530318)
(22.7038 0.0620841 -0.0532424)
(22.7545 0.0572853 -0.0460243)
(22.4728 0.012704 -0.060068)
(22.51 0.0172403 -0.0717521)
(22.6968 -0.0635384 -0.0153929)
(22.7471 -0.0684346 -0.017769)
(22.797 -0.0582025 -0.0172812)
(17.5322 -0.813465 -0.646766)
(19.3057 -0.361085 -0.112627)
(6.83048 0.353897 0.0999049)
(5.96122 -0.495108 -0.434079)
(5.97371 -0.312174 -0.939552)
(8.71826 -0.455776 -0.948871)
(10.4852 -0.451755 0.487416)
(9.28925 0.0559754 -0.835825)
(22.6827 -0.0733785 0.0433223)
(22.7338 -0.0783647 0.0402795)
(22.7811 -0.0666099 0.0347613)
(22.4005 -0.0682711 0.0410298)
(22.6137 0.0199237 0.0963208)
(22.6431 0.0264274 0.101128)
(22.6758 0.0277466 0.0921273)
(22.6379 0.078088 0.0679607)
(22.6685 0.0852969 0.0706484)
(22.7038 0.0823616 0.062579)
(22.6476 0.0728147 0.0196571)
(22.7018 0.0807495 0.0145087)
(22.7599 0.0732732 0.0112048)
(22.6581 0.0523294 -0.0528492)
(22.7011 0.0619555 -0.0535243)
(22.7518 0.0576944 -0.0466325)
(22.4707 0.01271 -0.0592027)
(22.5073 0.0170197 -0.0715813)
(22.6946 -0.0629319 -0.0151344)
(22.7442 -0.0684563 -0.0177564)
(22.7947 -0.0588969 -0.0174968)
(17.3033 -0.836888 -0.663626)
(19.2979 -0.384485 -0.141197)
(6.63558 0.370343 0.101137)
(5.87145 -0.487032 -0.438541)
(5.83471 -0.305067 -0.942438)
(8.67302 -0.445218 -0.943666)
(10.3032 -0.459863 0.483576)
(9.13749 0.0593196 -0.839942)
(22.6803 -0.0726702 0.0433657)
(22.7309 -0.0784603 0.0405452)
(22.7789 -0.0673566 0.0350841)
(22.3983 -0.0678727 0.0402072)
(22.6121 0.0193181 0.095705)
(22.6405 0.0261422 0.101133)
(22.6734 0.0278047 0.0927325)
(22.6364 0.0776509 0.0672891)
(22.666 0.0852456 0.0705696)
(22.7013 0.082662 0.0630613)
(22.6451 0.0720568 0.0198986)
(22.6988 0.0808672 0.0147439)
(22.757 0.0739759 0.0113496)
(22.6563 0.0514718 -0.0527448)
(22.6985 0.0617715 -0.053886)
(22.7491 0.0580512 -0.0473269)
(22.4686 0.0126938 -0.0583199)
(22.5046 0.0167789 -0.0713697)
(22.7414 -0.068418 -0.0178325)
(22.7924 -0.0595563 -0.0177856)
(17.0393 -0.861138 -0.681532)
(19.2865 -0.407909 -0.170417)
(6.43292 0.3875 0.102315)
(5.78016 -0.47888 -0.443169)
(5.69218 -0.297629 -0.945457)
(8.62354 -0.435264 -0.938925)
(10.1184 -0.468683 0.47983)
(14.1471 -0.412422 0.592436)
(9.00876 0.0636236 -0.842233)
(22.6781 -0.0719182 0.0434205)
(22.7281 -0.0785048 0.0408297)
(22.7767 -0.0680741 0.0354286)
(22.3962 -0.0674786 0.0393993)
(22.6379 0.0258711 0.101096)
(22.6708 0.0278691 0.0933196)
(22.635 0.0772156 0.0665504)
(22.6636 0.0851451 0.0704906)
(22.6987 0.0829284 0.0635494)
(22.6428 0.0712998 0.0201477)
(22.6958 0.0809999 0.0149981)
(22.7541 0.0747053 0.0115122)
(22.6545 0.0505547 -0.0527298)
(22.696 0.0615182 -0.0543568)
(22.7463 0.0583541 -0.0481001)
(22.4666 0.0126555 -0.0574171)
(22.5019 0.0165182 -0.0711127)
(22.7386 -0.0683222 -0.0180065)
(22.7901 -0.0601805 -0.0181546)
(16.7474 -0.882403 -0.699162)
(19.2706 -0.431039 -0.199789)
(6.22188 0.405377 0.103483)
(5.68713 -0.470634 -0.447964)
(5.54697 -0.289813 -0.948579)
(8.56982 -0.425871 -0.934628)
(9.92981 -0.478018 0.476399)
(14.0343 -0.410573 0.587343)
(8.88617 0.0683656 -0.84406)
(22.676 -0.0711247 0.0434912)
(22.7254 -0.078499 0.0411363)
(22.7745 -0.0687584 0.0358016)
(22.3942 -0.0670892 0.0386127)
(22.6353 0.0256116 0.101022)
(22.6683 0.0279387 0.0938901)
(22.6335 0.0767217 0.065822)
(22.6612 0.0849957 0.0704133)
(22.6962 0.0831605 0.064045)
(22.6406 0.0705401 0.020415)
(22.6929 0.0811488 0.0152833)
(22.7512 0.0754654 0.0117082)
(22.6529 0.0495684 -0.0528162)
(22.6936 0.0612168 -0.0548596)
(22.7436 0.0586662 -0.0487999)
(22.4646 0.0125954 -0.0564912)
(22.4994 0.0162381 -0.0708051)
(22.7359 -0.0681718 -0.0182871)
(22.7877 -0.060765 -0.0186323)
(16.438 -0.894048 -0.715493)
(19.25 -0.453665 -0.228839)
(6.0021 0.424003 0.104667)
(5.59265 -0.462251 -0.452931)
(5.39907 -0.281582 -0.951789)
(8.51176 -0.417001 -0.930786)
(9.73633 -0.488118 0.473298)
(13.9138 -0.40922 0.582431)
(8.76139 0.0732956 -0.846104)
(22.674 -0.070293 0.0435843)
(22.7227 -0.0784415 0.0414763)
(22.7721 -0.0694311 0.0361495)
(22.3923 -0.0667039 0.0378544)
(22.6327 0.0253616 0.100919)
(22.6657 0.0280103 0.0944445)
(22.632 0.0761711 0.0651059)
(22.6587 0.0847978 0.0703394)
(22.6936 0.0833582 0.064549)
(22.6385 0.0697851 0.0207181)
(22.6901 0.0812942 0.0155942)
(22.7483 0.0762094 0.0118946)
(22.6515 0.0484959 -0.053037)
(22.6912 0.0609102 -0.0552745)
(22.7407 0.0589817 -0.0494271)
(22.4627 0.0125141 -0.055538)
(22.4969 0.0159399 -0.070442)
(22.7333 -0.0679673 -0.0187112)
(22.7853 -0.0613328 -0.0190755)
(16.1161 -0.899368 -0.729442)
(19.2251 -0.475575 -0.257127)
(5.77273 0.443362 0.105939)
(5.49667 -0.453705 -0.458066)
(7.63582 -0.670744 -0.386757)
(5.24918 -0.272917 -0.955029)
(8.44776 -0.408765 -0.927514)
(9.53587 -0.498872 0.47046)
(13.7893 -0.408156 0.577569)
(8.63372 0.0782544 -0.84842)
(12.7508 0.0161121 -0.700964)
(22.6721 -0.0694279 0.0436955)
(22.7199 -0.0783502 0.0417839)
(22.7697 -0.0700913 0.0364667)
(22.3905 -0.0663181 0.0371287)
(22.6302 0.0251181 0.100791)
(22.6631 0.028072 0.0949789)
(22.6306 0.0755648 0.0644051)
(22.6563 0.0845527 0.0702706)
(22.691 0.0835235 0.0650607)
(22.6365 0.0689847 0.0210197)
(22.6873 0.0813619 0.0158555)
(22.7453 0.0768941 0.0120327)
(22.65 0.0474222 -0.0531779)
(22.6887 0.0605931 -0.0556033)
(22.7379 0.0592945 -0.0499827)
(22.4609 0.012413 -0.054553)
(22.4944 0.0156259 -0.0700178)
(22.7308 -0.0677372 -0.0190958)
(22.7828 -0.0618858 -0.019443)
(15.7775 -0.899636 -0.741239)
(19.1962 -0.496723 -0.28443)
(5.54156 0.461225 0.108981)
(5.39918 -0.444889 -0.463346)
(7.5773 -0.657636 -0.389958)
(5.12104 -0.263191 -0.957166)
(8.37759 -0.401102 -0.924827)
(9.33409 -0.509444 0.46748)
(13.6568 -0.407685 0.572924)
(8.50473 0.083151 -0.85091)
(12.7192 0.0114048 -0.697411)
(22.6702 -0.0685439 0.0437531)
(22.7172 -0.0782278 0.0420455)
(22.7673 -0.0707382 0.0367559)
(22.3887 -0.0659068 0.0364072)
(22.6277 0.024878 0.100647)
(22.6604 0.0281235 0.0954931)
(22.6291 0.074906 0.0637217)
(22.654 0.0842611 0.0702093)
(22.6883 0.0836577 0.0655793)
(22.6344 0.0681055 0.02127)
(22.6844 0.081348 0.0160778)
(22.7422 0.0775164 0.0121336)
(22.6485 0.0463562 -0.0532187)
(22.6862 0.0602603 -0.0558471)
(22.7349 0.0595992 -0.0504672)
(22.4591 0.0122942 -0.0535315)
(22.4921 0.0152991 -0.0695271)
(22.7281 -0.0674921 -0.0193889)
(22.7803 -0.0624254 -0.0197337)