/*--------------------------------*- C++ -*----------------------------------*\
| =========                 |                                                 |
| \\      /  F ield         | OpenFOAM: The Open Source CFD Toolbox           |
|  \\    /   O peration     | Version:  2.1.1                                 |
|   \\  /    A nd           | Web:      www.OpenFOAM.org                      |
|    \\/     M anipulation  |                                                 |
\*---------------------------------------------------------------------------*/
FoamFile
{
    version     2.0;
    format      ascii;
    class       Cloud<solidParticle>;
    location    "0.00115";
    object      positions;
}
// * * * * * * * * * * * * * * * * * * * * * * * * * * * * * * * * * * * * * //

44538
(
(0.000710765 0.00899337 0.00100886) 20041
(0.0202014 0.00635226 0.00211143) 13420
(0.0201323 0.00635237 0.00211088) 13420
(0.0200579 0.00635271 0.00211034) 13420
(0.0199806 0.00635323 0.00210979) 13419
(0.0198991 0.00635397 0.0021092) 13419
(0.0198131 0.00635486 0.00210847) 13419
(0.0197219 0.00635597 0.00210766) 13419
(0.0196269 0.00635724 0.00210665) 13419
(0.0195276 0.00635873 0.00210552) 13419
(0.0194236 0.00636055 0.00210432) 13418
(0.0193154 0.00636273 0.00210306) 13418
(0.0192021 0.00636536 0.00210178) 13418
(0.019084 0.00636857 0.0021006) 13418
(0.0189632 0.00637244 0.00209965) 13417
(0.0188408 0.00637695 0.00209892) 13417
(0.0187173 0.00638217 0.00209845) 13417
(0.0207133 0.00635611 0.00211155) 13421
(0.0206602 0.00635449 0.00210912) 13421
(0.0206048 0.00635299 0.00210673) 13421
(0.0205471 0.00635161 0.00210452) 13421
(0.0204869 0.00635034 0.00210239) 13420
(0.0204233 0.00634923 0.00210041) 13420
(0.0203562 0.00634831 0.00209852) 13420
(0.0202859 0.00634755 0.00209669) 13420
(0.0202106 0.00634699 0.00209491) 13420
(0.0201329 0.00634669 0.00209329) 13420
(0.0200501 0.00634662 0.00209171) 13420
(0.0199636 0.00634679 0.00209022) 13419
(0.0198722 0.00634728 0.0020887) 13419
(0.0197767 0.00634807 0.00208722) 13419
(0.0196767 0.00634916 0.00208575) 13419
(0.0195736 0.00635057 0.00208429) 13419
(0.0194649 0.0063524 0.0020828) 13418
(0.0193525 0.00635477 0.00208136) 13418
(0.0211251 0.00637346 0.00212905) 13422
(0.0192348 0.00635781 0.00208005) 13418
(0.0210808 0.00637037 0.00212527) 13422
(0.0164212 0.00300695 0.00327221) 812
(0.0191142 0.0063614 0.00207877) 13418
(0.0210351 0.00636734 0.0021214) 13422
(0.0163025 0.00300287 0.0032722) 812
(0.0189896 0.00636578 0.00207775) 13417
(0.0209877 0.0063644 0.00211748) 13421
(0.0161785 0.00299886 0.00327245) 31681
(0.0188641 0.00637104 0.00207707) 13417
(0.0209385 0.00636159 0.00211361) 13421
(0.0160439 0.00299441 0.00327318) 31681
(0.0187362 0.00637736 0.00207673) 13417
(0.0208874 0.00635892 0.00210982) 13421
(0.0158969 0.00298928 0.0032745) 31537
(0.0186058 0.00638472 0.00207666) 13417
(0.0208345 0.00635641 0.0021061) 13421
(0.0157358 0.00298328 0.00327648) 31537
(0.0207792 0.00635406 0.00210244) 13421
(0.0155608 0.00297624 0.00327916) 31537
(0.0207217 0.00635179 0.00209871) 13421
(0.0153715 0.00296786 0.00328259) 31393
(0.0206617 0.00634965 0.00209506) 13421
(0.0151698 0.00295792 0.00328683) 31393
(0.0205987 0.00634772 0.00209165) 13421
(0.0149589 0.00294628 0.00329188) 31249
(0.0205316 0.006346 0.00208844) 13421
(0.0147463 0.00293312 0.00329752) 31249
(0.0204604 0.00634443 0.00208533) 13420
(0.0203869 0.00634313 0.0020824) 13480
(0.020308 0.00634215 0.00207969) 13480
(0.020225 0.00634142 0.00207718) 13480
(0.0176418 0.00303604 0.00327589) 815
(0.0201373 0.00634089 0.00207472) 13480
(0.017563 0.00303346 0.00327323) 815
(0.0200442 0.0063407 0.00207222) 13480
(0.0174813 0.00303069 0.00327092) 814
(0.0199458 0.00634095 0.00206995) 13479
(0.0173947 0.00302756 0.00326901) 814
(0.0198423 0.00634174 0.00206792) 13479
(0.0214328 0.00639482 0.00214822) 13422
(0.0173051 0.00302423 0.00326732) 814
(0.0197338 0.00634295 0.00206594) 13479
(0.0213938 0.00639067 0.00214371) 13422
(0.0172106 0.00302058 0.00326592) 814
(0.0196202 0.00634475 0.00206409) 13479
(0.0213532 0.00638655 0.00213912) 13422
(0.0171121 0.00301672 0.00326476) 814
(0.019502 0.0063472 0.00206248) 13479
(0.0213112 0.00638247 0.00213448) 13422
(0.0170096 0.00301268 0.00326383) 814
(0.0193795 0.00635036 0.00206104) 13478
(0.0212676 0.00637851 0.00212984) 13422
(0.0169026 0.00300859 0.0032631) 813
(0.019251 0.00635436 0.00205981) 13478
(0.0212226 0.00637465 0.0021252) 13422
(0.0167897 0.00300438 0.00326262) 813
(0.0191177 0.00635943 0.00205896) 13418
(0.0211757 0.0063709 0.00212055) 13422
(0.0166718 0.00300025 0.00326229) 813
(0.0189812 0.0063656 0.00205855) 13417
(0.021127 0.00636731 0.00211588) 13422
(0.0165482 0.00299622 0.00326215) 31825
(0.0188401 0.00637308 0.00205858) 13417
(0.0210763 0.00636386 0.00211116) 13422
(0.0164136 0.0029917 0.0032625) 31681
(0.0186942 0.00638205 0.00205907) 13417
(0.0210238 0.00636057 0.00210642) 13422
(0.0162656 0.00298649 0.00326343) 31681
(0.0185439 0.00639269 0.00205989) 13417
(0.0209688 0.00635751 0.00210186) 13421
(0.0161032 0.00298037 0.00326503) 31681
(0.0209112 0.00635467 0.00209739) 13421
(0.0159264 0.00297312 0.00326734) 31537
(0.0208509 0.00635202 0.00209297) 13421
(0.0157339 0.00296438 0.00327043) 31537
(0.0207876 0.00634956 0.0020885) 13421
(0.0159578 0.00463199 0.000935383) 11551
(0.0155297 0.00295401 0.00327436) 31537
(0.0207204 0.00634732 0.00208422) 13421
(0.0159249 0.00463789 0.000933271) 11551
(0.0153161 0.00294166 0.0032792) 31393
(0.0183941 0.00304594 0.00328472) 816
(0.0206495 0.00634525 0.00208011) 13481
(0.0158909 0.00464362 0.000931097) 11551
(0.0151022 0.0029277 0.00328457) 31393
(0.0183263 0.00304449 0.00328107) 816
(0.0205747 0.00634343 0.00207631) 13481
(0.015856 0.00464922 0.000928907) 11551
(0.0149002 0.00291296 0.00329001) 31249
(0.0182561 0.00304284 0.00327754) 816
(0.0204954 0.00634185 0.00207246) 13480
(0.0158202 0.00465467 0.000926709) 11551
(0.0181833 0.00304095 0.00327416) 816
(0.0204112 0.00634056 0.00206879) 13480
(0.0157836 0.00465999 0.000924493) 11551
(0.0181073 0.0030388 0.00327094) 816
(0.0203223 0.00633967 0.0020656) 13480
(0.0157462 0.00466516 0.000922265) 11551
(0.0180282 0.00303638 0.00326791) 816
(0.0202268 0.00633918 0.00206259) 13480
(0.0216912 0.0064206 0.0021705) 13423
(0.015708 0.00467021 0.000920023) 11551
(0.0179465 0.00303372 0.00326506) 815
(0.0201267 0.00633908 0.00205958) 13480
(0.0216559 0.00641588 0.00216582) 13423
(0.0156692 0.00467512 0.000917769) 11551
(0.0178612 0.00303075 0.00326255) 815
(0.0200199 0.00633956 0.00205698) 13480
(0.0216188 0.00641109 0.00216096) 13423
(0.0156293 0.00467991 0.000915492) 11551
(0.0177725 0.00302747 0.00326038) 815
(0.0199067 0.00634073 0.00205473) 13479
(0.0215805 0.00640635 0.00215608) 13423
(0.0155882 0.00468462 0.000913183) 11551
(0.017681 0.00302391 0.00325839) 815
(0.0197864 0.00634252 0.00205252) 13479
(0.0215406 0.00640163 0.0021511) 13423
(0.015546 0.00468926 0.000910838) 11611
(0.017585 0.00301998 0.00325664) 815
(0.0196608 0.00634511 0.00205061) 13479
(0.0214993 0.00639697 0.00214607) 13422
(0.0155025 0.00469384 0.000908453) 11611
(0.0174865 0.0030159 0.00325504) 814
(0.01953 0.00634856 0.00204912) 13479
(0.0214561 0.00639233 0.00214093) 13422
(0.0173842 0.00301162 0.00325364) 814
(0.0193921 0.00635295 0.00204778) 13478
(0.0214111 0.00638781 0.0021358) 13422
(0.0172783 0.00300734 0.00325239) 814
(0.0192474 0.00635854 0.00204681) 13478
(0.0213643 0.00638341 0.00213066) 13422
(0.0171675 0.00300307 0.00325128) 814
(0.0190967 0.00636557 0.0020464) 13478
(0.0213155 0.00637912 0.00212547) 13422
(0.0168865 0.00519086 0.000681985) 11913
(0.0170518 0.00299891 0.00325029) 31969
(0.0189394 0.00637418 0.00204652) 13417
(0.0212647 0.00637501 0.00212033) 13422
(0.0168451 0.0051959 0.00068373) 11913
(0.01693 0.00299488 0.00324941) 31824
(0.0187757 0.00638471 0.00204729) 13417
(0.0212118 0.00637107 0.00211517) 13422
(0.0168019 0.00520074 0.000685279) 11913
(0.0167962 0.00299036 0.00324899) 31824
(0.0186044 0.00639762 0.00204867) 13417
(0.0211565 0.00636735 0.00211001) 13422
(0.0166051 0.00460736 0.000937715) 11553
(0.0167571 0.00520543 0.000686664) 11913
(0.0166485 0.00298516 0.0032491) 31824
(0.0191502 0.00305352 0.00329926) 818
(0.0210983 0.00636378 0.00210468) 13422
(0.0165735 0.00461382 0.000935784) 11553
(0.0167105 0.00520996 0.000687792) 11913
(0.0164853 0.00297897 0.00324979) 31680
(0.0190875 0.00305292 0.00329491) 818
(0.0210377 0.00636046 0.00209943) 13422
(0.0165406 0.00462005 0.000933867) 11553
(0.0166622 0.00521436 0.000688764) 11913
(0.0163058 0.00297149 0.00325124) 31681
(0.0190233 0.00305223 0.00329067) 818
(0.0209744 0.00635744 0.0020944) 13421
(0.0165064 0.00462607 0.000931952) 11553
(0.0166126 0.00521867 0.000689603) 11913
(0.0161092 0.00296226 0.00325355) 31681
(0.0189575 0.0030514 0.00328655) 817
(0.0209077 0.00635472 0.00208944) 13421
(0.016471 0.00463193 0.000930038) 11552
(0.0165617 0.00522289 0.000690323) 11913
(0.0158979 0.0029509 0.00325684) 31537
(0.0188896 0.00305041 0.00328256) 817
(0.0208366 0.0063522 0.00208435) 13421
(0.0164345 0.00463763 0.000928121) 11552
(0.0165093 0.00522707 0.000690927) 11913
(0.0156793 0.00293754 0.00326106) 31537
(0.0188195 0.00304925 0.00327868) 817
(0.0207626 0.00634989 0.00207933) 13421
(0.016397 0.00464317 0.000926198) 11552
(0.0164557 0.00523123 0.000691441) 11912
(0.0154617 0.00292231 0.00326597) 31393
(0.0187471 0.00304788 0.00327488) 817
(0.0126688 0.00368759 0.0034542) 14485
(0.0206831 0.00634793 0.00207469) 13481
(0.0219682 0.00645823 0.002202) 6103
(0.0163591 0.00464858 0.000924486) 11552
(0.0164015 0.0052354 0.000692081) 11912
(0.0152625 0.00290691 0.00327106) 31393
(0.018672 0.00304629 0.00327131) 817
(0.0188797 0.00653752 0.00162327) 6757
(0.0126448 0.00368754 0.00345423) 14485
(0.0126171 0.00378117 0.00367062) 14545
(0.0205996 0.00634621 0.00207036) 13481
(0.0219355 0.00645297 0.00219745) 6103
(0.0163205 0.00465393 0.00092274) 11552
(0.0163461 0.00523962 0.000692614) 11912
(0.0151029 0.00289376 0.00327478) 31393
(0.0185948 0.00304448 0.00326778) 817
(0.0187631 0.00654474 0.00162011) 6757
(0.0126208 0.00368747 0.00345428) 14485
(0.0125935 0.0037811 0.00367061) 14545
(0.0205106 0.00634481 0.00206589) 13481
(0.0219019 0.00644775 0.00219278) 6103
(0.0162811 0.00465919 0.000920967) 11552
(0.0162897 0.00524386 0.000693061) 11912
(0.0185144 0.00304235 0.00326434) 817
(0.018637 0.00655333 0.00161686) 6757
(0.0126031 0.00638647 0.00288959) 13525
(0.0125968 0.00368737 0.00345433) 14485
(0.01257 0.00378101 0.00367062) 14545
(0.0204163 0.00634382 0.0020618) 13480
(0.0218676 0.00644256 0.00218803) 6103
(0.0162411 0.00466437 0.000919159) 11552
(0.0162326 0.00524815 0.000693437) 11912
(0.0178089 0.00513889 0.000665825) 11915
(0.0184324 0.00303997 0.00326097) 816
(0.0185007 0.00656352 0.00161355) 6757
(0.0125801 0.0063864 0.00288966) 13525
(0.0125728 0.00368726 0.00345438) 14485
(0.0130754 0.0036827 0.00345545) 14486
(0.0125465 0.0037809 0.00367064) 14545
(0.0203157 0.00634326 0.00205817) 13480
(0.0218322 0.00643739 0.00218316) 6103
(0.0162005 0.00466947 0.000917318) 11552
(0.0161744 0.00525249 0.000693734) 11912
(0.0177864 0.00514653 0.000670153) 11915
(0.0183482 0.00303734 0.00325771) 816
(0.0183562 0.00657538 0.00161034) 6756
(0.0125571 0.00638637 0.00288972) 13525
(0.0125489 0.00368713 0.00345444) 14485
(0.0130515 0.00368297 0.00345543) 14486
(0.012523 0.00378079 0.00367067) 14545
(0.0130156 0.0037775 0.00367534) 14546
(0.0202085 0.00634324 0.00205461) 13480
(0.0217954 0.00643222 0.0021782) 6103
(0.0161594 0.00467451 0.00091544) 11552
(0.0161156 0.00525691 0.000693971) 11912
(0.0177593 0.00515351 0.00067395) 11915
(0.0182606 0.00303434 0.00325477) 816
(0.0182394 0.00658056 0.00160805) 6756
(0.012534 0.00638635 0.00288978) 13525
(0.0130107 0.0063933 0.00288695) 13526
(0.012525 0.00368697 0.0034545) 14485
(0.0130276 0.00368322 0.00345541) 14486
(0.0124996 0.00378066 0.00367072) 14544
(0.0129916 0.00377767 0.00367517) 14545
(0.0200949 0.00634379 0.00205133) 13480
(0.0217577 0.00642708 0.00217319) 6103
(0.0161174 0.00467952 0.000913518) 11552
(0.0160553 0.00526141 0.000694134) 11912
(0.0177308 0.00516015 0.000677522) 11915
(0.0181709 0.00303108 0.00325209) 816
(0.0181475 0.00658325 0.00160685) 6756
(0.012511 0.00638636 0.00288983) 13525
(0.0129888 0.00639287 0.0028871) 13525
(0.0125011 0.0036868 0.00345457) 14485
(0.0130037 0.00368346 0.00345539) 14486
(0.0124762 0.00378051 0.00367077) 14544
(0.0129677 0.00377782 0.00367501) 14545
(0.0199742 0.0063451 0.0020486) 13479
(0.0217183 0.00642193 0.00216806) 13423
(0.0160744 0.0046845 0.000911546) 11612
(0.0159939 0.00526604 0.000694253) 11911
(0.0177011 0.00516649 0.000680896) 11915
(0.0180776 0.00302742 0.00324968) 816
(0.018062 0.00658549 0.0016059) 6756
(0.0124879 0.00638639 0.00288988) 13524
(0.0129667 0.00639245 0.00288725) 13525
(0.0124772 0.00368662 0.00345464) 14484
(0.0129797 0.00368368 0.00345538) 14485
(0.0124529 0.00378036 0.00367083) 14544
(0.0129437 0.00377797 0.00367485) 14545
(0.0198456 0.0063472 0.00204608) 13479
(0.0216772 0.00641679 0.00216285) 13423
(0.0160306 0.00468949 0.000909522) 11612
(0.0176699 0.00517255 0.000684072) 11915
(0.017983 0.00302359 0.00324737) 815
(0.0179825 0.00658799 0.00160535) 6755
(0.0124647 0.00638643 0.00288991) 13524
(0.0129446 0.00639206 0.00288739) 13525
(0.0124534 0.00368641 0.00345471) 14484
(0.0129557 0.00368389 0.00345536) 14485
(0.0124296 0.00378019 0.0036709) 14544
(0.0129198 0.0037781 0.0036747) 14545
(0.0197094 0.00635026 0.00204379) 13479
(0.0216345 0.00641174 0.00215762) 13423
(0.0159859 0.00469446 0.000907441) 11611
(0.0176371 0.00517832 0.000687042) 11915
(0.0178851 0.00301945 0.00324525) 815
(0.0179164 0.00659095 0.00160574) 6755
(0.0124416 0.0063865 0.00288994) 13524
(0.0129224 0.00639168 0.00288753) 13525
(0.0124297 0.00368619 0.00345478) 14484
(0.0129318 0.00368408 0.00345535) 14485
(0.0124063 0.00378 0.00367098) 14544
(0.0128958 0.00377822 0.00367455) 14545
(0.0195658 0.00635447 0.00204199) 13479
(0.0215902 0.00640672 0.00215234) 13423
(0.0159404 0.00469944 0.0009053) 11611
(0.0176026 0.00518383 0.0006898) 11915
(0.0177843 0.00301515 0.00324328) 755
(0.0178574 0.00659414 0.00160661) 6755
(0.0124184 0.0063866 0.00288997) 13524
(0.0129001 0.00639133 0.00288766) 13525
(0.0123117 0.00421114 0.00186045) 14124
(0.0124059 0.00368594 0.00345486) 14484
(0.0129078 0.00368426 0.00345534) 14485
(0.0134064 0.00367544 0.00345698) 14486
(0.0123831 0.00377981 0.00367107) 14544
(0.0128719 0.00377832 0.00367441) 14545
(0.012422 0.00639133 0.00312591) 15264
(0.0194134 0.00635994 0.00204053) 13478
(0.0215441 0.00640177 0.00214697) 13423
(0.0158939 0.0047044 0.000903097) 11611
(0.0175662 0.00518907 0.000692331) 11915
(0.0176799 0.0030107 0.00324148) 755
(0.0199364 0.00305625 0.00331221) 819
(0.0177977 0.00659738 0.00160732) 6755
(0.0123952 0.00638671 0.00288998) 13524
(0.0128778 0.00639098 0.0028878) 13525
(0.0122896 0.00421097 0.00186043) 14124
(0.0123822 0.00368568 0.00345494) 14484
(0.0128838 0.00368441 0.00345533) 14485
(0.0133827 0.00367583 0.00345691) 14486
(0.01236 0.0037796 0.00367117) 14544
(0.0128481 0.00377841 0.00367427) 14545
(0.01221 0.00500686 0.00438328) 14844
(0.0123989 0.00639147 0.00312599) 15264
(0.0128825 0.00639457 0.00312558) 15265
(0.0192532 0.00636692 0.00203957) 13478
(0.0214961 0.00639692 0.0021415) 13422
(0.0158465 0.00470935 0.000900843) 11611
(0.0172602 0.00458966 0.000940898) 11554
(0.0175277 0.00519407 0.000694634) 11915
(0.0175711 0.0030063 0.00323982) 755
(0.0198764 0.00305654 0.00330804) 819
(0.0177373 0.0066006 0.00160788) 6755
(0.0123719 0.00638684 0.00288999) 13524
(0.0128554 0.00639066 0.00288792) 13525
(0.0133109 0.00640285 0.00288426) 13526
(0.0122675 0.00421078 0.00186041) 14124
(0.0123585 0.0036854 0.00345502) 14484
(0.0128598 0.00368455 0.00345533) 14485
(0.0133591 0.00367622 0.00345684) 14486
(0.0123368 0.00377937 0.00367127) 14544
(0.0128242 0.00377849 0.00367415) 14545
(0.0133213 0.00377212 0.0036805) 14546
(0.0121873 0.00500672 0.00438359) 14844
(0.0126658 0.00500943 0.00438318) 14845
(0.0123757 0.00639163 0.00312606) 15264
(0.0128599 0.00639429 0.0031256) 15265
(0.0190849 0.00637577 0.00203928) 13418
(0.021446 0.00639218 0.002136) 13422
(0.015798 0.00471427 0.000898537) 11611
(0.0172306 0.00459684 0.000939409) 11554
(0.0174872 0.00519884 0.000696721) 11914
(0.0174584 0.00300211 0.0032382) 754
(0.0198146 0.00305672 0.00330398) 819
(0.0176768 0.00660371 0.0016083) 6755
(0.0123487 0.00638699 0.00288999) 13524
(0.012833 0.00639036 0.00288804) 13525
(0.01329 0.00640223 0.00288442) 13526
(0.0122454 0.00421058 0.00186037) 14124
(0.0127017 0.00420915 0.00185695) 14125
(0.0123348 0.0036851 0.00345511) 14484
(0.0128358 0.00368467 0.00345532) 14485
(0.0133354 0.00367659 0.00345678) 14486
(0.0123138 0.00377914 0.00367139) 14544
(0.0128004 0.00377855 0.00367403) 14545
(0.0132973 0.0037724 0.00368028) 14546
(0.0121646 0.00500659 0.00438392) 14844
(0.0126427 0.00500925 0.00438314) 14845
(0.0123525 0.00639181 0.00312614) 15264
(0.0128372 0.00639403 0.00312561) 15265
(0.0189086 0.00638674 0.00203967) 13417
(0.0213936 0.00638759 0.00213047) 13422
(0.0157484 0.00471915 0.000896154) 11611
(0.0172008 0.00460378 0.000937922) 11554
(0.0174446 0.00520343 0.000698604) 11914
(0.0173386 0.00299802 0.0032367) 31968
(0.0197513 0.00305678 0.00330002) 819
(0.0176157 0.00660674 0.00160857) 6755
(0.0123254 0.00638716 0.00288998) 13524
(0.0128104 0.00639008 0.00288816) 13525
(0.013269 0.00640163 0.00288458) 13526
(0.0122233 0.00421037 0.00186033) 14124
(0.0126794 0.00420923 0.00185714) 14125
(0.0123112 0.00368478 0.0034552) 14484
(0.0128118 0.00368478 0.00345532) 14485
(0.0133118 0.00367696 0.00345671) 14486
(0.0122907 0.00377889 0.00367151) 14544
(0.0127766 0.0037786 0.00367392) 14545
(0.0132733 0.00377267 0.00368007) 14546
(0.012142 0.00500646 0.00438426) 14844
(0.0126195 0.00500907 0.00438313) 14845
(0.0123293 0.006392 0.00312623) 15264
(0.0128145 0.00639378 0.00312563) 15265
(0.0187222 0.00640053 0.00204097) 13417
(0.0213388 0.0063831 0.00212484) 13422
(0.0171696 0.00461048 0.000936445) 11554
(0.0173999 0.00520786 0.000700282) 11914
(0.0172066 0.00299349 0.00323555) 31968
(0.019685 0.00305666 0.00329622) 819
(0.0175542 0.00660973 0.00160869) 6755
(0.019748 0.00653706 0.00163157) 6759
(0.012302 0.00638734 0.00288996) 13524
(0.0127878 0.00638982 0.00288827) 13525
(0.013248 0.00640104 0.00288473) 13526
(0.0122012 0.00421015 0.00186027) 14124
(0.012657 0.00420929 0.00185732) 14125
(0.0122876 0.00368444 0.0034553) 14484
(0.0127877 0.00368486 0.00345533) 14485
(0.0132881 0.00367731 0.00345665) 14486
(0.0122677 0.00377863 0.00367164) 14544
(0.0127528 0.00377863 0.00367382) 14545
(0.0132493 0.00377293 0.00367985) 14546
(0.0121194 0.00500634 0.00438461) 14844
(0.0125964 0.00500888 0.00438314) 14845
(0.0123061 0.00639222 0.00312631) 15264
(0.0127918 0.00639356 0.00312565) 15265
(0.0185228 0.00641793 0.0020431) 13417
(0.0212822 0.00637883 0.00211925) 13422
(0.0171368 0.00461692 0.000934978) 11554
(0.0173531 0.00521213 0.000701777) 11914
(0.0170595 0.00298822 0.00323492) 31968
(0.0196174 0.00305644 0.0032925) 819
(0.0174921 0.00661283 0.00160863) 2494
(0.0196839 0.00653882 0.0016309) 6759
(0.0122787 0.00638755 0.00288994) 13524
(0.0127651 0.00638958 0.00288838) 13525
(0.0132268 0.00640046 0.00288489) 13526
(0.0121792 0.00420992 0.00186021) 14124
(0.0126347 0.00420933 0.00185749) 14125
(0.012264 0.00368408 0.0034554) 14484
(0.0127636 0.00368491 0.00345534) 14485
(0.0132644 0.00367766 0.0034566) 14486
(0.0122448 0.00377835 0.00367178) 14544
(0.0127291 0.00377865 0.00367373) 14545
(0.0132253 0.00377318 0.00367964) 14546
(0.0120968 0.00500622 0.00438497) 14844
(0.0125733 0.0050087 0.00438316) 14845
(0.0122828 0.00639244 0.00312641) 15264
(0.0127689 0.00639336 0.00312567) 15265
(0.0212225 0.00637478 0.00211359) 13422
(0.0171025 0.00462314 0.000933513) 11554
(0.0173045 0.0052163 0.000703102) 11914
(0.0168953 0.00298195 0.00323495) 31824
(0.0195485 0.0030561 0.00328886) 819
(0.017431 0.00661605 0.00160847) 2494
(0.0196111 0.00654128 0.00162958) 6759
(0.0122553 0.00638778 0.00288991) 13524
(0.0127423 0.00638936 0.00288849) 13525
(0.0132056 0.00639989 0.00288505) 13526
(0.0121572 0.00420968 0.00186015) 14124
(0.0126123 0.00420937 0.00185765) 14125
(0.0122405 0.00368371 0.0034555) 14484
(0.0127395 0.00368495 0.00345535) 14485
(0.0132406 0.00367799 0.00345654) 14486
(0.0122218 0.00377807 0.00367193) 14544
(0.0127054 0.00377866 0.00367365) 14545
(0.0132013 0.00377342 0.00367943) 14546
(0.0120742 0.00500611 0.00438535) 14844
(0.0125502 0.00500851 0.0043832) 14845
(0.0122596 0.00639269 0.0031265) 15264
(0.012746 0.00639318 0.0031257) 15265
(0.0211601 0.00637097 0.00210785) 13422
(0.0170666 0.00462914 0.000932044) 11554
(0.0172538 0.00522036 0.000704262) 11914
(0.0167122 0.0029742 0.00323582) 31824
(0.0194771 0.00305559 0.00328534) 818
(0.0173699 0.00661929 0.00160815) 2494
(0.0195296 0.00654451 0.0016277) 6759
(0.0122318 0.00638802 0.00288987) 13524
(0.0127195 0.00638917 0.00288859) 13525
(0.0131843 0.00639934 0.00288521) 13526
(0.0125526 0.00441758 0.00173985) 14065
(0.0121352 0.00420944 0.00186007) 14124
(0.0125899 0.00420938 0.0018578) 14125
(0.0122169 0.00368332 0.0034556) 14484
(0.0127154 0.00368497 0.00345537) 14485
(0.0132168 0.00367831 0.0034565) 14486
(0.012199 0.00377777 0.00367209) 14544
(0.0126817 0.00377865 0.00367357) 14545
(0.0131773 0.00377365 0.00367923) 14546
(0.0120516 0.005006 0.00438573) 14844
(0.0125271 0.00500833 0.00438326) 14845
(0.0122363 0.00639295 0.0031266) 15264
(0.012723 0.00639303 0.00312573) 15265
(0.021095 0.00636737 0.00210197) 13422
(0.0170294 0.00463497 0.000930568) 11554
(0.0172014 0.00522436 0.000705277) 11914
(0.0165109 0.00296456 0.00323759) 31824
(0.019404 0.00305496 0.0032819) 818
(0.0173081 0.00662256 0.00160758) 2494
(0.0194396 0.00654861 0.00162542) 6758
(0.0122084 0.00638828 0.00288982) 13524
(0.0126966 0.006389 0.00288869) 13525
(0.0131629 0.0063988 0.00288536) 13526
(0.0120807 0.00441653 0.00174153) 14064
(0.0125304 0.00441758 0.00173997) 14065
(0.0121132 0.00420918 0.00185999) 14124
(0.0125676 0.00420939 0.00185793) 14125
(0.0121935 0.00368291 0.00345571) 14484
(0.0126913 0.00368497 0.0034554) 14485
(0.013193 0.00367862 0.00345645) 14486
(0.0121761 0.00377747 0.00367225) 14544
(0.0126581 0.00377862 0.00367352) 14545
(0.0131533 0.00377388 0.00367904) 14546
(0.0120291 0.00500589 0.00438613) 14844
(0.012504 0.00500814 0.00438334) 14845
(0.012213 0.00639322 0.0031267) 15264
(0.0127 0.00639289 0.00312576) 15265
(0.0131717 0.00640169 0.00312618) 15266
(0.0210263 0.00636406 0.00209611) 13422
(0.0222029 0.00649697 0.00222872) 6104
(0.0169909 0.00464063 0.000929082) 11553
(0.0171474 0.00522832 0.000706163) 11914
(0.0184522 0.00510508 0.000653562) 11916
(0.0162928 0.00295243 0.00324039) 31680
(0.0193301 0.00305422 0.00327851) 818
(0.0172446 0.00662575 0.00160668) 2494
(0.0193408 0.0065538 0.00162284) 6758
(0.0121849 0.00638855 0.00288977) 13524
(0.0126736 0.00638885 0.00288878) 13525
(0.0131414 0.00639827 0.00288552) 13526
(0.0120586 0.0044164 0.00174131) 14064
(0.0125081 0.00441757 0.00174008) 14065
(0.0120912 0.00420892 0.00185989) 14124
(0.0125453 0.00420938 0.00185806) 14125
(0.0129985 0.00420402 0.00185114) 14125
(0.01217 0.00368249 0.00345582) 14484
(0.0126673 0.00368494 0.00345543) 14485
(0.0131691 0.00367892 0.00345642) 14486
(0.0121533 0.00377715 0.00367243) 14544
(0.0126345 0.00377859 0.00367347) 14545
(0.0131293 0.00377409 0.00367885) 14546
(0.0120065 0.00500579 0.00438653) 14844
(0.012481 0.00500796 0.00438344) 14844
(0.0121898 0.0063935 0.00312682) 15264
(0.0126769 0.00639278 0.0031258) 15265
(0.0131499 0.00640118 0.00312616) 15266
(0.0209539 0.00636109 0.00209036) 13421
(0.0221705 0.00649104 0.00222478) 6104
(0.0169512 0.00464614 0.000927579) 11553
(0.017092 0.00523224 0.000706925) 11914
(0.0184499 0.00511552 0.000660023) 11916
(0.0160666 0.00293784 0.0032443) 31680
(0.0192536 0.00305328 0.00327523) 818
(0.0171785 0.00662888 0.00160536) 2494
(0.0192334 0.00656019 0.00162005) 6758
(0.0121615 0.00638885 0.00288971) 13524
(0.0126506 0.00638872 0.00288887) 13525
(0.0131199 0.00639776 0.00288567) 13526
(0.0120365 0.00441626 0.00174108) 14064
(0.0124859 0.00441755 0.00174017) 14064
(0.0120693 0.00420864 0.00185979) 14124
(0.0125229 0.00420936 0.00185817) 14125
(0.0129766 0.00420424 0.0018515) 14125
(0.0121466 0.00368206 0.00345593) 14484
(0.0126432 0.0036849 0.00345547) 14485
(0.0131453 0.00367921 0.00345638) 14486
(0.0121305 0.00377683 0.00367262) 14544
(0.0126109 0.00377854 0.00367343) 14545
(0.0131052 0.0037743 0.00367866) 14546
(0.011984 0.00500569 0.00438695) 14843
(0.012458 0.00500778 0.00438355) 14844
(0.0121665 0.0063938 0.00312693) 15264
(0.0126538 0.00639269 0.00312585) 15265
(0.0131281 0.00640068 0.00312615) 15266
(0.0208777 0.00635835 0.00208455) 13421
(0.0221379 0.00648512 0.0022206) 6104
(0.0169104 0.00465152 0.00092606) 11553
(0.0170351 0.00523616 0.000707575) 11914
(0.0184443 0.00512535 0.000666107) 11916
(0.0158444 0.00292138 0.00324889) 31536
(0.0191755 0.00305216 0.00327197) 818
(0.0171099 0.00663185 0.00160358) 2494
(0.0191167 0.00656805 0.00161713) 6758
(0.0121379 0.00638916 0.00288964) 13524
(0.0126275 0.00638861 0.00288895) 13525
(0.0130982 0.00639726 0.00288583) 13526
(0.0120144 0.00441612 0.00174083) 14064
(0.0124637 0.00441753 0.00174024) 14064
(0.0120474 0.00420836 0.00185969) 14124
(0.0125006 0.00420933 0.00185827) 14125
(0.0129546 0.00420446 0.00185184) 14125
(0.0121232 0.00368161 0.00345604) 14484
(0.0126191 0.00368484 0.00345551) 14485
(0.0131214 0.00367949 0.00345635) 14486
(0.0121077 0.00377649 0.00367281) 14544
(0.0125874 0.00377848 0.00367341) 14545
(0.0130812 0.00377449 0.00367848) 14546
(0.0119615 0.0050056 0.00438736) 14843
(0.0124351 0.00500761 0.00438367) 14844
(0.0121432 0.00639411 0.00312705) 15264
(0.0126307 0.00639262 0.00312589) 15265
(0.0131062 0.00640021 0.00312614) 15266
(0.0207967 0.00635587 0.0020785) 13421
(0.0221045 0.00647925 0.00221621) 6104
(0.0168688 0.0046568 0.000924524) 11553
(0.0169772 0.00524009 0.000708136) 11913
(0.0184357 0.00513461 0.000671824) 11916
(0.0156471 0.00290527 0.00325327) 31537
(0.019095 0.00305083 0.00326875) 818
(0.0170385 0.0066346 0.00160129) 2494
(0.0189891 0.00657763 0.00161406) 6757
(0.0121144 0.00638948 0.00288957) 13524
(0.0126044 0.00638853 0.00288903) 13525
(0.0130765 0.00639678 0.00288598) 13526
(0.0118626 0.00579876 0.0018902) 13763
(0.0119923 0.00441597 0.00174057) 14063
(0.0124415 0.0044175 0.0017403) 14064
(0.0120254 0.00420807 0.00185957) 14124
(0.0124783 0.00420928 0.00185836) 14124
(0.0129327 0.00420466 0.00185217) 14125
(0.0120998 0.00368114 0.00345616) 14484
(0.0125951 0.00368476 0.00345556) 14485
(0.0130975 0.00367975 0.00345633) 14486
(0.012085 0.00377615 0.00367301) 14544
(0.0125639 0.00377841 0.0036734) 14545
(0.0130572 0.00377468 0.00367831) 14546
(0.0119389 0.00500551 0.00438779) 14843
(0.0124121 0.00500744 0.00438382) 14844
(0.0121199 0.00639443 0.00312717) 15264
(0.0126075 0.00639257 0.00312594) 15265
(0.0130842 0.00639975 0.00312613) 15266
(0.0207111 0.00635371 0.00207275) 13481
(0.022071 0.00647343 0.00221168) 6104
(0.0168264 0.00466199 0.000922959) 11553
(0.0169182 0.00524405 0.000708607) 11913
(0.0184215 0.00514303 0.000676968) 11916
(0.0154967 0.00289241 0.00325598) 31393
(0.0190118 0.00304923 0.00326558) 818
(0.0169637 0.00663697 0.00159837) 2493
(0.0188716 0.00658384 0.00161162) 6757
(0.0120909 0.00638983 0.0028895) 13524
(0.0125812 0.00638847 0.0028891) 13525
(0.0130547 0.00639631 0.00288613) 13526
(0.0118403 0.00579894 0.0018899) 13763
(0.0119703 0.00441582 0.0017403) 14063
(0.0124193 0.00441746 0.00174034) 14064
(0.0120035 0.00420777 0.00185945) 14124
(0.012456 0.00420922 0.00185844) 14124
(0.0129107 0.00420485 0.00185249) 14125
(0.0120765 0.00368067 0.00345627) 14484
(0.0125711 0.00368466 0.00345561) 14485
(0.0130735 0.00368 0.00345631) 14486
(0.0120623 0.00377579 0.00367322) 14544
(0.0125404 0.00377832 0.0036734) 14545
(0.0130332 0.00377485 0.00367814) 14546
(0.0119164 0.00500543 0.00438822) 14843
(0.0123892 0.00500727 0.00438397) 14844
(0.0120966 0.00639477 0.0031273) 15264
(0.0125842 0.00639255 0.003126) 15265
(0.0130622 0.0063993 0.00312612) 15266
(0.0206198 0.00635182 0.00206737) 13481
(0.0220367 0.00646764 0.00220695) 6104
(0.0167833 0.0046671 0.000921363) 11553
(0.016858 0.00524804 0.000708981) 11913
(0.018403 0.0051508 0.000681628) 11916
(0.0189281 0.00304743 0.0032624) 817
(0.0168848 0.00663896 0.00159473) 2493
(0.0187709 0.00658711 0.00161008) 6757
(0.0120673 0.00639019 0.00288942) 13524
(0.012558 0.00638843 0.00288917) 13525
(0.0130328 0.00639586 0.00288628) 13526
(0.0118179 0.00579913 0.00188959) 13763
(0.0119482 0.00441566 0.00174002) 14063
(0.0123971 0.00441742 0.00174036) 14064
(0.0128454 0.0044162 0.00173321) 14065
(0.0119817 0.00420747 0.00185932) 14123
(0.0124337 0.00420915 0.00185851) 14124
(0.0128886 0.00420504 0.0018528) 14125
(0.0120532 0.00368018 0.00345638) 14484
(0.0125471 0.00368455 0.00345567) 14485
(0.0130496 0.00368025 0.00345629) 14486
(0.0120396 0.00377542 0.00367343) 14544
(0.012517 0.00377822 0.00367341) 14545
(0.0130092 0.00377502 0.00367798) 14546
(0.0118939 0.00500535 0.00438866) 14843
(0.0123663 0.0050071 0.00438415) 14844
(0.0120733 0.00639511 0.00312742) 15264
(0.012561 0.00639254 0.00312605) 15265
(0.01304 0.00639887 0.00312611) 15266
(0.0205226 0.00635033 0.0020619) 13481
(0.0220016 0.0064619 0.00220206) 6104
(0.0167396 0.00467212 0.000919727) 11553
(0.0167969 0.0052521 0.000709288) 11913
(0.0183821 0.00515813 0.000686025) 11916
(0.0188423 0.00304534 0.00325925) 817
(0.0186854 0.00658959 0.00160953) 6757
(0.0120437 0.00639056 0.00288933) 13524
(0.0125347 0.00638841 0.00288923) 13525
(0.0130108 0.00639543 0.00288643) 13526
(0.0117955 0.00579932 0.00188928) 13763
(0.0119261 0.00441551 0.00173973) 14063
(0.0123749 0.00441737 0.00174036) 14064
(0.0128236 0.00441631 0.00173357) 14065
(0.0119598 0.00420715 0.00185917) 14123
(0.0124115 0.00420907 0.00185857) 14124
(0.0128666 0.00420522 0.0018531) 14125
(0.0120299 0.00367967 0.00345649) 14484
(0.0125231 0.00368442 0.00345573) 14485