/*--------------------------------*- C++ -*----------------------------------*\
| =========                 |                                                 |
| \\      /  F ield         | OpenFOAM: The Open Source CFD Toolbox           |
|  \\    /   O peration     | Version:  2.1.1                                 |
|   \\  /    A nd           | Web:      www.OpenFOAM.org                      |
|    \\/     M anipulation  |                                                 |
\*---------------------------------------------------------------------------*/
FoamFile
{
    version     2.0;
    format      ascii;
    class       scalarField;
    location    "0.00115";
    object      T;
}
// * * * * * * * * * * * * * * * * * * * * * * * * * * * * * * * * * * * * * //


44538
(
583.08
469.14
462.484
455.814
449.28
442.971
436.791
430.813
425.123
419.884
415.216
411.224
407.897
405.237
403.181
401.797
400.87
516.767
508.599
500.357
491.979
483.561
475.086
466.52
457.933
449.313
440.745
432.192
423.811
415.558
407.481
399.639
392.153
385.116
378.571
574.656
372.504
566.34
625.134
366.961
557.81
616.491
361.898
549.196
607.725
357.296
540.397
598.496
353.025
531.301
588.41
348.982
521.972
577.881
512.426
566.846
502.741
554.957
3.91153e+180
544.353
4.72822e+222
535.158
472.746
525.596
462.616
452.555
442.42
432.293
673.054
422.209
666.951
412.181
661.006
402.402
3.91153e+180
392.725
623.005
647.372
383.229
614.9
639.955
373.947
606.517
632.179
365.037
597.911
624.06
356.67
589.094
615.599
348.535
580.032
606.488
340.749
570.689
596.756
333.375
561.04
586.294
3.91153e+180
551.133
574.647
319.151
541.017
561.939
312.217
3.91153e+180
548.236
520.085
532.851
509.171
515.234
498.085
663.641
497.266
1.19354e+190
663.669
477.273
697.685
475.126
2.06697e+161
456.739
692.256
463.379
663.247
433.217
2.06685e+161
451.654
2.06697e+161
680.593
2.06697e+161
662.246
674.355
428.326
661.508
667.901
416.683
666.694
660.622
661.586
405.146
658.686
659.585
6.75387e+87
393.644
2.06697e+161
658.305
647.44
382.5
641.899
656.732
639.962
371.371
633.13
6.75387e+87
9.09155e+223
2.06697e+161
624.162
652.729
624.303
349.893
615.084
616.112
339.906
605.713
607.768
330.15
596.085
599.33
320.676
586.195
701.058
590.768
311.547
576.014
6.75387e+87
581.874
302.461
565.477
703.86
572.241
293.405
4.2695e+257
633.6
704.781
561.664
729.252
543.293
2.06697e+161
705.396
9.09155e+223
4.2695e+257
531.666
631.508
705.733
537.252
719.231
519.742
630.225
705.796
522.66
714.347
507.444
628.75
705.721
505.042
708.669
4.2695e+257
627.018
9.09155e+223
9.09155e+223
702.547
481.906
625.039
705.259
460.469
696.107
472.728
468.67
717.621
622.808
704.525
436.452
689.476
610.406
472.037
527.196
455.201
9.09155e+223
620.353
703.386
413.424
682.52
608.57
471.356
525.979
441.717
703.069
617.644
702.005
675.312
606.643
481.821
470.675
524.73
428.355
695.374
614.68
700.449
682.195
667.972
604.438
480.848
469.977
456.245
523.448
414.957
2.06697e+161
611.451
9.09155e+223
685.19
660.037
601.975
479.923
469.257
455.733
522.131
512.974
401.689
679.128
9.09155e+223
696.75
687.559
651.952
599.496
479.042
481.477
468.525
455.243
520.778
512.384
388.541
670.537
604.067
9.09155e+223
689.57
643.659
597.133
478.189
479.74
467.769
454.774
519.387
511.766
2.06697e+161
661.682
9.09155e+223
691.94
691.275
635.078
594.623
477.359
478.072
466.986
454.322
517.959
511.114
2.06697e+161
652.608
9.09155e+223
9.09155e+223
626.247
592.055
476.55
476.487
466.196
453.892
516.495
510.427
2.06697e+161
643.27
590.069
693.662
617.132
589.793
475.759
474.973
465.38
453.486
514.992
509.694
338.676
633.645
584.624
694.39
607.891
587.643
474.975
473.508
591.074
464.553
453.087
442.936
513.448
508.913
480.726
327.22
9.09155e+223
578.802
694.868
598.431
785.594
585.413
474.188
472.111
588.407
463.685
452.7
442.285
511.857
508.094
491.98
479.683
483.159
316.087
9.09155e+223
572.635
639.16
695.107
588.917
779.028
583.129
473.409
470.771
494.774
585.682
462.805
452.321
441.658
510.213
507.233
495.185
490.357
505.978
478.669
481.473
305.31
603.404
566.138
638.097
695.129
579.328
772.442
580.684
472.625
469.469
491.755
582.879
614.004
461.904
451.936
441.028
508.51
506.31
494.605
488.771
504.606
477.679
479.847
294.983
592.814
9.09155e+223
636.765
694.728
569.766
765.788
578.104
471.821
468.185
488.816
580.081
611.573
460.961
451.526
440.385
506.733
505.309
493.991
487.211
503.233
476.699
478.271
284.728
9.09155e+223
635.249
693.801
560.138
759.203
575.395
637.223
470.988
466.915
485.95
577.334
609.188
459.961
451.074
439.739
504.856
504.194
493.323
485.671
501.854
475.722
476.74
274.819
570.623
633.553
692.33
550.388
752.637
572.561
636.25
470.104
465.636
483.201
574.66
606.834
458.834
450.515
439.08
502.821
502.973
492.596
484.15
500.467
474.732
475.232
558.927
9.09155e+223
690.393
540.498
746.198
569.561
634.978
469.137
464.315
480.544
572.045
604.512
457.534
449.838
438.369
500.758
501.782
491.933
482.646
499.072
473.705
473.711
9.09155e+223
629.537
688.119
530.735
740.066
566.457
633.385
468.087
463.005
478.013
630.229
569.478
602.21
456.236
449.133
437.669
498.783
500.669
491.326
481.16
497.668
472.583
472.191
534.192
9.09155e+223
1.49258e+195
520.544
733.737
563.343
631.519
467.091
461.84
475.595
589.173
627.816
566.956
599.925
455.082
448.503
437.034
496.903
499.595
490.75
479.691
496.258
471.533
470.827
489.87
521.168
760.739
624.625
682.506
9.09155e+223
3.94662e+180
9.09155e+223
560.18
629.496
466.243
460.786
473.3
586.895
625.422
564.468
597.655
632.245
454.059
447.957
436.454
495.089
498.529
490.188
478.244
494.841
470.625
469.58
487.287
507.768
754.284
9.09155e+223
9.09155e+223
683.678
496.759
720.364
556.843
627.463
465.491
459.818
471.119
584.658
623.04
562.001
595.389
629.629
453.1
447.427
435.892
493.318
497.452
489.627
476.821
493.41
469.808
468.412
484.804
493.858
747.478
9.09155e+223
675.526
688.349
483.972
713.454
553.331
625.489
464.806
458.921
469.045
582.447
620.666
559.556
593.13
627.046
452.178
446.889
435.342
491.576
496.352
489.064
475.409
491.966
469.049
467.304
482.417
479.514
740.391
615.186
671.715
692.44
469.429
706.31
549.67
623.501
464.177
458.086
467.069
429.597
580.264
618.29
557.129
590.874
624.496
451.284
446.33
434.809
489.85
495.226
488.492
474.009
490.507
468.333
466.241
480.113
464.751
732.961
611.453
667.295
695.976
454.421
699.017
546.206
621.181
463.598
457.299
465.192
428.619
578.1
615.894
554.719
588.599
621.972
450.416
445.757
434.289
488.132
494.067
487.909
472.623
489.033
467.645
465.201
477.882
449.572
725.259
9.09155e+223
654.862
698.909
691.427
542.746
618.578
463.062
456.553
463.394
427.64
575.951
613.484
654.598
552.328
586.298
619.468
449.571
445.166
433.787
486.413
492.875
487.314
471.252
487.543
466.965
464.181
475.728
434.299
9.09155e+223
603.035
656.716
701.224
683.075
615.822
462.559
455.841
461.681
426.658
573.809
611.058
651.682
549.947
583.966
616.985
448.739
444.563
433.308
484.689
491.646
486.704
469.898
486.04
466.28
463.178
473.64
419.124
9.09155e+223
9.09155e+223
650.785
702.918
674.302
612.832
462.078
455.158
460.03
425.666
571.668
608.614
648.772
547.572
581.604
614.51
447.925
443.939
432.856
482.959
490.381
486.079
468.561
484.522
465.593
462.191
471.615
403.979
9.09155e+223
597.678
593.193
644.459
703.998
665.135
609.615
461.614
454.499
458.447
424.66
569.514
606.148
645.872
545.203
579.211
612.035
447.118
443.291
432.432
481.226
489.079
485.439
467.24
482.987
464.903
461.218
469.656
389.002
691.434
594.238
587.588
637.654
704.637
655.526
606.342
461.165
453.858
456.93
423.683
567.358
603.654
642.976
542.831
576.782
609.562
446.332
442.634
432.038
479.499
487.739
484.771
465.935
481.429
460.262
467.772
374.218
682.212
590.39
581.484
630.259
704.938
645.509
860.918
603.178
460.741
453.23
455.477
422.731
601.124
640.127
540.464
574.313
607.074
445.561
441.956
431.676
477.78
486.358
484.075
464.646
479.852
459.324
465.965
359.967
672.73
586.12
574.864
622.453
704.866
635.059
854.888
599.96
460.34
452.606
454.075
421.833
598.543
637.318
538.103
571.797
604.559
444.795
441.265
431.325
476.069
484.935
483.347
463.387
478.284
458.405
464.236
9.09155e+223
663
581.411
567.768
613.954
704.439
624.282
848.448
596.532
459.943
451.977
452.734
420.984
595.901
634.565
535.742
569.23
602.053
444.034
440.545
430.982
474.365
483.469
482.587
462.176
476.728
457.501
462.586
332.371
653.095
576.299
9.09155e+223
668.156
604.858
703.696
613.308
841.669
592.901
660.901
459.537
451.349
451.441
420.175
593.278
631.9
533.377
566.608
599.575
443.278
439.806
430.641
472.669
481.953
481.784
461.012
475.2
456.609
461.008
319.452
642.986
570.705
552.039
666.947
596.429
702.587
601.962
834.513
588.987
661.915
459.131
450.715
450.188
419.398
590.723
629.302
531.011
563.938
597.156
442.536
439.037
430.296
470.968
480.377
480.925
459.893
473.71
455.729
459.485
307.055
632.621
565.313
543.405
665.439
589.656
701.191
590.45
827.071
584.767
662.478
458.722
450.06
448.951
588.247
626.77
528.635
561.279
594.779
441.801
438.223
429.941
469.261
478.725
479.991
458.832
472.248
454.855
458.02
2.06697e+161
621.971
560.5
529.024
534.31
663.638
582.805
699.493
578.949
819.387
580.2
662.637
458.298
449.372
447.728
585.833
624.287
526.255
558.687
592.448
441.07
437.35
429.543
467.536
476.971
478.95
470.809
453.972
456.594
283.813
2.06697e+161
9.09155e+223
528.882
524.821
661.596
697.53
567.592
811.448
575.298
662.457
457.854
448.635
446.502
583.473
621.854
523.929
556.15
590.161
440.324
436.368
429.067
465.786
475.069
477.803
469.388
453.065
455.188
2.06697e+161
599.863
549.82
528.688
515.037
659.338
695.248
556.35
803.319
570.119
661.988
457.367
447.82
445.249
581.157
619.465
521.685
553.66
587.908
439.537
435.277
428.49
463.989
473.147
476.751
467.987
452.105
453.77
588.296
9.09155e+223
528.421
689.945
689.945
689.945
505.016
656.851
692.409
677.749
545.243
795.065
564.692
661.226
446.945
444.031
578.886
617.108
519.537
551.212
585.683
438.757
434.186
427.9
462.19
471.367
475.746
466.607
451.057
452.382
576.313
528.031
690.563
2.06697e+161
690.563
9.09155e+223
653.682
688.981
684.328
534.518
786.806
559.075
660.233
446.143
442.944
576.656
614.781
517.465
548.801
583.48
438.046
433.206
427.395
460.501
469.669
474.765
465.246
450.093
451.121
2.06697e+161
797.695
527.445
690.717
690.717
690.717
651.181
685.084
690.355
524.289
778.497
553.267
659.069
445.457
441.96
574.459
612.487
515.462
546.423
581.295
437.459
432.327
426.949
458.926
468.026
473.788
463.905
449.247
449.965
550.839
9.09155e+223
9.09155e+223
690.686
690.686
690.686
647.957
680.79
695.817
514.413
770.103
547.2
657.744
444.853
441.054
572.285
610.207
513.527
544.071
579.123
436.964
431.498
426.515
457.443
466.419
472.803
462.586
448.474
448.882
2.06697e+161
785.852
525.385
690.487
690.487
690.487
644.444
676.089
700.736
504.773
761.759
540.772
656.147
444.31
440.217
570.133
607.922
511.657
541.748
576.962
436.549
430.701
426.08
456.038
464.836
471.798
461.278
447.748
447.855
523.262
2.06697e+161
9.09155e+223
4.2695e+257
690.111
690.111
640.621
670.995
705.114
494.319
753.477
533.877
654.365
443.817
439.439
567.999
605.637
509.846
539.448
574.794
436.179
429.928
425.629
454.695
463.263
470.77
459.974
447.055
446.872
508.78
9.09155e+223
632.15
522.534
689.553
689.553
689.553
636.472
665.516
709.05
485.677
745.247
526.619
652.441
443.36
438.714
565.876
603.344
537.169
572.604
435.87
429.169
425.173
453.395
461.688
469.713
458.682
446.384
445.918
493.847
9.09155e+223
9.09155e+223
520.864
688.788
688.788
688.788
631.973
659.806
712.454
475.277
736.998
519.239
650.36
442.936
438.034
563.764
601.035
534.898
570.387
435.616
428.427
424.71
452.123
460.11
468.625
457.404
445.72
444.986
2.06697e+161
758.389
9.09155e+223
518.978
9.09155e+223
687.822
687.822
627.103
653.801
715.3
465.125
728.736
511.509
648.088
442.537
437.392
561.657
598.711
532.63
568.138
435.398
427.7
424.227
450.869
458.526
467.504
456.138
445.054
444.071
462.515
750.787
626.241
516.825
686.634
686.634
686.634
705.474
621.825
647.031
717.576
455.225
719.972
503.664
645.628
442.162
436.778
559.543
596.368
530.36
565.859
435.207
426.979
423.731
449.625
456.932
466.348
454.887
444.38
443.171
446.191
742.887
623.439
9.09155e+223
3.94662e+180
9.09155e+223
685.318
697.867
616.142
639.707
719.253
710.891
931.042
495.684
643.033
441.802
436.189
557.411
593.997
528.091
563.552
435.039
426.266
423.219
448.386
455.331
465.158
453.649
443.698
442.281
429.755
9.09155e+223
620.159
683.731
683.731
683.731
689.617
610.059
631.888
720.361
701.416
927.339
487.578
640.412
441.448
435.626
555.271
591.591
525.813
561.214
434.903
425.567
422.689
447.162
453.732
463.931
452.424
443.009
441.403
2.06697e+161
726.068
9.09155e+223
681.881
681.881
681.881
692.611
692.611
692.611
680.794
603.564
623.578
720.932
691.601
923.232
479.818
637.746
441.104
435.08
553.121
589.134
523.537
558.83
434.803
424.878
422.142
445.971
452.134
462.662
451.206
442.32
440.542
397.111
717.138
2.06697e+161
679.766
9.09155e+223
679.766
694.481
694.481
694.481
671.493
596.533
614.652
721.131
681.367
918.717
472.634
634.849
440.757
434.545
550.959
586.623
521.262
556.403
434.733
424.196
421.573
444.816
450.534
461.353
450.025
441.635
439.693
380.872
9.09155e+223
606.99
677.297
677.297
677.297
696.1
696.1
696.1
661.782
588.925
605.111
721.061
670.462
913.783
465.476
631.652
683.54
440.394
434.011
548.779
584.127
518.985
553.924
434.68
423.505
420.972
443.701
448.935
460.002
448.885
440.951
438.853
364.846
698.316
601.374
696.93
696.93
696.93
651.717
580.787
716.223
595.016
720.727
658.998
908.441
628.187
686.359
440.043
433.473
546.574
581.65
516.702
551.388
434.631
422.812
420.346
442.623
447.334
458.601
447.785
440.264
438.018
487.372
2.06697e+161
595.139
9.09155e+223
697.201
697.201
697.201
641.357
572.093
715.607
584.227
720.101
647.109
902.645
624.398
688.687
439.681
432.921
544.412
579.243
514.415
548.859
434.573
422.127
419.685
441.582
445.729
457.146
446.728
439.57
437.185
334.107
678.349
588.136
544.38
697.21
697.21
697.21
630.707
562.848
714.708
572.892
719.174
635.783
896.447
620.231
690.571
439.305
432.347
542.295
576.898
512.116
546.366
434.502
421.434
418.981
440.563
444.113
455.623
445.723
438.865
436.343
319.365
9.09155e+223
580.385
543.356
697.121
697.121
697.121
619.721
553.081
713.501
562.819
717.911
677.277
889.815
615.688
692.006
438.909
431.739
540.234
574.601
509.859
543.931
434.42
420.734
418.215
553.643
553.643
553.643
439.557
442.479
454.015
444.784
438.141
435.485
657.053
641.387
305.524
9.09155e+223
572.426
542.232
696.951
696.951
696.951
608.278
542.793
711.969
553.277
716.318
609.3
882.806
610.723
693.045
438.481
431.083
538.272
572.343
507.655
541.539
434.32
420.014
417.349
554.395
554.395
554.395
438.557
440.822
452.29
443.906
437.392
434.599
657.183
642.829
2.06697e+161
646.912
9.09155e+223
541.003
696.675
696.675
696.675
596.664
532.002
710.164
543.675
714.417
596.566
875.364
605.38
693.778
438.029
430.36
536.386
570.131
505.537
539.185
434.236
419.25
416.414
555.136
555.136
555.136
437.56
439.132
450.615
490.936
443.088
436.606
433.663
502.142
640.203
657.252
644.641
2.06697e+161
636.007
555.985
539.656
696.262
696.262
696.262
585.129
520.716
708.107
533.835
712.241
583.996
867.574
599.617
694.248
437.576
429.607
449.958
534.585
567.96
503.505
536.865
569.686
569.686
569.686
434.183
418.495
415.478
555.858
555.858
555.858
436.606
437.465
449.025
491.335
442.327
435.802
432.69
505.654
644.208
657.52
646.858
2.06697e+161
624.763
839.554
547.021
538.171
695.692
695.692
695.692
573.811
508.965
705.766
523.852
709.762
694.321
571.375
859.384
593.48
694.485
437.164
428.932
639.839
450.128
556.836
532.857
565.83
501.554
534.575
547.649
570.552
570.552
570.552
434.148
417.795
414.653
556.553
556.553
556.553
435.697
435.872
447.494
491.665
441.622
435.036
431.779
509.535
648.472
658.433
649.464
821.179
613.157
834.461
9.09155e+223
536.519
694.923
694.923
694.923
496.822
703.129
513.724
706.898
701.018
558.777
850.907
586.973
694.512
436.826
428.345
640.88
450.296
557.34
531.199
563.733
499.676
532.313
548.822
526.142
571.401
571.401
571.401
434.122
417.185
413.9
557.222
557.222
557.222
499.113
434.836
434.372
445.995
491.936
440.969
716.936
434.304
430.964
513.416
652.682
1223.07
1099.69
659.793
652.881
819.374
601.403
829.043
527.787
534.672
693.927
693.927
693.927
484.378
700.157
703.463
707.119
546.378
842.098
580.067
694.185
436.537
427.813
641.827
450.466
557.832
529.602
561.653
497.864
530.073
549.894
526.809
572.227
572.227
572.227
434.128
416.641
413.187
557.851
557.851
557.851
499.916
434.026
432.947
444.512
492.154
440.365
716.264
433.646
430.202
904.38
517.385
657.472
1069.83
1222.29
1098.4
661.683
658.526
818.617
1081.29
589.248
823.291
517.641
670.165
532.651
692.806
692.806
692.806
471.656
696.838
699.522
712.652
534.403
833.05
572.642
693.461
436.297
427.32
642.777
450.645
558.332
528.07
559.598
496.12
527.856
550.926
527.457
573.017
573.017
573.017
434.205
416.172
412.503
558.45
558.45
558.45
500.719
455.815
433.322
431.591
443.048
492.328
439.815
715.581
433.041
429.476
950.391
948.53
901.961
521.963
664.12
1067.61
1215.71
1097.15
663.529
647.546
820.078
1117.36
1001.52
1080.87
576.564
817.25
670.097
530.493
691.279
691.279
691.279
458.606
693.169
695.176
717.684
522.988
823.841
564.673
692.365
436.112
426.865
643.749
450.842
558.867
526.595
557.552
593.24
593.24
593.24
494.44
525.665
551.96
528.076
573.767
573.767
573.767
434.343
415.772
411.842
559.035
559.035
559.035
501.525
456.006
432.711
430.296
441.592
492.54
439.299
714.878
432.485
428.778
931.015
947.67
899.288
1068.42
1202.3
1096.14
1519.05
1419.79
650.382
825.308
1104.56
1274.97
1082.15
563.345
810.904
669.735
2.06697e+161
689.427
689.427
689.427
765.778
445.267
689.094
690.374
722.3
511.773
814.489
556.128
690.959
435.967
426.441
644.671
451.065
559.411
525.16
555.514
594.573
594.573
594.573
492.816
523.503
552.989
528.669
574.477
574.477
574.477
434.505
415.435
411.199
559.574
559.574
559.574
502.316
456.211
432.157
429.043
440.134
492.786
438.812
714.164
431.965
428.098
912.862
947.739
897.387
1185.04
1095.22
1613.9
1459.47
654.124
834.709
1086.23
1178.03
1071.12
549.441
804.283
669.052
525.388
687.245
687.245
687.245
760.031
684.635
685.085
726.483
500.714
805.074
547.321
689.319
435.847
426.04
645.526
451.318
559.964
523.763
553.478
595.817
595.817
595.817
491.244
521.336
554.015
529.23
575.14
575.14
575.14
434.652
415.147
410.568
560.055
560.055
560.055
503.063
456.413
431.622
427.815
438.67
493.072
470.074
438.356
713.437
431.463
427.422
916.752
945.626
896.067
1163.33
1095.74
1668.43
1518.66
657.99
1084.01
1079.56
534.824
9.09155e+223
668.028
522.408
609.089
684.749
684.749
684.749
694.754
694.754
694.754
753.527
679.765
569.465
679.275
730.186
490.171
795.594
537.809
687.472
435.722
425.651
646.308
451.612
431.168
560.522
522.406
551.442
596.982
596.982
596.982
489.722
519.162
555.037
527.911
529.782
575.759
575.759
575.759
519.694
434.774
414.893
409.942
560.488
560.488
560.488
503.771
456.612
431.098
426.603
437.196
493.403
470.973
437.93
712.698
430.962
426.742
921.682
944.632
892.946
840.521
1138.92
1094.93
1692.13
1597.21
661.789
801.368
1080.41
1079.1
519.636
790.254
666.613
519.248
607.454
681.909
681.909
681.909
698.132
698.132
698.132
746.209
674.494
568.204
672.978
733.339
478.779
786.159
987.833
527.835
685.386
435.572
425.273
647.019
451.96
431.274
561.094
521.082
549.404
598.078
598.078
598.078
488.248
516.987
556.021
530.419
530.336
576.342
576.342
576.342
520.454
434.874
414.664
409.321
560.881
560.881
560.881
504.446
456.816
430.582
425.403
435.709
493.779
471.913
437.531
711.952
430.447
426.053
925.713
943.629
891.801
836.561
1116.18
1093.9
1634.59
665.593
683.8
1083.88
1078.18
503.827
9.09155e+223
664.673
515.855
605.312
678.662
678.662
678.662
700.958
700.958
700.958
738.293
668.849
566.603
666.367
735.992
468.082
776.615
985.795
517.652
683.113
435.386
424.89
647.652
628.554
452.371
431.407
561.685
519.784
547.353
599.12
599.12
599.12
486.825
514.803
556.944
532.908
530.879
576.899
576.899
576.899
521.183
434.954
414.452
408.706
561.241
561.241
561.241
505.094
457.031
430.072
424.21
434.218
494.172
472.877
437.157
711.183
429.917
425.356
931.491
942.685
890.948
833.919
1094.94
1093.17
994.787
1652.88
666.74
679.602
1079.64
1077.06
487.33
9.09155e+223
662.112
512.178
602.648
674.99
674.99
674.99
703.278
703.278
703.278
729.595
662.83
564.562
659.055
738.169
457.222
767.003
983.473
507.227
680.644
435.19
424.512
648.207
630.426
452.803
431.556
562.303
571.3
518.504
545.287
600.102
600.102
600.102
485.451
512.611
557.832
535.375
531.412
577.438
577.438
577.438
521.886
435.014
414.264
408.102
561.568
561.568
561.568
505.714
457.256
429.564
423.027
432.725
494.557
473.831
436.809
710.39
429.37
424.65
933.597
941.695
890.048
833.013
1077.65
1093.74
989.922
1145.66
1048.26
1150.6
1442.24
1649.84
668.663
682.166
1078.73
1075.25
9.09155e+223
767.48
658.959
508.135
599.488
670.883
670.883
670.883
705.005
705.005
705.005
720.081
656.426
562.178
651.222
739.861
445.957
757.364
980.845
496.444
677.954
434.999
424.14
648.675
632.313
453.262
431.717
562.945
571.635
517.24
543.207
601.018
601.018
601.018
484.124
510.421
558.687
537.816
531.939
577.962
577.962
577.962
522.568
470.93
435.086
414.097
407.504
561.865
561.865
561.865
506.309
457.491
429.071
421.874
431.227
494.945
474.773
436.476
709.589
428.82
423.945
935.252
940.397
889.784
832.755
1063.52
1095.83
986.883
1153.31
1048.25
1085.57
1542.82
1096.06
1630.2
1034.85
672.102
683.296
1080.15
1077.06
1059.33
452.764
759.423
655.174
503.691
595.867
666.313
666.313
666.313
706.425
706.425
706.425
728.625
2082.06
649.618
559.584
642.924
741.053
747.666
977.848
485.711
674.991
701.143
434.813
423.767
649.046
634.203
453.746
431.892
563.616
572
516.001
541.113
601.895
601.895
601.895
552.414
482.839
508.222
559.512
540.229
532.46
507.232
578.52
578.52
578.52
523.274
471.526
435.175
413.941
406.908
562.165
562.165
562.165
506.886
457.762
428.626
420.754
429.726
495.336
475.701
548.459
436.187
708.789
473.803
428.279
423.239
938.645
938.548
888.881
832.675
1052.72
1097.81
984.321
1163.29
1049.99
1048.77
1612.47
1077.23
1605.82
1051.96
676.417
685.365
1079.22
1078.11
1010.35
435.016
751.162
650.698
498.847
591.78
661.343
661.343
661.343
707.55
707.55
707.55
720.849
698.788
642.495
556.446
634.152
741.75
737.824
737.826
974.499
475.539
671.724
706.393
434.619
423.379
649.363
636.094
454.259
432.082
564.314
572.403
516.059
514.784
538.991
602.776
602.776
602.776
554.153
481.6
506.02
560.313
542.616
532.978
508.001
579.117
579.117
579.117
524.013
472.173
435.294
413.792
406.309
562.494
562.494
562.494
507.491
458.097
428.235
419.67
428.219
495.734
476.615
549.012
435.951
708.003
473.466
427.749
422.528
942.351
935.393
887.955
831.633
1045.43
1100.01
982.235
1052.07
1031.04
1594.07
1065.62
1570.31
1114.35
685.421
688.549
1075.61
1092.05
981.701
417.461
9.09155e+223
645.612
493.608
570.911
587.209
655.957
655.957
6.22655e+228
708.303
708.303
708.303
712.516
687.077
634.646
751.932
624.787
742.106
740.121
727.487
970.786
465.112
668.152
710.889
434.393
422.979
649.67
637.967
454.806
432.289
565.037
572.841
516.532
513.588
536.901
603.664
603.664
603.664
555.943
480.402
503.815
561.083
544.97
533.493
508.787
579.759
579.759
579.759
524.792
472.879
435.448
413.635
405.711
562.857
562.857
562.857
508.129
458.499
427.903
418.622
426.706
496.141
477.514
549.577
435.768
707.242
473.154
427.232
421.809
947.387
926.32
887.397
830.04
1040.92
1103.13
980.535
1055.26
1023.38
1548
1060.81
1235.46
695.18
690.223
1060.87
1237.49
985.348
9.09155e+223
734.026
639.903
487.991
570.267
582.146
650.071
650.071
650.071
708.705
708.705
708.705
703.502
674.647
626.432
751.778
614.73
742.233
742.184
716.567
966.741
454.664
664.276
714.683
434.123
422.562
649.944
639.845
455.395
432.51
565.777
573.33
517.072
512.444
534.847
557.79
484.533
479.243
501.606
561.832
547.289
509.614
580.456
580.456
580.456
525.617
473.648
435.646
413.468
405.108
563.257
563.257
563.257
508.798
458.975
427.636
417.609
425.185
496.561
478.391
550.157
435.638
706.499
472.879
426.716
421.08
1302.9
901.23
886.017
829.167
1036
1104.66
979.16
1059
1017.49
1543.19
1063.88
695.004
1032.69
1336.66
986.52
382.602
725.169
9.09155e+223
482.018
569.455
576.601
643.682
643.682
643.682
709.006
709.006
709.006
693.721
661.589
617.71
751.422
604.091
742.131
743.998
705.04
962.299
444.19
660.078
717.966
433.813
422.126
650.191
641.735
456.036
432.746
566.516
573.868
517.767
511.363
532.829
559.698
485.071
478.123
499.418
562.561
549.578
510.48
581.213
581.213
581.213
526.493
474.483
435.841
413.293
404.491
563.699
563.699
563.699
509.503
459.53
427.439
416.621
423.651
497
479.246
550.748
435.555
705.78
472.648
426.181
420.337
1316.51
868.964
885.092
828.388
1031.44
1106.12
977.763
1063.27
1012.87
980.026
1587.61
1119.58
698.685
1012.01
1320.55
986.881
2.06697e+161
716.122
9.09155e+223
475.71
568.444
570.567
636.814
636.814
636.814
709.066
709.066
709.066
683.387
647.906
608.373
750.847
592.823
741.781
745.548
692.854
957.488
435.444
655.559
720.762
433.459
421.665
650.411
643.63
456.789
432.985
567.281
574.449
518.599
510.36
530.88
561.678
520.034
485.687
477.059
497.272
563.272
551.832
511.382
582.029
582.029
582.029
527.418
475.384
436.008
413.105
403.852
564.182
564.182
564.182
510.245
460.167
427.306
415.643
422.101
497.45
480.089
551.352
435.52
705.082
472.469
452.644
425.617
419.571
1329.94
849.222
884.124
827.643
1027.96
1105.39
976.198
1066.24
1008.82
981.718
1209.32
705.145
999.365
1125.18
986.914
349.545
706.832
618.808
469.024
567.201
564.018
629.492
629.492
629.492
708.947
708.947
708.947
672.556
633.639
598.484
750.009
581.127
741.149
746.828
679.865
952.272
425.691
650.71
723.092
433.059
421.168
650.649
645.517
457.55
433.223
417.747
568.079
575.062
555.246
519.562
509.442
529.012
563.692
522.116
486.416
476.076
495.172
563.966
554.058
512.316
582.901
582.901
582.901
528.375
476.32
436.191
412.898
403.169
564.711
564.711
564.711
511.028
460.888
427.215
414.671
420.524
497.912
480.922
551.967
435.54
594.103
472.355
452.433
425.018
418.775
1346.34
845.571
883.168
826.905
1026.71
1100.49
974.715
1067.42
1007.1
983.257
1291.5
1577.24
961.637
713.418
990.16
1047.58
986.148
333.826
697.298
9.09155e+223
565.695
557.256
621.729
621.729
621.729
709.538
708.757
708.757
661.265
618.807
588.051
748.888
570.223
740.212
747.825
666.189
946.637
645.557
725.04
432.651
420.621
650.897
647.385
458.323
433.468
417.928
568.875
575.714
557.999
520.663
508.608
527.22
565.728
524.307
487.26
475.178
493.149
564.657
556.255
531.409
513.275
583.804
583.804
583.804
529.342
477.282
436.422
412.722
402.427
565.259
565.259
565.259
511.85
461.689
427.156
413.708
418.934
498.385
481.748
459.928
552.592
455.952
435.628
595.26
472.327
452.196
424.376
417.936
1353.12
847.887
882.113
826.247
1026.59
1091.59
973.566
1075.32
1006.4
984.937
1367.1
1626.32
955.005
723.456
982.903
1026.46
984.767
318.941
687.514
600.904
564.016
550.132
613.413
613.413
613.413
708.479
708.479
708.479
649.515
603.358
577.105
747.512
559.544
738.943
748.529
651.974
940.618
640.074
726.653
432.245
420.092
651.123
649.229
459.111
433.727
418.109
569.692
576.399
560.889
521.911
507.886
525.498
567.781
526.616
488.223
474.365
491.202
565.356
558.399
535.29
514.254
584.732
584.732
584.732
530.317
478.268
436.701
412.582
401.717
565.801
565.801
565.801
512.662
462.514
427.157
412.788
417.369
498.908
482.57
461.239
553.224
456.805
435.783
596.373
472.368
451.923
436.364
423.742
417.098
1277.03
1377.45
853.907
880.531
825.113
1028.06
1081
972.793
1084.37
1007.39
986.306
1429.07
1640.38
949.936
731.54
977.501
999.564
979.574
2.06697e+161
677.459
3.94662e+180
591.149
562.216
604.406
604.406
604.406
708.076
708.076
708.076
587.434
565.688
745.915
548.667
737.367
748.927
637.509
934.14
634.211
727.985
445.757
431.844
419.598
651.057
459.919
434.002
418.298
405.764
570.536
577.118
563.925
523.311
507.292
523.835
569.849
529.041
489.311
473.635
489.328
566.036
560.484
539.182
515.247
531.3
479.277
437.031
412.46
401.057
566.338
566.338
566.338
513.468
463.363
427.224
411.916
415.858
499.462
483.359
462.546
553.871
519.387
457.696
436
597.462
451.678
435.924
423.124
416.288
1322.23
1450.51
858.964
879.532
823.019
1030.12
1069.89
972.446
1092.76
1008.44
985.327
1636.56
945.365
741.159
973.547
997.877
979.912
292.083
667.146
871.201
580.838
699.255
560.295
595.099
595.099
595.099
707.506
707.506
707.506
571.51
553.826
744.087
537.549
735.499
711.113
749.087
623.048
927.245
628.025
728.952
445.426
431.448
419.178
652.852
636.664
460.75
434.298
418.491
405.853
577.869
567.112
524.875
506.816
522.233
571.927
531.577
490.521
473.016
487.522
562.511
543.127
516.247
532.284
480.309
437.417
412.355
400.491
566.874
566.874
566.874
514.267
464.234
427.354
411.095
414.429
499.996
484.106
463.845
554.539
520.098
458.614
436.275
598.524
451.463
435.506
422.527
415.505
1344.27
1407.31
862.939
878.435
821.128
1058.96
972.338
1100.84
1010.65
981.447
1051.04
1625.97
929.432
941.728
969.908
997.65
976.654
280.192
9.09155e+223
866.155
570.056
699.979
558.242
706.749
706.749
706.749
555.591
541.574
742.022
526.216
733.345
718.16
748.902
608.618
919.928
621.503
729.471
445.121
431.081
418.811
654.598
639.375
434.614
418.693
405.946
578.657
589.281
570.423
526.636
506.459
520.695
574.003
534.22
491.851
472.505
485.78
564.476
547.138
517.248
533.273
481.343
437.856
412.288
400.005
515.062
465.125
427.545
410.325
413.074
500.496
484.809
465.143
555.2
520.785
459.555
436.605
599.55
451.285
435.112
421.95
414.789
1349.71
868.407
876.478
819.232
1047.33
972.276
1108.61
1012.87
975.464
1623.42
1014.94
1609.96
939.621
938.722
997.98
976.034
2.06697e+161
860.75
9.09155e+223
700.521
556.052
705.765
705.765
705.765
539.773
529.118
739.69
514.86
730.777
724.68
748.386
594.641
912.188
614.631
729.53
444.843
430.748
418.484
656.279
642.15
434.951
418.9
406.05
579.477
590.124
573.915
528.633
506.224
519.214
576.069
536.959
493.32
472.097
484.102
566.434
551.214
518.244
534.257
482.374
438.342
412.292
399.587
515.853
466.03
427.793
409.66
411.781
500.963
485.468
466.443
555.839
521.45
460.511
436.982
600.521
451.148
434.737
421.4
414.126