/*--------------------------------*- C++ -*----------------------------------*\
| =========                 |                                                 |
| \\      /  F ield         | OpenFOAM: The Open Source CFD Toolbox           |
|  \\    /   O peration     | Version:  2.1.1                                 |
|   \\  /    A nd           | Web:      www.OpenFOAM.org                      |
|    \\/     M anipulation  |                                                 |
\*---------------------------------------------------------------------------*/
FoamFile
{
    version     2.0;
    format      ascii;
    class       vectorField;
    location    "0.00115";
    object      U;
}
// * * * * * * * * * * * * * * * * * * * * * * * * * * * * * * * * * * * * * //


44538
(
(-0.508385 -0.0181591 0.017636)
(19.6764 -1.06623 -1.08477)
(19.5832 -1.05154 -1.05514)
(19.4782 -1.0365 -1.02469)
(19.3714 -1.02318 -0.996896)
(19.269 -1.0086 -0.968299)
(19.1596 -0.992299 -0.935869)
(19.0414 -0.974444 -0.900294)
(18.9151 -0.955637 -0.864573)
(18.7834 -0.934922 -0.82783)
(18.6542 -0.918361 -0.79626)
(18.5333 -0.895669 -0.761549)
(18.4089 -0.868625 -0.723768)
(18.2827 -0.835887 -0.682556)
(18.1612 -0.80482 -0.640509)
(18.0572 -0.769092 -0.601941)
(17.9705 -0.726473 -0.561174)
(20.2254 -1.22647 -1.31251)
(20.1591 -1.21357 -1.29731)
(20.0882 -1.20062 -1.28527)
(20.0123 -1.18696 -1.26962)
(19.9371 -1.17393 -1.25254)
(19.8591 -1.16085 -1.22896)
(19.7722 -1.14664 -1.20003)
(19.6774 -1.13224 -1.17142)
(19.5723 -1.11702 -1.14152)
(19.4611 -1.10059 -1.10905)
(19.3393 -1.08261 -1.07308)
(19.2235 -1.06588 -1.03626)
(19.103 -1.04905 -1.00005)
(18.9743 -1.03065 -0.962229)
(18.8383 -1.00982 -0.92235)
(18.6979 -0.986096 -0.881829)
(18.5607 -0.964571 -0.843612)
(18.4275 -0.942099 -0.806567)
(20.6625 -1.29131 -1.34432)
(18.288 -0.914664 -0.76715)
(20.6063 -1.29662 -1.3551)
(8.85936 -0.402611 0.423936)
(18.1464 -0.881454 -0.725967)
(20.5461 -1.29864 -1.36245)
(8.65203 -0.410681 0.426082)
(18.008 -0.846704 -0.683497)
(20.4981 -1.30282 -1.38471)
(8.43484 -0.418556 0.42869)
(17.8799 -0.812691 -0.644212)
(20.4501 -1.30418 -1.40167)
(8.19444 -0.427285 0.432232)
(17.7609 -0.771075 -0.602795)
(20.3943 -1.29952 -1.40161)
(7.92514 -0.437298 0.436898)
(17.6594 -0.721966 -0.559553)
(20.332 -1.29103 -1.3942)
(7.62141 -0.449308 0.442966)
(20.2628 -1.27879 -1.3791)
(7.28261 -0.463454 0.450422)
(20.1898 -1.26561 -1.36615)
(6.90403 -0.480649 0.459441)
(20.1115 -1.25206 -1.35283)
(6.49076 -0.501174 0.470083)
(20.0249 -1.23746 -1.33315)
(6.04834 -0.524908 0.482253)
(19.9287 -1.22191 -1.30669)
(5.59395 -0.551832 0.495572)
(19.8339 -1.20648 -1.27446)
(19.7363 -1.19119 -1.24473)
(19.6283 -1.1744 -1.21143)
(19.5113 -1.15599 -1.17362)
(10.3651 -0.359642 0.437962)
(19.3852 -1.13557 -1.13237)
(10.2389 -0.364708 0.433704)
(19.2475 -1.11402 -1.09329)
(10.1048 -0.370875 0.430313)
(19.1193 -1.0937 -1.05113)
(9.95903 -0.377637 0.427798)
(18.9791 -1.07256 -1.00668)
(21.0001 -1.23283 -1.25685)
(9.8065 -0.38477 0.425798)
(18.8267 -1.04926 -0.962241)
(20.9635 -1.25586 -1.2856)
(9.64248 -0.392735 0.424562)
(18.6598 -1.02331 -0.920185)
(20.9245 -1.27736 -1.31453)
(9.46913 -0.401285 0.424009)
(18.4894 -0.996405 -0.879074)
(20.8834 -1.29712 -1.34367)
(9.28602 -0.410498 0.424174)
(18.3341 -0.971552 -0.838749)
(20.8378 -1.31466 -1.37128)
(9.09364 -0.419934 0.424904)
(18.158 -0.943561 -0.799324)
(20.7881 -1.32975 -1.39701)
(8.88913 -0.429477 0.426179)
(17.9697 -0.909415 -0.759409)
(20.7331 -1.34149 -1.41948)
(8.67533 -0.438741 0.42777)
(17.7901 -0.873857 -0.718801)
(20.6693 -1.34773 -1.43287)
(8.45102 -0.447663 0.429705)
(17.6158 -0.837382 -0.677634)
(20.5985 -1.34982 -1.44138)
(8.20142 -0.457568 0.432777)
(17.444 -0.791326 -0.632696)
(20.5302 -1.35084 -1.45508)
(7.91989 -0.469107 0.437179)
(17.2985 -0.73535 -0.585123)
(20.4693 -1.34847 -1.46478)
(7.60277 -0.482596 0.442993)
(20.3993 -1.33898 -1.45442)
(7.24926 -0.49811 0.450236)
(20.3205 -1.32525 -1.43571)
(6.85513 -0.516442 0.458926)
(20.2371 -1.31129 -1.42196)
(6.38095 -0.500687 -0.351758)
(6.42786 -0.537837 0.469254)
(20.1446 -1.29625 -1.40363)
(6.33062 -0.492273 -0.355615)
(5.96592 -0.563815 0.481718)
(11.098 -0.35233 0.480694)
(20.0411 -1.28021 -1.3777)
(6.27719 -0.484137 -0.359618)
(5.49741 -0.592795 0.495078)
(10.9933 -0.355299 0.473797)
(19.9272 -1.26415 -1.34595)
(6.22135 -0.476213 -0.363713)
(5.0404 -0.624444 0.508905)
(10.8835 -0.35876 0.467084)
(19.813 -1.24795 -1.31505)
(6.16344 -0.468478 -0.367885)
(10.7673 -0.362824 0.46063)
(19.7024 -1.23067 -1.2804)
(6.10323 -0.460953 -0.372153)
(10.6436 -0.367536 0.454514)
(19.5774 -1.21156 -1.23964)
(6.04096 -0.453621 -0.376506)
(10.5122 -0.373007 0.448838)
(19.4373 -1.19034 -1.19578)
(21.2969 -1.09053 -1.11803)
(5.97668 -0.446467 -0.380943)
(10.3739 -0.379699 0.443712)
(19.2844 -1.16722 -1.15382)
(21.2572 -1.1233 -1.14629)
(5.91028 -0.439522 -0.385463)
(10.2262 -0.386694 0.439303)
(19.1152 -1.14177 -1.10682)
(21.2146 -1.15686 -1.17751)
(5.84097 -0.43275 -0.390083)
(10.07 -0.394532 0.435726)
(18.964 -1.1182 -1.05668)
(21.1688 -1.18909 -1.20836)
(5.76817 -0.42611 -0.394825)
(9.90598 -0.4032 0.432739)
(18.7816 -1.0937 -1.00917)
(21.1201 -1.21975 -1.23897)
(5.69257 -0.419523 -0.399678)
(9.73054 -0.412936 0.43051)
(18.581 -1.06537 -0.96302)
(21.0718 -1.24857 -1.27004)
(5.61373 -0.413 -0.404634)
(9.54825 -0.423337 0.428876)
(18.3638 -1.03468 -0.917772)
(21.0358 -1.27812 -1.31202)
(9.35656 -0.434412 0.42795)
(18.1655 -1.00816 -0.874975)
(20.9931 -1.3034 -1.3477)
(9.15709 -0.445615 0.427521)
(17.9361 -0.977905 -0.834253)
(20.9457 -1.32693 -1.38301)
(8.9471 -0.456884 0.427582)
(17.6878 -0.939343 -0.79288)
(20.8943 -1.34824 -1.41767)
(7.21599 -0.396042 -0.894882)
(8.7266 -0.467944 0.427993)
(17.4528 -0.902572 -0.750333)
(20.8356 -1.36671 -1.44941)
(7.14386 -0.389702 -0.894135)
(8.49578 -0.478021 0.428444)
(17.2168 -0.858735 -0.703757)
(20.7678 -1.38011 -1.47361)
(7.06712 -0.383691 -0.893789)
(8.23907 -0.488635 0.429773)
(16.9902 -0.798135 -0.651002)
(20.6851 -1.38566 -1.48205)
(6.84872 -0.55234 -0.36631)
(6.98676 -0.3779 -0.893745)
(7.95125 -0.500196 0.432172)
(11.9293 -0.340163 0.538455)
(20.5977 -1.38933 -1.49396)
(6.80094 -0.542908 -0.369764)
(6.90182 -0.372313 -0.894171)
(7.62491 -0.513779 0.435909)
(11.8279 -0.341823 0.530735)
(20.5084 -1.39019 -1.50517)
(6.75001 -0.53387 -0.373267)
(6.81304 -0.366886 -0.894882)
(7.25762 -0.529815 0.441364)
(11.7244 -0.344172 0.522996)
(20.4248 -1.38435 -1.50562)
(6.69592 -0.525174 -0.376844)
(6.72091 -0.361547 -0.895833)
(6.84408 -0.549539 0.448725)
(11.6183 -0.34745 0.515308)
(20.3331 -1.37113 -1.48649)
(6.63916 -0.516727 -0.380486)
(6.62577 -0.356271 -0.89697)
(6.38501 -0.574137 0.458345)
(11.5074 -0.350356 0.507802)
(20.233 -1.3563 -1.46976)
(6.57948 -0.508581 -0.384147)
(6.52701 -0.351044 -0.898293)
(5.90032 -0.602815 0.470085)
(11.3926 -0.353305 0.500359)
(20.1256 -1.34049 -1.45155)
(6.51716 -0.500706 -0.387847)
(6.42518 -0.345793 -0.899773)
(5.40169 -0.636582 0.483502)
(11.2729 -0.356816 0.492917)
(22.7401 0.0533952 0.0344321)
(20.0031 -1.32378 -1.42476)
(21.5276 -0.86865 -0.909305)
(6.4541 -0.493004 -0.391218)
(6.3217 -0.340461 -0.901102)
(4.93769 -0.670939 0.497371)
(11.1475 -0.360918 0.48578)
(11.1011 -0.144721 -0.733847)
(22.7374 0.0533818 0.034492)
(22.7402 0.0501581 -0.0138354)
(19.8678 -1.30671 -1.39021)
(21.5177 -0.89895 -0.942543)
(6.3892 -0.485371 -0.394711)
(6.21445 -0.334999 -0.902714)
(4.56645 -0.700673 0.507939)
(11.0171 -0.365651 0.478616)
(10.7939 -0.124307 -0.748545)
(22.7346 0.0533661 0.0345496)
(22.7377 0.0501444 -0.014001)
(19.7254 -1.28954 -1.3579)
(21.5013 -0.930901 -0.975174)
(6.32202 -0.477893 -0.398319)
(6.10421 -0.329444 -0.904519)
(10.8787 -0.371386 0.471598)
(10.4539 -0.0984013 -0.763215)
(22.7664 -0.0763247 0.0514666)
(22.7319 0.0533499 0.0346038)
(22.7352 0.050105 -0.014189)
(19.5919 -1.27092 -1.31898)
(21.4798 -0.963633 -1.00679)
(6.25314 -0.470509 -0.402056)
(5.99159 -0.32371 -0.906473)
(8.31612 -0.46665 -0.94108)
(10.7356 -0.378274 0.464741)
(10.0783 -0.0657035 -0.777669)
(22.7639 -0.0766949 0.0516882)
(22.7293 0.0533341 0.0346538)
(22.7818 0.0492135 0.0347084)
(22.7328 0.0500372 -0.0144069)
(19.4389 -1.24997 -1.27224)
(21.4516 -0.997831 -1.03786)
(6.18241 -0.463233 -0.405913)
(5.87618 -0.317775 -0.908594)
(8.29258 -0.454759 -0.934713)
(10.5861 -0.385514 0.4581)
(9.67175 -0.0257258 -0.791434)
(22.7615 -0.0770483 0.0519258)
(22.7267 0.0533204 0.0346982)
(22.7794 0.0496867 0.0346486)
(22.7304 0.0499378 -0.0146627)
(22.779 0.0464673 -0.0087741)
(19.2667 -1.22703 -1.2261)
(21.416 -1.03377 -1.06848)
(6.10983 -0.456038 -0.409903)
(5.75841 -0.311585 -0.910846)
(8.2557 -0.44464 -0.929808)
(10.4271 -0.393822 0.452161)
(9.37283 -0.0114502 -0.802153)
(22.7592 -0.0773848 0.052181)
(22.8038 -0.0660031 0.0479819)
(22.7241 0.0533116 0.0347356)
(22.7771 0.0501771 0.0345656)
(22.7281 0.0498027 -0.0149654)
(22.7768 0.0468541 -0.00938301)
(19.0724 -1.20045 -1.17851)
(21.3737 -1.0711 -1.09843)
(6.03463 -0.448902 -0.414039)
(5.63685 -0.305096 -0.913255)
(8.21526 -0.435183 -0.925349)
(10.2619 -0.402939 0.446894)
(9.15744 -0.00588722 -0.809577)
(22.7568 -0.0777047 0.052456)
(22.8019 -0.0667138 0.0482213)
(22.7217 0.0533087 0.0347661)
(22.7748 0.0506875 0.0344558)
(22.7259 0.0496293 -0.0153171)
(22.7745 0.0472228 -0.00999175)
(18.8869 -1.17322 -1.12418)
(21.3259 -1.10983 -1.13034)
(5.95647 -0.441805 -0.418337)
(5.51252 -0.298262 -0.91571)
(8.17145 -0.426322 -0.921269)
(10.0863 -0.413309 0.442427)
(8.96379 -0.00173855 -0.816032)
(22.7545 -0.0780115 0.0527607)
(22.8001 -0.0674148 0.0484603)
(22.7193 0.0533133 0.03479)
(22.7725 0.0512233 0.0343118)
(22.7236 0.049437 -0.015588)
(22.7722 0.0475812 -0.0105329)
(18.6823 -1.14816 -1.07144)
(21.2777 -1.14872 -1.16633)
(5.87604 -0.43467 -0.422785)
(8.12419 -0.418009 -0.917559)
(9.90655 -0.424309 0.438453)
(8.78608 0.00314062 -0.821381)
(22.7521 -0.0782848 0.0530564)
(22.7981 -0.0681006 0.0486836)
(22.7169 0.0532671 0.0348245)
(22.7701 0.0517184 0.0341949)
(22.7213 0.0492214 -0.0157842)
(22.7698 0.0479247 -0.0110126)
(18.449 -1.11938 -1.02109)
(21.2245 -1.18696 -1.20356)
(5.79302 -0.427518 -0.427378)
(8.07284 -0.410265 -0.914261)
(9.71689 -0.43647 0.435225)
(8.64257 0.00908815 -0.824202)
(22.7497 -0.078515 0.0533263)
(22.7961 -0.0687702 0.0488927)
(22.7144 0.0531661 0.0348702)
(22.7677 0.0521666 0.0341072)
(22.719 0.0489778 -0.0159112)
(22.7674 0.0482484 -0.0114371)
(18.1877 -1.08528 -0.971328)
(21.1656 -1.22385 -1.24063)
(5.70759 -0.420314 -0.432134)
(8.01724 -0.403028 -0.911375)
(9.51934 -0.449279 0.432679)
(8.51736 0.015555 -0.825767)
(22.7473 -0.0787027 0.0535719)
(22.7941 -0.069423 0.0490902)
(22.6979 0.0631626 0.0921918)
(22.7119 0.0530097 0.0349263)
(22.7652 0.0525653 0.0340461)
(22.8115 0.0426815 0.0351207)
(22.7167 0.0487022 -0.0159751)
(22.765 0.0485486 -0.0118102)
(22.7555 -0.0717192 0.0182723)
(17.9398 -1.05662 -0.924876)
(21.1022 -1.25878 -1.27613)
(5.61964 -0.413071 -0.437063)
(7.95705 -0.396284 -0.908927)
(9.31254 -0.462457 0.430834)
(12.9754 -0.327168 0.590817)
(8.3908 0.0221559 -0.827619)
(22.7449 -0.0788484 0.0537942)
(22.792 -0.0700577 0.0492769)
(22.6955 0.062807 0.0922613)
(22.7093 0.0527934 0.0349943)
(22.7627 0.0529147 0.0340081)
(22.8096 0.0433348 0.0349731)
(22.7143 0.048391 -0.0159784)
(22.7625 0.0488234 -0.0121385)
(22.5473 0.00772553 -0.0349501)
(22.753 -0.07172 0.0183417)
(22.803 -0.0661819 0.0152155)
(17.6609 -1.02451 -0.881093)
(21.0416 -1.29227 -1.31497)
(5.5291 -0.405762 -0.442145)
(7.3874 -0.589697 -0.382821)
(7.89173 -0.389983 -0.90693)
(9.09644 -0.475374 0.429457)
(12.866 -0.328539 0.584151)
(8.26281 0.028796 -0.829755)
(22.7424 -0.0789527 0.053996)
(22.7899 -0.0706742 0.0494561)
(22.822 -0.0551841 0.0458815)
(22.6932 0.0624174 0.0923116)
(22.7068 0.0525174 0.0350752)
(22.7601 0.0532141 0.0339913)
(22.8076 0.0439514 0.0348503)
(22.712 0.0480421 -0.0159254)
(22.76 0.0490698 -0.0124258)
(22.8048 0.0394864 -0.00357698)
(22.5451 0.00747179 -0.0343925)
(22.5911 0.0128462 -0.0400515)
(22.7504 -0.0716709 0.0184565)
(22.8008 -0.0666924 0.0153079)
(17.3587 -0.981855 -0.835723)
(20.9943 -1.32473 -1.3635)
(5.43571 -0.398398 -0.447383)
(7.34419 -0.578725 -0.385322)
(7.82128 -0.384107 -0.905362)
(8.87483 -0.486937 0.428058)
(12.7536 -0.329763 0.577647)
(8.13573 0.0350685 -0.832103)
(22.7399 -0.0790152 0.0541797)
(22.7878 -0.0712711 0.0496302)
(22.8208 -0.0559298 0.0459974)
(22.6908 0.0619951 0.0923442)
(22.734 0.0655366 0.0866065)
(22.7042 0.052181 0.0351705)
(22.7575 0.0534633 0.0339944)
(22.8055 0.0445319 0.0347538)
(22.7097 0.0476536 -0.0158196)
(22.7575 0.0492851 -0.012675)
(22.8027 0.0400883 -0.00395251)
(22.5429 0.00721787 -0.0338296)
(22.5886 0.0126312 -0.0400656)
(22.7479 -0.0715738 0.0186123)
(22.7985 -0.0671689 0.0154267)
(17.0693 -0.940989 -0.788299)
(20.9379 -1.35242 -1.40414)
(5.33898 -0.391018 -0.452823)
(7.29984 -0.568179 -0.387861)
(7.74547 -0.378641 -0.904244)
(8.64082 -0.497361 0.426655)
(12.6388 -0.331164 0.571207)
(8.0083 0.0411208 -0.834681)
(22.7375 -0.0790361 0.0543477)
(22.7856 -0.0718467 0.0498017)
(22.8195 -0.0566732 0.0461124)
(22.6885 0.0615505 0.0923589)
(22.7316 0.0655107 0.0869946)
(22.7016 0.0517836 0.0352816)
(22.7549 0.0536629 0.0340156)
(22.8034 0.0450774 0.0346824)
(22.7074 0.047223 -0.0156641)
(22.755 0.0494667 -0.0128886)
(22.8005 0.0406723 -0.00430044)
(22.5406 0.00696353 -0.0332604)
(22.5861 0.0124108 -0.0400632)
(22.7453 -0.0714305 0.0188044)
(22.7962 -0.067613 0.0155682)
(16.7682 -0.885566 -0.734489)
(20.8746 -1.37802 -1.4441)
(7.25244 -0.558089 -0.390417)
(7.66357 -0.373591 -0.903604)
(8.38062 -0.508017 0.425861)
(12.5185 -0.332854 0.564944)
(7.88022 0.0470197 -0.83751)
(12.4482 -0.13099 -0.690849)
(22.735 -0.0790148 0.0545024)
(22.7833 -0.0723975 0.0499733)
(22.8182 -0.0574149 0.0462285)
(22.6862 0.0610901 0.0923554)
(22.7292 0.0654783 0.0873697)
(22.699 0.0513228 0.0354125)
(22.7522 0.0538115 0.0340557)
(22.8012 0.0455909 0.0346332)
(22.7051 0.0467483 -0.0154618)
(22.7525 0.0496124 -0.0130689)
(22.7983 0.0412353 -0.00462388)
(22.5384 0.00670834 -0.0326844)
(22.5835 0.0121848 -0.0400435)
(22.7427 -0.0712436 0.0190276)
(22.7938 -0.0680267 0.0157293)
(16.4916 -0.808841 -0.672049)
(20.8045 -1.40005 -1.48061)
(7.20134 -0.548461 -0.392998)
(7.57579 -0.368919 -0.903419)
(8.0834 -0.520221 0.426335)
(12.397 -0.334587 0.558699)
(7.75058 0.0532509 -0.840681)
(12.305 -0.132483 -0.701317)
(22.7325 -0.0789507 0.0546465)
(22.7811 -0.0729212 0.0501481)
(22.8168 -0.0581566 0.0463426)
(22.6839 0.0606204 0.0923347)
(22.7267 0.0654392 0.0877326)
(22.6965 0.0507936 0.0355648)
(22.7496 0.0539079 0.0341131)
(22.799 0.0460731 0.0346057)
(22.7028 0.0462294 -0.0152174)
(22.75 0.0497257 -0.0132256)
(22.7961 0.0417768 -0.00492985)
(22.5361 0.00645193 -0.032101)
(22.581 0.0119532 -0.0400059)
(22.7401 -0.0710148 0.0192766)
(22.7914 -0.0684117 0.0159068)
(20.7213 -1.41661 -1.5089)
(7.1464 -0.539273 -0.395626)
(7.48271 -0.364509 -0.903636)
(7.74521 -0.534146 0.428239)
(12.2741 -0.33673 0.55234)
(7.62209 0.059844 -0.844022)
(12.1316 -0.130852 -0.713504)
(22.7301 -0.0788434 0.054783)
(22.7788 -0.073417 0.0503293)
(22.8154 -0.0588972 0.0464571)
(22.6816 0.0601423 0.0922981)
(22.7242 0.0653934 0.0880842)
(22.694 0.0502074 0.0357328)
(22.7469 0.0539633 0.0341794)
(22.7968 0.0465259 0.0345989)
(22.7006 0.0456765 -0.0149449)
(22.7475 0.0498148 -0.0133713)
(22.7939 0.0423118 -0.00524286)
(22.5339 0.0061941 -0.0315099)
(22.5784 0.0117153 -0.0399503)
(22.7376 -0.070746 0.0195464)
(22.789 -0.0687691 0.0160977)
(20.6201 -1.42383 -1.51883)
(7.0878 -0.530463 -0.398323)
(7.38432 -0.360282 -0.904221)
(7.35519 -0.551651 0.432311)
(12.1469 -0.340226 0.545918)
(7.49357 0.0666003 -0.847655)
(11.9281 -0.125851 -0.727193)
(22.7277 -0.078698 0.0549128)
(22.7765 -0.0738901 0.0505146)
(22.8139 -0.0596369 0.0465759)
(22.7072 0.0255363 0.110164)
(22.6794 0.0596564 0.0922466)
(22.7218 0.0653406 0.0884257)
(22.6915 0.0495883 0.035908)
(22.7442 0.0539892 0.0342505)
(22.7945 0.0469633 0.0346013)
(22.6983 0.0450968 -0.0146526)
(22.7449 0.049886 -0.013518)
(22.7916 0.0428403 -0.00556862)
(22.5316 0.00593437 -0.0309118)
(22.5757 0.0114709 -0.0398768)
(22.735 -0.0704386 0.0198307)
(22.7866 -0.0691005 0.0162965)
(20.5145 -1.42895 -1.53315)
(7.026 -0.521943 -0.401128)
(7.28121 -0.35613 -0.905117)
(6.91578 -0.57313 0.438565)
(12.0166 -0.34348 0.539595)
(7.36296 0.0735885 -0.851728)
(11.6949 -0.117011 -0.74227)
(22.7252 -0.0785235 0.0550341)
(22.7742 -0.07435 0.0506989)
(22.8124 -0.0603752 0.0467017)
(22.6626 0.0210722 0.112464)
(22.7047 0.0254323 0.110534)
(22.6772 0.0591628 0.092181)
(22.7193 0.0652807 0.0887565)
(22.689 0.0489567 0.0360852)
(22.7415 0.053996 0.0343233)
(22.7922 0.0473953 0.0346062)
(22.6961 0.0444962 -0.0143524)
(22.7424 0.0499381 -0.0136679)
(22.7893 0.0433594 -0.00590988)
(22.5293 0.00567215 -0.0303075)
(22.5731 0.0112192 -0.0397856)
(22.7325 -0.0701034 0.0201214)
(22.7841 -0.0694071 0.0164936)
(22.8255 -0.0572598 0.0139843)
(20.4057 -1.42939 -1.54446)
(21.5635 -0.671948 -0.656432)
(6.96096 -0.513694 -0.404062)
(7.17379 -0.351995 -0.906276)
(8.92604 -0.524937 -0.998425)
(6.4224 -0.600793 0.447419)
(11.8855 -0.346356 0.533263)
(7.22903 0.0805178 -0.856427)
(11.4295 -0.103492 -0.757353)
(22.7228 -0.0783294 0.0551464)
(22.7718 -0.0747961 0.0508858)
(22.8108 -0.0611104 0.0468353)
(22.6604 0.0207087 0.11231)
(22.7023 0.0252957 0.110903)
(22.675 0.0586614 0.0921025)
(22.7169 0.0652136 0.0890761)
(22.7549 0.0639478 0.0788715)
(22.6864 0.0483289 0.0362601)
(22.7388 0.0539972 0.0343926)
(22.7898 0.0478295 0.0346078)
(22.6939 0.043876 -0.0140503)
(22.7398 0.0499695 -0.0138237)
(22.787 0.0438666 -0.00626981)
(22.527 0.00540675 -0.0296974)
(22.5704 0.0109591 -0.0396784)
(22.7299 -0.0697474 0.0204111)
(22.7816 -0.0696905 0.0166846)
(22.8238 -0.0579586 0.0140899)
(20.304 -1.42186 -1.54246)
(21.5692 -0.705875 -0.700801)
(6.89273 -0.505715 -0.407067)
(7.06282 -0.347821 -0.907661)
(8.95559 -0.505294 -0.986812)
(5.89734 -0.634317 0.459323)
(11.7495 -0.349688 0.526917)
(7.08942 0.0873789 -0.861957)
(11.1317 -0.0848571 -0.772772)
(22.7204 -0.0781155 0.0552538)
(22.7694 -0.0752269 0.0510786)
(22.8092 -0.0618429 0.0469802)
(22.6582 0.020315 0.112152)
(22.6998 0.0251173 0.111279)
(22.6729 0.058153 0.0920111)
(22.7144 0.0651388 0.0893847)
(22.7529 0.064165 0.0794737)
(22.6839 0.0477 0.0364372)
(22.736 0.0539936 0.0344589)
(22.7874 0.048267 0.034607)
(22.6917 0.0432351 -0.0137508)
(22.7373 0.0499783 -0.0139899)
(22.7846 0.0443599 -0.00665359)
(22.5246 0.00513614 -0.0290825)
(22.5677 0.0106994 -0.0395354)
(22.7274 -0.0693714 0.0206942)
(22.779 -0.0699526 0.0168651)
(22.822 -0.0586521 0.0141841)
(20.1906 -1.40615 -1.51996)
(21.5738 -0.739085 -0.744054)
(6.82161 -0.497984 -0.410118)
(6.94858 -0.343519 -0.909208)
(8.97757 -0.486983 -0.976007)
(5.36626 -0.672965 0.472976)
(11.6108 -0.353419 0.520419)
(6.94469 0.0938777 -0.868399)
(10.7985 -0.0599785 -0.788253)
(22.718 -0.0778803 0.0553601)
(22.767 -0.0756412 0.0512803)
(22.8075 -0.0625728 0.0471377)
(22.656 0.019888 0.111995)
(22.6974 0.0249366 0.111625)
(22.6708 0.057638 0.0919069)
(22.712 0.0650566 0.0896819)
(22.751 0.0643654 0.0800606)
(22.6814 0.047069 0.0366203)
(22.7333 0.0539862 0.034523)
(22.785 0.0487101 0.0346012)
(22.6895 0.0425729 -0.0134615)
(22.7348 0.0499622 -0.0141718)
(22.7823 0.0448368 -0.00706747)
(22.5223 0.00487131 -0.028461)
(22.5651 0.0104413 -0.0393555)
(22.7248 -0.0689767 0.0209645)
(22.7764 -0.0701953 0.0170301)
(22.8202 -0.0593435 0.0142647)
(20.0681 -1.3897 -1.504)
(21.5745 -0.771701 -0.786051)
(6.74818 -0.490417 -0.413262)
(6.83252 -0.339006 -0.910817)
(8.99202 -0.469962 -0.965992)
(4.88753 -0.711204 0.486476)
(11.4676 -0.357689 0.513802)
(6.79435 0.0997305 -0.875908)
(10.4247 -0.0275267 -0.80373)
(22.7155 -0.0776233 0.0554685)
(22.7646 -0.0760379 0.0514933)
(22.8058 -0.0632998 0.0473101)
(22.4512 -0.0660144 0.065417)
(22.654 0.0194173 0.111846)
(22.695 0.0247635 0.111928)
(22.6687 0.0571167 0.0917898)
(22.7096 0.0649675 0.0899681)
(22.749 0.0645494 0.0806309)
(22.6789 0.0464372 0.0368095)
(22.7306 0.0539769 0.0345836)
(22.7826 0.0491619 0.0345859)
(22.6874 0.0418877 -0.0131902)
(22.7323 0.0499184 -0.0143754)
(22.78 0.0452942 -0.00751776)
(22.52 0.00461464 -0.0278341)
(22.5626 0.0101847 -0.0391384)
(22.7223 -0.0685647 0.021215)
(22.7739 -0.0704207 0.017174)
(22.8184 -0.0600337 0.0143283)
(19.9302 -1.37168 -1.47911)
(21.5738 -0.803361 -0.826303)
(6.6725 -0.483 -0.416525)
(6.71326 -0.334362 -0.912617)
(8.9894 -0.455322 -0.957582)
(4.52229 -0.742463 0.49557)
(11.3183 -0.362878 0.507125)
(6.63729 0.104336 -0.884772)
(10.0979 -0.00886936 -0.816837)
(22.7132 -0.0773463 0.0555825)
(22.7621 -0.0764164 0.0517192)
(22.8041 -0.0640238 0.0474976)
(22.4493 -0.0658392 0.0650355)
(22.652 0.0189297 0.111677)
(22.6925 0.0245958 0.11219)
(22.6668 0.0565903 0.0916595)
(22.7072 0.0648504 0.0902303)
(22.7469 0.0647161 0.0811848)
(22.6765 0.0458051 0.0370063)
(22.7279 0.0539675 0.0346389)
(22.7801 0.0496246 0.034557)
(22.6854 0.0411772 -0.0129446)
(22.7299 0.0498442 -0.0146074)
(22.7777 0.0457292 -0.00801107)
(22.5177 0.00436593 -0.0272025)
(22.5601 0.00992924 -0.0388836)
(22.7199 -0.068137 0.0214384)
(22.7713 -0.0706313 0.0172905)
(22.8166 -0.0607245 0.0143693)
(19.7736 -1.35255 -1.44149)
(21.57 -0.834897 -0.865209)
(6.59483 -0.475702 -0.419915)
(6.58972 -0.329617 -0.914703)
(8.97472 -0.442431 -0.950478)
(11.1677 -0.369121 0.500311)
(6.47167 0.107708 -0.895147)
(9.83791 -0.00150579 -0.826904)
(22.7108 -0.0770505 0.0557053)
(22.7597 -0.0767762 0.0519599)
(22.8023 -0.0647446 0.0477029)
(22.4474 -0.0656479 0.0646431)
(22.65 0.0184533 0.111462)
(22.69 0.0244303 0.11241)
(22.7287 0.0251069 0.103582)
(22.6649 0.0560634 0.0915173)
(22.7048 0.0647044 0.0904676)
(22.7448 0.0648647 0.0817214)
(22.6742 0.0451725 0.037213)
(22.7253 0.0539593 0.0346884)
(22.7777 0.0501004 0.0345109)
(22.6835 0.0404386 -0.0127333)
(22.7275 0.0497366 -0.0148751)
(22.7754 0.0461388 -0.00855524)
(22.5155 0.00412504 -0.0265658)
(22.5577 0.00967441 -0.0385911)
(22.7175 -0.0676956 0.0216264)
(22.7688 -0.0708297 0.0173726)
(22.8147 -0.0614183 0.0143843)
(19.6064 -1.33438 -1.40591)
(21.5624 -0.865989 -0.90273)
(6.51503 -0.468545 -0.423451)
(6.46327 -0.324684 -0.916947)
(8.95392 -0.430485 -0.943866)
(11.0107 -0.37582 0.493469)
(9.62943 0.00308365 -0.833799)
(22.7086 -0.0767373 0.055841)
(22.7573 -0.0771173 0.0522174)
(22.8005 -0.0654621 0.0479273)
(22.4455 -0.0654344 0.0642432)
(22.6479 0.0179861 0.111202)
(22.6875 0.0242644 0.112588)
(22.7266 0.0252106 0.104121)
(22.663 0.0555099 0.0913511)
(22.7024 0.0645289 0.0906795)
(22.7427 0.0649948 0.0822405)
(22.6719 0.044539 0.0374326)
(22.7227 0.0539543 0.0347309)
(22.7753 0.050592 0.034443)
(22.6816 0.0396688 -0.012566)
(22.7253 0.0495908 -0.0151993)
(22.7731 0.0465155 -0.00917076)
(22.5132 0.00389168 -0.0259233)
(22.5553 0.00942008 -0.0382597)
(22.7152 -0.0672422 0.0217711)
(22.7663 -0.0710186 0.0174131)
(22.8128 -0.0621171 0.014369)
(19.4494 -1.31454 -1.36362)
(21.5503 -0.897987 -0.939611)
(6.4336 -0.461482 -0.427122)
(6.33375 -0.319539 -0.919362)
(8.92644 -0.419464 -0.93776)
(10.8463 -0.383622 0.48676)
(9.45744 0.0065831 -0.838557)
(22.7064 -0.0764089 0.0559944)
(22.7549 -0.0774401 0.052494)
(22.7987 -0.0661767 0.048178)
(22.4437 -0.0651925 0.0638393)
(22.6459 0.017526 0.110896)
(22.6851 0.024096 0.112727)
(22.7245 0.025311 0.104638)
(22.6611 0.0549291 0.0911598)
(22.7 0.0643235 0.0908646)
(22.7405 0.0651052 0.0827434)
(22.6698 0.0439044 0.0376686)
(22.7202 0.053953 0.0347664)
(22.773 0.0511026 0.0343485)
(22.68 0.0388623 -0.0124675)
(22.723 0.0494131 -0.0155237)
(22.7709 0.0468809 -0.00975181)
(22.511 0.00366582 -0.025274)
(22.553 0.00916606 -0.0378886)
(22.713 -0.0667782 0.0218637)
(22.7638 -0.071201 0.0174047)
(22.811 -0.0628259 0.0143115)
(19.2699 -1.29233 -1.31246)
(21.5285 -0.93519 -0.976119)
(7.09771 0.295612 0.140589)
(6.35074 -0.454468 -0.430927)
(6.20161 -0.314079 -0.921932)
(8.8922 -0.40935 -0.932175)
(10.6791 -0.392127 0.480315)
(9.2841 0.0101821 -0.843662)
(22.7042 -0.0760698 0.0561749)
(22.7525 -0.0777478 0.0527987)
(22.7968 -0.0668819 0.048428)
(22.4418 -0.0649172 0.0634348)
(22.6439 0.017071 0.110544)
(22.6826 0.023923 0.112827)
(22.7223 0.0254047 0.105134)
(22.6593 0.0543217 0.0909423)
(22.6976 0.0640872 0.0910245)
(22.7382 0.0651952 0.0832307)
(22.6679 0.0432745 0.0379309)
(22.7178 0.0539509 0.0347977)
(22.7707 0.0516349 0.0342236)
(22.6783 0.0380261 -0.012386)
(22.7207 0.0492155 -0.0157722)
(22.7685 0.0472368 -0.0102708)
(22.5087 0.00344755 -0.0246159)
(22.5507 0.00891203 -0.0374771)
(22.7109 -0.066305 0.0218956)
(22.7614 -0.0713877 0.0173246)
(22.8091 -0.063532 0.0142362)
(19.0652 -1.26754 -1.26243)
(21.4984 -0.974259 -1.0121)
(6.89255 0.315135 0.138003)
(6.26516 -0.447517 -0.434913)
(6.06642 -0.308234 -0.924617)
(8.85357 -0.399921 -0.927011)
(10.5043 -0.401815 0.474265)
(9.13357 0.0146627 -0.847117)
(22.7022 -0.0757112 0.0563684)
(22.7501 -0.0780215 0.0530953)
(22.7949 -0.0675725 0.0486625)
(22.44 -0.0646267 0.0630274)
(22.6419 0.0166198 0.110149)
(22.6801 0.0237433 0.11289)
(22.7201 0.0254896 0.105612)
(22.6574 0.0536873 0.0906979)
(22.6952 0.0638198 0.0911601)
(22.736 0.0652645 0.0837032)
(22.6659 0.0426173 0.0381821)
(22.7154 0.0538984 0.0348389)
(22.7683 0.0521244 0.0341281)
(22.6767 0.0371843 -0.0122455)
(22.7184 0.0489938 -0.0159504)
(22.7661 0.0475781 -0.0107331)
(22.5065 0.00323701 -0.0239474)
(22.5485 0.00865753 -0.0370243)
(22.7589 -0.0715445 0.017245)
(22.8071 -0.0642001 0.0141996)
(18.8323 -1.23834 -1.20963)
(21.4594 -1.01512 -1.04745)
(6.67919 0.335308 0.135414)
(6.1776 -0.440541 -0.43907)
(5.92772 -0.301964 -0.927425)
(8.81043 -0.391228 -0.922318)
(10.325 -0.412509 0.468502)
(14.1562 -0.316014 0.612983)
(9.00569 0.0198646 -0.848856)
(22.7001 -0.0753109 0.056527)
(22.7477 -0.0782517 0.0533668)
(22.793 -0.0682476 0.0488831)
(22.4381 -0.0643251 0.0626182)
(22.6777 0.0235548 0.112918)
(22.7179 0.0255637 0.106073)
(22.6556 0.0530263 0.090427)
(22.6928 0.0635209 0.0912724)
(22.7337 0.0653121 0.0841626)
(22.6638 0.0419324 0.0384158)
(22.7129 0.0537924 0.0348905)
(22.7658 0.0525686 0.0340597)
(22.6749 0.0363345 -0.0120487)
(22.7161 0.048744 -0.0160646)
(22.7637 0.0479006 -0.0111455)
(22.5043 0.00303397 -0.0232662)
(22.5463 0.00840222 -0.0365346)
(22.7565 -0.0716468 0.0172215)
(22.805 -0.0648307 0.0141985)
(18.6159 -1.21094 -1.15093)
(21.4108 -1.05802 -1.08214)
(6.45706 0.356073 0.13294)
(6.08792 -0.433522 -0.443393)
(5.78666 -0.295229 -0.930268)
(8.76275 -0.383242 -0.918078)
(10.1385 -0.424355 0.463174)
(14.0455 -0.314913 0.607967)
(8.88384 0.0254207 -0.850258)
(22.6979 -0.0748705 0.0566516)
(22.7452 -0.0784388 0.0536143)
(22.7909 -0.0689065 0.0490924)
(22.4363 -0.0640274 0.0622033)
(22.6753 0.0233552 0.112914)
(22.7157 0.0256275 0.106519)
(22.6537 0.0523385 0.0901308)
(22.6904 0.0631902 0.091363)
(22.7314 0.0653378 0.0846097)
(22.6616 0.041217 0.0386336)
(22.7103 0.0536314 0.0349517)
(22.7633 0.0529648 0.0340165)
(22.6732 0.0354751 -0.0117992)
(22.7138 0.0484628 -0.0161189)
(22.7612 0.0482005 -0.0115108)
(22.5021 0.00283849 -0.0225772)
(22.5441 0.00814638 -0.0360216)
(22.754 -0.071696 0.0172499)
(22.8029 -0.0654248 0.0142297)
(18.3597 -1.18327 -1.09546)
(21.3544 -1.10271 -1.11785)
(6.22626 0.377313 0.130723)
(5.99651 -0.426395 -0.447886)
(5.64257 -0.288012 -0.933241)
(8.71054 -0.37587 -0.914284)
(9.94447 -0.437368 0.45838)
(13.9275 -0.314439 0.60305)
(8.75982 0.0311466 -0.851989)
(22.6958 -0.0743924 0.0567441)
(22.7428 -0.0785835 0.0538389)
(22.7889 -0.0695485 0.0492921)
(22.4344 -0.0637329 0.0617828)
(22.6729 0.0231428 0.11288)
(22.7134 0.0256806 0.10695)
(22.6519 0.0516249 0.0898113)
(22.6881 0.0628274 0.0914334)
(22.7291 0.0653473 0.0850433)
(22.6594 0.040469 0.0388366)
(22.7077 0.0534121 0.0350242)
(22.7607 0.0533123 0.0339963)
(22.6714 0.0346047 -0.0115011)
(22.7114 0.0481474 -0.0161162)
(22.7587 0.0484752 -0.0118333)
(22.4999 0.00265099 -0.0218851)
(22.5419 0.00789013 -0.035485)
(22.7514 -0.0716941 0.0173262)
(22.8008 -0.0659836 0.0142923)
(18.0669 -1.14925 -1.04212)
(21.2973 -1.14732 -1.15798)
(5.98847 0.398426 0.129144)
(5.90323 -0.41915 -0.452566)
(7.89351 -0.592562 -0.401412)
(5.49624 -0.280351 -0.936255)
(8.6523 -0.369198 -0.911041)
(9.74196 -0.451165 0.454145)
(13.8062 -0.314862 0.598118)
(8.63295 0.0368901 -0.854116)
(12.771 -0.0604205 -0.72833)
(22.6936 -0.0738786 0.0568062)
(22.7403 -0.0786865 0.0540432)
(22.7868 -0.0701723 0.049484)
(22.4324 -0.0634357 0.0613584)
(22.6705 0.022918 0.112821)
(22.711 0.0257197 0.107369)
(22.6501 0.0508856 0.0894701)
(22.6858 0.062433 0.0914847)
(22.7267 0.0653427 0.085463)
(22.6572 0.039685 0.0390276)
(22.7052 0.053134 0.035109)
(22.7581 0.053611 0.0339969)
(22.6695 0.0337223 -0.0111571)
(22.7091 0.0477956 -0.0160599)
(22.7562 0.0487215 -0.0121163)
(22.4977 0.00247145 -0.0211887)
(22.5397 0.00763394 -0.0349335)
(22.7489 -0.0716428 0.0174473)
(22.7985 -0.0665079 0.0143841)
(17.7659 -1.11585 -0.991387)
(21.2378 -1.1913 -1.20073)
(5.75837 0.415575 0.131038)
(5.80794 -0.411779 -0.457443)
(7.84548 -0.580807 -0.403581)
(5.37108 -0.271635 -0.938259)
(8.58779 -0.363161 -0.908362)
(9.53659 -0.464832 0.450138)
(13.6774 -0.316338 0.593378)
(8.50489 0.042573 -0.856505)
(12.7384 -0.0651979 -0.724966)
(22.6914 -0.0733313 0.0568403)
(22.7378 -0.0787478 0.0542292)
(22.7846 -0.0707767 0.04967)
(22.4305 -0.0631318 0.0609301)
(22.6682 0.0226811 0.112741)
(22.7087 0.0257423 0.10778)
(22.6483 0.0501227 0.0891082)
(22.6835 0.0620109 0.0915178)
(22.7243 0.0653292 0.085869)
(22.6549 0.038865 0.0392086)
(22.7026 0.0527966 0.0352075)
(22.7555 0.0538608 0.0340167)
(22.6676 0.032827 -0.0107697)
(22.7068 0.0474051 -0.0159526)
(22.7537 0.0489366 -0.0123625)
(22.4955 0.00230004 -0.0204866)
(22.5375 0.00737769 -0.034375)
(22.7463 -0.0715438 0.0176091)
(22.7963 -0.0669987 0.0145021)
(17.4481 -1.08486 -0.945175)
(21.1712 -1.23424 -1.24436)
(5.55395 0.424672 0.138567)
(5.7105 -0.404288 -0.462524)
(7.79756 -0.569433 -0.40581)
(5.2503 -0.262412 -0.940336)
(8.51701 -0.35767 -0.906241)
(9.31878 -0.478649 0.4466)
(13.543 -0.317621 0.588718)
(8.37602 0.0482086 -0.85909)
(12.6702 -0.0696406 -0.726504)