/*--------------------------------*- C++ -*----------------------------------*\
| =========                 |                                                 |
| \\      /  F ield         | OpenFOAM: The Open Source CFD Toolbox           |
|  \\    /   O peration     | Version:  2.1.1                                 |
|   \\  /    A nd           | Web:      www.OpenFOAM.org                      |
|    \\/     M anipulation  |                                                 |
\*---------------------------------------------------------------------------*/
FoamFile
{
    version     2.0;
    format      ascii;
    class       Cloud<solidParticle>;
    location    "0.0013";
    object      positions;
}
// * * * * * * * * * * * * * * * * * * * * * * * * * * * * * * * * * * * * * //

44454
(
(0.000629545 0.00899032 0.00101173) 20041
(0.0233287 0.00617088 0.00193331) 13486
(0.0232489 0.00617524 0.00193854) 13486
(0.0231628 0.00618014 0.00194422) 13486
(0.0230735 0.00618543 0.0019502) 13486
(0.0229794 0.00619118 0.00195652) 13485
(0.0228802 0.00619734 0.00196307) 13485
(0.0227751 0.00620399 0.0019699) 13485
(0.0226663 0.00621087 0.00197662) 13485
(0.0225524 0.006218 0.00198325) 13485
(0.0224329 0.00622537 0.0019897) 13484
(0.022308 0.00623296 0.00199574) 13484
(0.0221769 0.00624089 0.00200135) 13484
(0.0220392 0.00624932 0.00200644) 13484
(0.021897 0.0062583 0.00201096) 13483
(0.0217522 0.00626791 0.00201501) 13483
(0.0216057 0.00627821 0.00201873) 13483
(0.0239223 0.00614306 0.00189358) 13487
(0.0238607 0.00614362 0.00189464) 13487
(0.0237964 0.00614452 0.00189575) 13487
(0.0237297 0.00614588 0.00189742) 13487
(0.0236601 0.00614768 0.00189959) 13487
(0.0235869 0.00615 0.00190244) 13487
(0.0235097 0.00615288 0.00190591) 13487
(0.0234286 0.0061562 0.0019097) 13486
(0.0233416 0.00616017 0.00191404) 13486
(0.0232519 0.00616472 0.00191895) 13486
(0.0231565 0.00616997 0.00192455) 13486
(0.0230571 0.00617583 0.00193068) 13486
(0.0229524 0.00618228 0.00193703) 13485
(0.0228429 0.00618933 0.00194377) 13485
(0.0227284 0.00619695 0.00195087) 13485
(0.0226105 0.00620491 0.001958) 13485
(0.0224857 0.00621318 0.00196499) 13484
(0.0223556 0.00622161 0.00197145) 13484
(0.0244025 0.0061519 0.00189081) 13488
(0.0222182 0.0062305 0.00197747) 13484
(0.0243513 0.00614798 0.00188828) 13488
(0.0177544 0.00294798 0.00333517) 32113
(0.0220764 0.00623968 0.0019827) 13484
(0.0242983 0.00614461 0.00188623) 13488
(0.0176045 0.00294277 0.00333548) 32113
(0.0219278 0.00624944 0.00198719) 13483
(0.0242432 0.00614165 0.00188417) 13488
(0.0174479 0.00293769 0.00333611) 31969
(0.0217756 0.00625983 0.00199093) 13483
(0.0241862 0.00613907 0.00188212) 13488
(0.0172773 0.00293205 0.00333737) 31969
(0.021619 0.00627125 0.00199423) 13483
(0.0241273 0.00613708 0.00188064) 13488
(0.0170898 0.00292557 0.00333938) 31969
(0.0214577 0.00628373 0.00199711) 13482
(0.0240663 0.00613567 0.00187972) 13488
(0.016883 0.00291795 0.00334226) 31825
(0.0240024 0.00613485 0.00187937) 13488
(0.0166569 0.00290901 0.00334604) 31825
(0.0239358 0.00613444 0.00187902) 13487
(0.0164104 0.00289832 0.00335079) 31681
(0.0238661 0.00613451 0.00187896) 13487
(0.0161462 0.00288559 0.00335659) 31681
(0.0237931 0.00613522 0.00187969) 13487
(0.0158684 0.00287068 0.00336342) 31537
(0.0237154 0.00613663 0.00188123) 13487
(0.0155869 0.00285377 0.00337099) 31537
(0.0236332 0.00613863 0.00188348) 13487
(0.0235485 0.00614125 0.00188604) 13487
(0.0234572 0.00614478 0.00188949) 13486
(0.0233609 0.00614912 0.00189383) 13486
(0.0192024 0.00298353 0.00334107) 32545
(0.0232596 0.00615424 0.0018989) 13486
(0.0191046 0.00298015 0.00333777) 32545
(0.0231525 0.00616015 0.0019043) 13486
(0.0190026 0.00297649 0.00333491) 32545
(0.0230395 0.00616708 0.00191061) 13486
(0.0188939 0.00297233 0.00333262) 32401
(0.0229203 0.00617499 0.00191769) 13485
(0.0247641 0.00618919 0.00190999) 13489
(0.0187811 0.00296789 0.00333063) 32401
(0.0227952 0.00618368 0.00192515) 13485
(0.0247197 0.00618116 0.00190407) 13489
(0.0186618 0.00296302 0.00332903) 32401
(0.0226641 0.00619309 0.00193281) 13485
(0.0246735 0.00617351 0.00189871) 13489
(0.0185371 0.00295788 0.00332778) 32401
(0.0225268 0.00620307 0.00194061) 13485
(0.0246252 0.00616642 0.00189405) 13489
(0.018407 0.00295247 0.00332686) 32257
(0.0223833 0.00621324 0.00194797) 13484
(0.0245749 0.00615957 0.00188911) 13489
(0.018271 0.002947 0.00332622) 32257
(0.022231 0.00622379 0.00195473) 13484
(0.024523 0.00615323 0.0018845) 13489
(0.0181274 0.0029414 0.00332591) 32257
(0.0220707 0.00623502 0.00196071) 13484
(0.0244689 0.00614752 0.00188047) 13488
(0.0179775 0.00293595 0.0033258) 32113
(0.021903 0.00624694 0.00196559) 13483
(0.0244122 0.00614256 0.00187714) 13488
(0.0178205 0.00293065 0.00332592) 32113
(0.0217263 0.00625997 0.00196964) 13483
(0.024353 0.00613821 0.00187409) 13488
(0.0176485 0.00292475 0.00332671) 32113
(0.0215412 0.00627459 0.00197329) 13483
(0.0242914 0.00613432 0.00187088) 13488
(0.0174583 0.00291794 0.00332829) 31969
(0.0213473 0.00629089 0.00197629) 13482
(0.0242273 0.00613119 0.00186834) 13488
(0.0172484 0.00290996 0.00333075) 31969
(0.0241601 0.00612881 0.00186647) 13488
(0.0170184 0.0029006 0.00333413) 31969
(0.0240898 0.00612717 0.00186526) 13488
(0.0167665 0.00288937 0.00333851) 31825
(0.0240158 0.00612608 0.00186398) 13488
(0.016928 0.00455928 0.000882929) 11553
(0.0164976 0.0028761 0.00334396) 31681
(0.023937 0.00612577 0.00186335) 13487
(0.016888 0.00456643 0.000880269) 11553
(0.0162143 0.00286019 0.00335063) 31681
(0.0200646 0.00299503 0.00335666) 32833
(0.0238538 0.00612624 0.00186362) 13487
(0.0168464 0.00457338 0.000877525) 11553
(0.0159291 0.00284223 0.00335797) 31537
(0.0199811 0.00299307 0.00335193) 32689
(0.0237663 0.00612754 0.00186488) 13487
(0.0168034 0.00458016 0.000874754) 11553
(0.0156583 0.00282308 0.0033654) 31537
(0.0198945 0.00299084 0.00334735) 32689
(0.0236739 0.00612954 0.0018664) 13487
(0.0167593 0.00458677 0.000871965) 11553
(0.0198042 0.00298829 0.00334296) 32689
(0.0235757 0.00613251 0.00186876) 13487
(0.0167139 0.0045932 0.000869146) 11553
(0.0197096 0.00298539 0.00333878) 32689
(0.0234718 0.00613665 0.00187247) 13486
(0.0166675 0.00459947 0.000866306) 11553
(0.0196107 0.00298212 0.00333486) 32689
(0.0233599 0.00614196 0.00187714) 13486
(0.0250648 0.00624708 0.00194901) 13490
(0.01662 0.00460558 0.000863439) 11553
(0.0195082 0.0029785 0.00333121) 32689
(0.0232431 0.00614821 0.00188224) 13486
(0.0250255 0.00623654 0.00194028) 13490
(0.0165715 0.00461152 0.000860548) 11553
(0.0194006 0.00297445 0.00332801) 32545
(0.0231186 0.00615589 0.00188873) 13486
(0.0249843 0.00622588 0.00193145) 13489
(0.0165215 0.00461732 0.00085762) 11553
(0.0192883 0.00296994 0.00332528) 32545
(0.0229866 0.00616493 0.00189634) 13485
(0.0249409 0.00621569 0.00192367) 13489
(0.0164697 0.004623 0.000854641) 11552
(0.0191719 0.00296503 0.00332283) 32545
(0.0228457 0.00617512 0.00190442) 13485
(0.0248954 0.00620574 0.00191656) 13489
(0.0164164 0.00462863 0.000851608) 11552
(0.0190494 0.00295961 0.00332072) 32545
(0.0226982 0.0061864 0.00191302) 13485
(0.0248482 0.00619576 0.00190896) 13489
(0.0163613 0.00463417 0.000848514) 11552
(0.0189232 0.00295396 0.00331885) 32401
(0.0225437 0.00619849 0.001922) 13485
(0.0247987 0.00618606 0.0019016) 13489
(0.0187921 0.002948 0.0033173) 32401
(0.0223789 0.00621091 0.00193045) 13484
(0.0247467 0.00617692 0.00189507) 13489
(0.0186562 0.00294204 0.00331595) 32401
(0.0222033 0.00622382 0.00193807) 13484
(0.0246922 0.0061684 0.00188946) 13489
(0.018514 0.0029361 0.00331482) 32401
(0.0220169 0.00623764 0.00194461) 13484
(0.0246354 0.00616015 0.0018835) 13489
(0.0179696 0.00513194 0.000548391) 7835
(0.0183654 0.00293031 0.00331385) 32257
(0.0218175 0.0062526 0.0019497) 13483
(0.024576 0.00615261 0.00187801) 13489
(0.0179175 0.00513788 0.000550274) 7835
(0.0182092 0.00292482 0.003313) 32257
(0.0216062 0.0062695 0.0019541) 13483
(0.024514 0.00614588 0.00187324) 13489
(0.0178629 0.00514358 0.000551907) 7835
(0.0180371 0.00291878 0.00331273) 32257
(0.0213807 0.00628896 0.00195793) 13482
(0.0244488 0.00614006 0.00186932) 13488
(0.0176433 0.00452714 0.000882729) 11555
(0.0178063 0.00514909 0.000553332) 7835
(0.0178466 0.00291195 0.00331317) 32113
(0.0209437 0.00300473 0.00338064) 821
(0.0243799 0.00613487 0.0018653) 13488
(0.017605 0.004535 0.00088031) 11555
(0.017747 0.00515441 0.000554428) 7835
(0.0176346 0.00290386 0.00331439) 32113
(0.0208661 0.00300381 0.00337504) 821
(0.0243079 0.00613049 0.00186154) 13488
(0.0175649 0.00454256 0.000877901) 11555
(0.0176856 0.00515957 0.000555326) 7835
(0.0174002 0.00289416 0.00331664) 31969
(0.0207867 0.00300278 0.00336957) 821
(0.0242329 0.00612714 0.00185872) 13488
(0.017523 0.00454986 0.000875489) 11555
(0.0176222 0.00516463 0.000556053) 7835
(0.0171415 0.00288221 0.00332004) 31969
(0.0207053 0.00300157 0.00336422) 821
(0.0241539 0.00612479 0.00185675) 13488
(0.0174795 0.00455696 0.000873071) 11554
(0.0175571 0.00516961 0.000556628) 7835
(0.0168611 0.00286747 0.00332475) 31825
(0.0206211 0.00300013 0.00335901) 821
(0.0240699 0.00612317 0.00185483) 13488
(0.0174345 0.00456386 0.000870641) 11554
(0.0174899 0.00517452 0.000557051) 7834
(0.0165692 0.00285016 0.00333071) 31825
(0.0205341 0.00299847 0.00335393) 32977
(0.023982 0.00612243 0.00185335) 13487
(0.0173881 0.00457056 0.000868196) 11554
(0.017421 0.00517943 0.000557359) 7834
(0.0162761 0.00283022 0.0033376) 31681
(0.0204439 0.00299653 0.00334893) 32833
(0.0160789 0.00369461 0.00345995) 14492
(0.0238873 0.00612287 0.00185316) 13487
(0.0253782 0.00633354 0.00202339) 13490
(0.0173411 0.0045771 0.000866013) 11554
(0.0173514 0.00518437 0.000557828) 7834
(0.0160065 0.00281008 0.00334472) 31681
(0.0203502 0.00299428 0.00334421) 32833
(0.0205415 0.00651185 0.00151058) 6761
(0.0160546 0.00369455 0.00345998) 14492
(0.0160279 0.00378811 0.0036701) 14552
(0.0237881 0.00612432 0.00185419) 13487
(0.025343 0.00632197 0.00201181) 13490
(0.0172932 0.00458358 0.00086378) 11554
(0.0172801 0.00518937 0.000558157) 7834
(0.0157905 0.00279266 0.00334999) 31537
(0.0202535 0.00299172 0.00333953) 32833
(0.0203785 0.0065223 0.00150548) 6760
(0.0160302 0.00369447 0.00346001) 14492
(0.0160039 0.00378803 0.00367008) 14552
(0.0236827 0.00612661 0.00185538) 13487
(0.0253072 0.00631032 0.00199977) 13490
(0.0172441 0.00458993 0.000861506) 11554
(0.0172073 0.00519442 0.000558373) 7834
(0.0201524 0.00298872 0.00333497) 32833
(0.0202011 0.00653495 0.00150032) 6760
(0.0160181 0.00637569 0.00289729) 13532
(0.0160058 0.00369437 0.00346005) 14492
(0.01598 0.00378793 0.00367007) 14551
(0.0235712 0.00613023 0.00185782) 13487
(0.0252694 0.00629861 0.00198872) 13490
(0.0171942 0.00459619 0.00085918) 11554
(0.0171334 0.00519954 0.000558498) 7834
(0.0190564 0.00507047 0.000525129) 7838
(0.0200489 0.00298535 0.0033305) 32833
(0.020008 0.00655022 0.00149517) 6760
(0.0159948 0.00637558 0.00289739) 13531
(0.0159815 0.00369423 0.0034601) 14491
(0.0164917 0.00368918 0.00346139) 14492
(0.0159562 0.00378782 0.00367008) 14551
(0.023452 0.00613531 0.00186188) 13486
(0.0252297 0.00628667 0.00197804) 13490
(0.0171434 0.00460236 0.000856805) 11554
(0.0170581 0.00520475 0.000558519) 7834
(0.0190306 0.00507984 0.000530415) 7838
(0.0199423 0.00298163 0.00332618) 32689
(0.0198021 0.0065682 0.00149022) 6759
(0.0159715 0.00637551 0.00289748) 13531
(0.0159572 0.00369408 0.00346015) 14491
(0.0164675 0.00368951 0.00346136) 14492
(0.0159323 0.00378768 0.0036701) 14551
(0.016432 0.00378385 0.00367551) 14552
(0.0233246 0.00614171 0.00186667) 13486
(0.0251892 0.00627445 0.00196662) 13490
(0.0170918 0.00460845 0.000854373) 11554
(0.0169817 0.00521007 0.00055846) 7833
(0.0189983 0.00508829 0.000534958) 7837
(0.0198307 0.00297738 0.0033223) 32689
(0.0196405 0.00657571 0.00148656) 6759
(0.0159481 0.00637545 0.00289757) 13531
(0.0164311 0.00638384 0.00289419) 13532
(0.0159329 0.0036939 0.00346021) 14491
(0.0164432 0.00368982 0.00346133) 14492
(0.0159086 0.00378753 0.00367013) 14551
(0.0164077 0.00378409 0.00367528) 14552
(0.0231898 0.00614957 0.00187257) 13486
(0.0251469 0.00626243 0.00195618) 13490
(0.0170389 0.00461451 0.000851876) 11554
(0.0169033 0.00521552 0.000558304) 7833
(0.0189641 0.00509632 0.00053921) 7837
(0.019716 0.00297273 0.00331879) 32689
(0.0195165 0.00657941 0.00148441) 6759
(0.0159246 0.00637543 0.00289765) 13531
(0.0164089 0.00638332 0.00289436) 13532
(0.0159087 0.0036937 0.00346026) 14491
(0.0164189 0.00369012 0.0034613) 14492
(0.0158848 0.00378736 0.00367018) 14551
(0.0163833 0.00378431 0.00367507) 14552
(0.0230469 0.0061592 0.00188016) 13486
(0.0251018 0.00625044 0.00194672) 13490
(0.0169846 0.00462053 0.000849306) 11553
(0.0168234 0.00522115 0.000558088) 7833
(0.018928 0.00510395 0.00054321) 7837
(0.0195961 0.00296745 0.00331567) 32689
(0.0194022 0.00658243 0.00148263) 6758
(0.0159012 0.00637543 0.00289773) 13531
(0.0163865 0.00638282 0.00289453) 13532
(0.0158844 0.00369347 0.00346032) 14491
(0.0163946 0.0036904 0.00346127) 14492
(0.0158612 0.00378717 0.00367024) 14551
(0.016359 0.00378451 0.00367485) 14552
(0.0228943 0.00617033 0.00188865) 13485
(0.0250552 0.00623822 0.00193653) 13490
(0.0169291 0.00462656 0.000846659) 11553
(0.01889 0.00511121 0.00054696) 7837
(0.0194742 0.00296195 0.00331272) 32545
(0.0192962 0.00658578 0.00148141) 6758
(0.0158777 0.00637546 0.00289779) 13531
(0.0163641 0.00638234 0.0028947) 13532
(0.0158603 0.00369322 0.00346039) 14491
(0.0163702 0.00369066 0.00346125) 14492
(0.0158375 0.00378696 0.00367031) 14551
(0.0163347 0.0037847 0.00367465) 14552
(0.0227317 0.00618296 0.00189777) 13485
(0.0250066 0.00622617 0.00192679) 13490
(0.0168722 0.00463258 0.000843928) 11553
(0.0188498 0.00511811 0.000550443) 7837
(0.0193477 0.00295596 0.00331008) 32545
(0.0192086 0.00658973 0.00148149) 6758
(0.0158542 0.00637551 0.00289785) 13531
(0.0163416 0.00638187 0.00289486) 13532
(0.0158361 0.00369295 0.00346046) 14491
(0.0163459 0.0036909 0.00346122) 14492
(0.0158139 0.00378674 0.0036704) 14551
(0.0163105 0.00378487 0.00367445) 14552
(0.0225594 0.00619689 0.00190753) 13485
(0.0249554 0.00621464 0.00191818) 13489
(0.0168141 0.0046386 0.000841111) 11553
(0.0188072 0.00512465 0.000553652) 7837
(0.0192171 0.00294969 0.00330771) 32545
(0.019131 0.00659398 0.00148221) 6758
(0.0158307 0.00637559 0.0028979) 13531
(0.0163191 0.00638143 0.00289502) 13532
(0.015717 0.0042194 0.0018743) 14131
(0.015812 0.00369265 0.00346053) 14491
(0.0163216 0.00369112 0.0034612) 14492
(0.0168271 0.00368089 0.00346309) 14493
(0.0157904 0.00378649 0.00367049) 14551
(0.0162862 0.00378502 0.00367426) 14552
(0.0158352 0.00638119 0.00312961) 15271
(0.0223739 0.00621141 0.00191685) 13484
(0.0249018 0.00620335 0.00191015) 13489
(0.0167546 0.00464462 0.000838205) 11553
(0.018762 0.00513084 0.000556566) 7837
(0.0190814 0.00294318 0.00330562) 32545
(0.0218831 0.0030107 0.0034028) 823
(0.0190524 0.00659828 0.00148274) 6758
(0.0158071 0.00637569 0.00289794) 13531
(0.0162965 0.00638101 0.00289517) 13532
(0.0156945 0.00421916 0.00187429) 14131
(0.015788 0.00369233 0.0034606) 14491
(0.0162972 0.00369132 0.00346118) 14492
(0.0168032 0.00368137 0.003463) 14493
(0.0157669 0.00378623 0.0036706) 14551
(0.016262 0.00378515 0.00367408) 14552
(0.0155933 0.00500804 0.00437953) 14851
(0.0158117 0.00638135 0.00312971) 15271
(0.0163026 0.00638504 0.00312866) 15272
(0.0221754 0.00622648 0.00192512) 13484
(0.0248461 0.00619212 0.00190149) 13489
(0.0166937 0.00465063 0.000835227) 11553
(0.0183769 0.00450449 0.000883108) 11556
(0.0187139 0.00513671 0.000559182) 7837
(0.0189402 0.00293678 0.00330371) 32401
(0.0218073 0.00301063 0.00339749) 823
(0.0189729 0.00660257 0.00148308) 6757
(0.0157835 0.00637582 0.00289797) 13531
(0.0162738 0.00638061 0.00289532) 13532
(0.016734 0.00639479 0.00289125) 13533
(0.015672 0.00421892 0.00187426) 14131
(0.0157639 0.00369199 0.00346068) 14491
(0.0162728 0.0036915 0.00346116) 14492
(0.0167793 0.00368184 0.00346292) 14493
(0.0157435 0.00378595 0.00367072) 14551
(0.0162378 0.00378527 0.0036739) 14552
(0.0167414 0.00377743 0.00368148) 14553
(0.0155702 0.00500787 0.00437993) 14851
(0.0160556 0.00501119 0.00437832) 14852
(0.0157881 0.00638153 0.00312982) 15271
(0.0162797 0.00638469 0.00312869) 15272
(0.0219624 0.00624279 0.00193195) 13483
(0.0247874 0.00618158 0.00189375) 13489
(0.0166312 0.00465663 0.000832176) 11553
(0.0183414 0.00451329 0.000881263) 11556
(0.0186628 0.00514228 0.000561514) 7837
(0.0187945 0.00293086 0.00330184) 32401
(0.0217291 0.00301046 0.00339231) 823
(0.0188934 0.00660668 0.00148323) 6757
(0.0157599 0.00637597 0.00289799) 13531
(0.016251 0.00638023 0.00289547) 13532
(0.016713 0.00639408 0.00289142) 13533
(0.0156496 0.00421865 0.00187422) 14131
(0.0161121 0.00421796 0.00187008) 14132
(0.0157399 0.00369162 0.00346077) 14491
(0.0162484 0.00369166 0.00346115) 14492
(0.0167553 0.0036823 0.00346284) 14493
(0.0157201 0.00378565 0.00367084) 14551
(0.0162136 0.00378537 0.00367374) 14552
(0.0167172 0.0037778 0.00368119) 14553
(0.0155472 0.0050077 0.00438035) 14851
(0.0160321 0.00501099 0.00437829) 14852
(0.0157646 0.00638173 0.00312992) 15271
(0.0162567 0.00638437 0.00312872) 15272
(0.0217331 0.0062608 0.0019371) 13483
(0.0247258 0.00617171 0.00188707) 13489
(0.0165671 0.00466259 0.00082902) 11613
(0.0183054 0.00452178 0.000879417) 11556
(0.018609 0.00514761 0.000563577) 7837
(0.01864 0.00292523 0.00330007) 32401
(0.021649 0.00301015 0.00338725) 823
(0.0188134 0.00661069 0.0014832) 6757
(0.0157363 0.00637614 0.002898) 13531
(0.0162282 0.00637987 0.00289561) 13532
(0.0166918 0.00639338 0.00289159) 13533
(0.0156272 0.00421838 0.00187417) 14131
(0.0160895 0.00421802 0.00187033) 14132
(0.0157159 0.00369122 0.00346085) 14491
(0.016224 0.00369179 0.00346113) 14492
(0.0167313 0.00368275 0.00346276) 14493
(0.0156967 0.00378533 0.00367098) 14551
(0.0161895 0.00378545 0.00367358) 14552
(0.0166929 0.00377816 0.0036809) 14553
(0.0155243 0.00500754 0.00438079) 14851
(0.0160085 0.00501078 0.00437829) 14852
(0.015741 0.00638196 0.00313004) 15271
(0.0162337 0.00638406 0.00312876) 15272
(0.0214862 0.00628197 0.0019418) 13482
(0.024661 0.00616235 0.00188055) 13489
(0.0182677 0.00452996 0.000877582) 11556
(0.0185521 0.00515271 0.000565371) 7837
(0.0184694 0.00291913 0.00329875) 32257
(0.0215651 0.00300962 0.00338238) 823
(0.0187327 0.00661462 0.00148298) 6757
(0.0216129 0.00651148 0.001524) 6763
(0.0157126 0.00637634 0.00289801) 13531
(0.0162053 0.00637953 0.00289575) 13532
(0.0166706 0.00639269 0.00289177) 13533
(0.0156048 0.00421809 0.00187411) 14131
(0.0160668 0.00421808 0.00187056) 14132
(0.015692 0.0036908 0.00346095) 14491
(0.0161996 0.0036919 0.00346113) 14492
(0.0167073 0.00368319 0.00346268) 14493
(0.0156734 0.00378499 0.00367114) 14551
(0.0161654 0.00378551 0.00367344) 14552
(0.0166686 0.00377851 0.00368062) 14553
(0.0155013 0.00500738 0.00438124) 14851
(0.015985 0.00501058 0.00437831) 14851
(0.0157174 0.0063822 0.00313016) 15271
(0.0162105 0.00638379 0.0031288) 15272
(0.0212173 0.00630735 0.00194632) 13482
(0.0245941 0.00615373 0.0018741) 13489
(0.0182278 0.00453781 0.000875757) 11556
(0.0184924 0.00515762 0.00056692) 7836
(0.0182781 0.00291209 0.00329813) 32257
(0.0214798 0.003009 0.00337761) 822
(0.0186513 0.00661872 0.00148253) 6757
(0.0215271 0.00651315 0.00152186) 6763
(0.0156889 0.00637656 0.002898) 13531
(0.0161823 0.00637922 0.00289589) 13532
(0.0166492 0.00639201 0.00289194) 13533
(0.0155824 0.00421779 0.00187404) 14131
(0.0160441 0.00421811 0.00187078) 14132
(0.0156681 0.00369036 0.00346104) 14491
(0.0161752 0.00369198 0.00346113) 14492
(0.0166833 0.00368362 0.00346261) 14493
(0.0156501 0.00378464 0.0036713) 14551
(0.0161413 0.00378555 0.00367331) 14552
(0.0166443 0.00377885 0.00368034) 14553
(0.0154784 0.00500723 0.0043817) 14850
(0.0159615 0.00501037 0.00437835) 14851
(0.0156938 0.00638247 0.00313028) 15271
(0.0161874 0.00638353 0.00312884) 15272
(0.0245231 0.00614613 0.00186858) 13489
(0.0181857 0.00454536 0.000873929) 11556
(0.01843 0.00516238 0.000568245) 7836
(0.0180636 0.00290382 0.00329839) 32257
(0.0213929 0.00300826 0.0033729) 822
(0.0185709 0.00662298 0.00148193) 6757
(0.0214281 0.006516 0.00151884) 6762
(0.0156652 0.00637681 0.00289799) 13531
(0.0161592 0.00637894 0.00289602) 13532
(0.0166278 0.00639135 0.00289211) 13533
(0.0155601 0.00421747 0.00187396) 14131
(0.0160214 0.00421813 0.00187099) 14132
(0.0156442 0.0036899 0.00346114) 14491
(0.0161507 0.00369204 0.00346113) 14492
(0.0166592 0.00368403 0.00346254) 14493
(0.0156268 0.00378427 0.00367148) 14551
(0.0161172 0.00378558 0.00367319) 14552
(0.0166199 0.00377917 0.00368007) 14553
(0.0154555 0.00500708 0.00438217) 14850
(0.0159381 0.00501016 0.00437842) 14851
(0.0156702 0.00638275 0.00313041) 15271
(0.0161641 0.0063833 0.00312889) 15272
(0.0244484 0.00613964 0.001864) 13488
(0.0181416 0.00455265 0.000872089) 11556
(0.0183648 0.005167 0.00056935) 7836
(0.0178224 0.0028936 0.00329981) 32113
(0.0213028 0.00300732 0.00336832) 822
(0.0184906 0.00662729 0.00148112) 6756
(0.0213158 0.00652013 0.00151507) 6762
(0.0156414 0.00637707 0.00289797) 13531
(0.016136 0.00637868 0.00289615) 13532
(0.0166063 0.0063907 0.00289228) 13533
(0.0159595 0.00442144 0.00175588) 14071
(0.0155378 0.00421715 0.00187387) 14131
(0.0159987 0.00421814 0.00187119) 14131
(0.0156203 0.00368941 0.00346125) 14491
(0.0161262 0.00369207 0.00346114) 14492
(0.016635 0.00368443 0.00346248) 14493
(0.0156036 0.00378389 0.00367166) 14551
(0.0160932 0.00378558 0.00367308) 14552
(0.0165956 0.00377949 0.0036798) 14553
(0.0154326 0.00500693 0.00438266) 14850
(0.0159146 0.00500995 0.00437851) 14851
(0.0156466 0.00638305 0.00313054) 15271
(0.0161408 0.0063831 0.00312894) 15272
(0.0243705 0.00613401 0.00185936) 13488
(0.0180956 0.00455971 0.000870234) 11556
(0.0182971 0.00517156 0.000570264) 7836
(0.0175554 0.00288095 0.00330248) 32113
(0.0212107 0.00300622 0.00336382) 822
(0.0184092 0.00663167 0.00148) 6756
(0.0211903 0.00652571 0.00151081) 6762
(0.0156176 0.00637736 0.00289794) 13531
(0.0161128 0.00637844 0.00289627) 13532
(0.0165846 0.00639006 0.00289246) 13533
(0.0154813 0.00441976 0.00175767) 14070
(0.0159369 0.00442143 0.00175605) 14071
(0.0155155 0.00421681 0.00187377) 14131
(0.015976 0.00421812 0.00187137) 14131
(0.0155965 0.00368891 0.00346136) 14491
(0.0161018 0.00369207 0.00346115) 14492
(0.0166109 0.00368482 0.00346243) 14493
(0.0155805 0.00378349 0.00367187) 14551
(0.0160692 0.00378557 0.00367299) 14552
(0.0165712 0.00377979 0.00367954) 14553
(0.0154097 0.00500679 0.00438315) 14850
(0.0158912 0.00500974 0.00437863) 14851
(0.0156229 0.00638338 0.00313068) 15271
(0.0161174 0.00638292 0.00312899) 15272
(0.0165952 0.00639322 0.00312898) 15273
(0.0242878 0.00612942 0.00185512) 13488
(0.025613 0.00641333 0.00211083) 13431
(0.0180479 0.00456655 0.000868357) 11556
(0.0182272 0.00517606 0.00057101) 7836
(0.0197907 0.00502862 0.00050429) 7839
(0.0172634 0.00286495 0.00330658) 31969
(0.0211178 0.00300498 0.00335935) 822
(0.0183257 0.00663596 0.00147846) 6756
(0.0210513 0.00653307 0.00150618) 6762
(0.0155938 0.00637767 0.0028979) 13531
(0.0160895 0.00637823 0.00289639) 13532
(0.0165629 0.00638943 0.00289263) 13533
(0.0154589 0.00441957 0.00175741) 14070
(0.0159143 0.00442141 0.00175619) 14071
(0.0154932 0.00421646 0.00187366) 14130
(0.0159533 0.0042181 0.00187153) 14131
(0.016412 0.00421273 0.00186317) 14132
(0.0155727 0.00368838 0.00346147) 14491
(0.0160773 0.00369205 0.00346117) 14492
(0.0165867 0.00368519 0.00346238) 14493
(0.0155573 0.00378307 0.00367208) 14551
(0.0160452 0.00378554 0.00367292) 14552
(0.0165469 0.00378009 0.00367929) 14553
(0.0153868 0.00500665 0.00438365) 14850
(0.0158678 0.00500954 0.00437876) 14851
(0.0155993 0.00638371 0.00313082) 15271
(0.016094 0.00638277 0.00312906) 15272
(0.0165732 0.00639262 0.00312897) 15273
(0.0242008 0.00612609 0.00185188) 13488
(0.0255867 0.00640267 0.00209734) 13431
(0.0179985 0.00457321 0.000866451) 11555
(0.0181552 0.00518053 0.000571598) 7836
(0.0197933 0.00504198 0.000512479) 7839
(0.0169582 0.00284567 0.00331226) 31825
(0.0210213 0.00300349 0.003355) 822
(0.0182387 0.00664017 0.00147638) 2496
(0.0208988 0.0065424 0.00150132) 6761
(0.01557 0.006378 0.00289785) 13531
(0.0160661 0.00637805 0.00289651) 13532
(0.0165412 0.00638882 0.0028928) 13533
(0.0154365 0.00441938 0.00175714) 14070
(0.0158918 0.00442139 0.00175631) 14071
(0.015471 0.0042161 0.00187354) 14130
(0.0159306 0.00421805 0.00187169) 14131
(0.0163899 0.00421297 0.00186361) 14132
(0.015549 0.00368784 0.00346158) 14491
(0.0160528 0.00369201 0.0034612) 14492
(0.0165625 0.00368555 0.00346233) 14493
(0.0155342 0.00378264 0.00367231) 14551
(0.0160213 0.00378549 0.00367286) 14552
(0.0165225 0.00378037 0.00367905) 14553
(0.0153639 0.00500652 0.00438416) 14850
(0.0158444 0.00500933 0.00437892) 14851
(0.0155757 0.00638407 0.00313097) 15271
(0.0160705 0.00638264 0.00312912) 15272
(0.0165512 0.00639204 0.00312896) 15273
(0.0241097 0.00612388 0.00184947) 13488
(0.0255589 0.00639151 0.00208324) 13431
(0.0179476 0.0045797 0.000864514) 11555
(0.0180813 0.00518501 0.000572043) 7836
(0.0197915 0.00505454 0.000520173) 7839
(0.0166557 0.00282376 0.00331887) 31825
(0.0209228 0.00300175 0.00335064) 821
(0.0181485 0.00664418 0.00147371) 2496
(0.0207315 0.00655414 0.00149636) 6761
(0.0155462 0.00637835 0.0028978) 13531
(0.0160427 0.00637789 0.00289662) 13532
(0.0165193 0.00638823 0.00289297) 13533
(0.0154141 0.00441918 0.00175685) 14070
(0.0158692 0.00442135 0.00175642) 14071
(0.0154488 0.00421573 0.00187341) 14130
(0.0159079 0.00421799 0.00187183) 14131
(0.0163676 0.0042132 0.00186404) 14132
(0.0155253 0.00368728 0.0034617) 14491
(0.0160284 0.00369194 0.00346124) 14492
(0.0165382 0.0036859 0.00346229) 14493
(0.0155112 0.0037822 0.00367255) 14551
(0.0159974 0.00378543 0.00367282) 14551
(0.0164982 0.00378064 0.00367881) 14552
(0.0153411 0.00500639 0.00438468) 14850
(0.0158211 0.00500913 0.00437909) 14851
(0.015552 0.00638444 0.00313112) 15271
(0.016047 0.00638254 0.0031292) 15272
(0.016529 0.00639147 0.00312896) 15273
(0.0240126 0.00612254 0.00184685) 13488
(0.0255278 0.00637967 0.002069) 13431
(0.0178955 0.00458607 0.000862547) 11555
(0.018006 0.00518953 0.000572382) 7836
(0.0197854 0.00506635 0.000527387) 7839
(0.0163857 0.0028023 0.00332525) 31681
(0.0208212 0.00299972 0.00334631) 32977
(0.0180546 0.00664788 0.00147036) 2496
(0.0205473 0.00656871 0.0014913) 6761
(0.0155223 0.00637873 0.00289774) 13531
(0.0160192 0.00637776 0.00289673) 13532
(0.0164973 0.00638765 0.00289315) 13532
(0.0152319 0.0057906 0.00189979) 13770
(0.0153917 0.00441898 0.00175655) 14070
(0.0158467 0.0044213 0.0017565) 14071
(0.0154266 0.00421534 0.00187327) 14130
(0.0158853 0.00421792 0.00187195) 14131
(0.0163454 0.00421342 0.00186445) 14132
(0.0155016 0.0036867 0.00346181) 14491
(0.016004 0.00369185 0.00346128) 14492
(0.0165139 0.00368623 0.00346226) 14493
(0.0154882 0.00378175 0.00367279) 14550
(0.0159735 0.00378534 0.00367279) 14551
(0.0164738 0.00378089 0.00367858) 14552
(0.0153182 0.00500626 0.0043852) 14850
(0.0157978 0.00500893 0.00437929) 14851
(0.0155284 0.00638483 0.00313128) 15271
(0.0160234 0.00638247 0.00312927) 15272
(0.0165068 0.00639092 0.00312896) 15273
(0.0239095 0.00612248 0.00184543) 13487
(0.0254952 0.00636766 0.00205513) 13490
(0.0178422 0.00459232 0.000860535) 11555
(0.0179292 0.0051941 0.00057261) 7835
(0.0197712 0.00507697 0.000533792) 7839
(0.0161798 0.00278496 0.00332932) 31681
(0.0207159 0.00299731 0.00334203) 32977
(0.0179564 0.00665103 0.0014662) 2495
(0.0203804 0.00657789 0.00148715) 6760
(0.0154984 0.00637912 0.00289767) 13530
(0.0159957 0.00637765 0.00289684) 13531
(0.0164752 0.00638709 0.00289332) 13532
(0.0152093 0.00579085 0.00189945) 13770
(0.0153694 0.00441877 0.00175624) 14070
(0.0158241 0.00442125 0.00175656) 14071
(0.0154044 0.00421495 0.00187311) 14130
(0.0158626 0.00421783 0.00187206) 14131
(0.0163231 0.00421362 0.00186485) 14132
(0.0154779 0.00368611 0.00346193) 14490
(0.0159796 0.00369174 0.00346132) 14491
(0.0164896 0.00368655 0.00346223) 14492
(0.0154651 0.00378128 0.00367305) 14550
(0.0159497 0.00378524 0.00367277) 14551
(0.0164494 0.00378114 0.00367836) 14552
(0.0152953 0.00500614 0.00438573) 14850
(0.0157745 0.00500873 0.00437951) 14851
(0.0155047 0.00638524 0.00313144) 15271
(0.0159998 0.00638242 0.00312935) 15271
(0.0164845 0.00639039 0.00312896) 15272
(0.0237998 0.00612375 0.00184569) 13487
(0.0254595 0.00635523 0.00204157) 13490
(0.017788 0.00459847 0.000858475) 11555
(0.0178505 0.00519873 0.000572709) 7835
(0.019751 0.00508667 0.00053952) 7839
(0.0206099 0.00299465 0.00333771) 32977
(0.0178527 0.00665359 0.0014611) 2495
(0.0202406 0.00658246 0.00148429) 6760
(0.0154745 0.00637954 0.0028976) 13530
(0.0159721 0.00637757 0.00289693) 13531
(0.0164531 0.00638655 0.00289349) 13532
(0.0151867 0.0057911 0.00189911) 13770
(0.015347 0.00441856 0.0017559) 14070
(0.0158015 0.00442118 0.0017566) 14071
(0.0162555 0.00442001 0.00174842) 14072
(0.0153822 0.00421455 0.00187294) 14130
(0.01584 0.00421772 0.00187215) 14131
(0.0163008 0.00421382 0.00186524) 14132
(0.0154543 0.0036855 0.00346204) 14490
(0.0159552 0.0036916 0.00346137) 14491
(0.0164653 0.00368686 0.0034622) 14492
(0.0154422 0.0037808 0.00367331) 14550
(0.015926 0.00378513 0.00367278) 14551
(0.0164251 0.00378137 0.00367814) 14552
(0.0152725 0.00500602 0.00438626) 14850
(0.0157513 0.00500853 0.00437974) 14851
(0.0154811 0.00638566 0.0031316) 15270
(0.0159762 0.0063824 0.00312943) 15271
(0.016462 0.00638988 0.00312897) 15272
(0.0236832 0.00612605 0.00184624) 13487
(0.025423 0.00634273 0.00202776) 13490
(0.0177328 0.00460451 0.000856355) 11555
(0.0177706 0.00520347 0.000572717) 7835
(0.0197273 0.00509578 0.000544913) 7839
(0.0205007 0.00299155 0.00333342) 32977
(0.020124 0.00658581 0.00148286) 6760
(0.0154506 0.00637997 0.00289752) 13530
(0.0159485 0.00637752 0.00289702) 13531
(0.0164308 0.00638602 0.00289366) 13532
(0.0151642 0.00579136 0.00189876) 13770
(0.0153246 0.00441834 0.00175556) 14070
(0.015779 0.00442111 0.00175662) 14071
(0.0162334 0.00442013 0.00174884) 14072
(0.0153601 0.00421413 0.00187277) 14130
(0.0158174 0.0042176 0.00187224) 14131
(0.0162784 0.00421401 0.00186561) 14132