/*--------------------------------*- C++ -*----------------------------------*\
| =========                 |                                                 |
| \\      /  F ield         | OpenFOAM: The Open Source CFD Toolbox           |
|  \\    /   O peration     | Version:  2.1.1                                 |
|   \\  /    A nd           | Web:      www.OpenFOAM.org                      |
|    \\/     M anipulation  |                                                 |
\*---------------------------------------------------------------------------*/
FoamFile
{
    version     2.0;
    format      ascii;
    class       scalarField;
    location    "0.0013";
    object      T;
}
// * * * * * * * * * * * * * * * * * * * * * * * * * * * * * * * * * * * * * //


44454
(
613.889
548.26
541.847
535.367
528.91
522.831
516.846
510.717
504.859
499.41
495.001
490.743
487.163
484.378
482.818
481.186
479.891
595.586
587.594
579.5
571.314
563.068
554.762
546.765
538.857
530.613
522.268
513.862
505.497
497.568
489.565
481.528
473.759
466.681
460.121
659.216
453.755
650.168
733.918
447.93
640.934
725.205
443.321
631.503
716.701
438.539
621.964
707.918
433.856
612.198
698.048
430.319
602.41
688.263
592.949
677.473
583.498
666.543
3.91153e+180
655.761
4.72822e+222
647.238
554.02
636.502
544.023
534.262
524.833
515.299
786.908
505.387
781.17
495.415
775.019
485.651
3.91153e+180
476.358
715.443
761.667
466.724
706.767
754.328
457.151
697.649
746.523
448.109
688.178
738.042
439.805
678.452
729.461
431.357
668.516
720.35
423.316
658.262
710.61
416.511
647.783
700.544
3.91153e+180
637.035
689.232
401.797
625.935
676.82
395.821
3.91153e+180
663.721
603.154
648.544
591.587
631.818
580.397
784.257
613.915
1.19354e+190
785.421
594.522
805.189
557.855
2.06697e+161
574.287
801.494
546.242
786.903
550.145
2.06685e+161
534.631
2.06697e+161
792.684
2.06697e+161
787.454
787.572
512.155
787.38
782.008
501.242
762.619
787.065
775.972
489.83
755.105
786.507
6.75387e+87
478.329
2.06697e+161
785.659
762.993
467.378
738.597
784.467
756.001
456.53
729.799
6.75387e+87
9.09155e+223
2.06697e+161
720.627
780.542
741.115
434.559
710.903
733.577
424.699
700.726
726.019
414.569
690.159
718.354
405.225
679.137
784.074
710.386
396.344
667.71
6.75387e+87
702.28
386.63
656.012
788.11
693.112
378.948
4.2695e+257
751.032
789.789
683.013
828.914
631.727
2.06697e+161
791.164
9.09155e+223
4.2695e+257
618.863
752.183
792.271
659.59
821.898
605.73
752.457
793.114
645.31
818.128
592.464
752.544
793.698
628.86
814.133
4.2695e+257
752.285
9.09155e+223
9.09155e+223
809.884
566.072
751.625
793.861
584.647
805.233
571.488
553.136
812.874
750.625
793.679
560.068
800.27
703.184
570.985
646.533
539.753
9.09155e+223
749.311
793.253
536.574
794.841
702.073
570.447
645.359
526.498
799.154
747.649
792.626
788.894
701.878
589.207
569.893
644.123
513.271
792.018
745.643
791.87
765.75
782.425
701.612
588.421
569.305
544.975
642.841
500.696
2.06697e+161
743.289
9.09155e+223
768.916
775.529
701.721
587.666
568.691
544.747
641.51
621.336
488.022
777.227
9.09155e+223
789.863
771.686
768.288
700.273
586.949
578.394
568.067
544.524
640.138
620.966
474.966
769.283
737.415
9.09155e+223
774.295
760.757
698.168
586.257
576.863
567.413
544.304
638.724
620.562
2.06697e+161
760.982
9.09155e+223
786.655
776.803
752.924
695.65
585.591
575.383
566.732
544.083
637.268
620.091
2.06697e+161
752.37
9.09155e+223
9.09155e+223
744.785
693.626
584.939
573.968
566.059
543.861
635.771
619.541
2.06697e+161
743.299
724.905
781.304
736.477
691.914
584.292
572.609
565.369
543.639
634.225
618.916
425.002
733.583
719.611
783.19
728.246
690.286
583.627
571.279
711.696
564.664
543.413
521.986
632.609
618.212
578.169
413.794
9.09155e+223
713.813
784.778
720.196
885.694
688.53
582.925
569.996
708.948
563.854
543.184
521.597
630.889
617.43
599.644
577.282
572.798
402.071
9.09155e+223
707.552
752.839
786.041
712.118
878.876
686.381
582.179
568.739
580.389
706.261
562.903
542.917
521.216
629.084
616.585
591.56
598.1
606.964
576.342
571.076
391.517
701.907
700.856
754.045
786.96
704.444
872.413
684.307
581.396
567.509
577.694
703.604
725.159
561.922
542.621
520.777
627.242
615.707
591.3
596.552
605.769
575.333
569.364
381.134
690.2
9.09155e+223
754.917
787.504
696.993
866.233
682.064
580.618
566.333
575.144
700.981
723.142
560.896
542.321
520.339
625.383
614.848
591.086
595.003
604.563
574.327
567.732
371.043
9.09155e+223
755.536
787.663
688.87
860.427
679.648
733.254
579.852
565.219
572.717
698.384
721.13
559.84
542.02
519.924
623.584
614.012
590.903
593.449
603.345
573.349
566.193
362.193
665.223
755.897
787.445
680.48
854.872
677.193
732.724
579.095
564.19
570.422
695.799
719.107
558.866
541.735
519.596
621.811
613.172
590.735
591.896
602.106
572.41
564.778
652.096
9.09155e+223
786.829
671.487
849.59
674.686
731.78
578.424
563.26
568.223
693.219
717.084
557.927
541.474
519.326
620.039
612.32
590.579
590.336
600.845
571.592
563.51
9.09155e+223
755.718
785.809
661.989
844.477
672.055
730.705
577.823
562.413
566.125
731.464
690.643
715.049
556.992
541.195
519.068
618.252
611.444
590.413
588.77
599.562
570.873
562.344
624.696
9.09155e+223
1.49258e+195
651.978
839.441
669.402
729.541
577.269
561.632
564.109
699.854
729.314
688.065
712.998
556.027
540.889
518.814
616.43
610.539
590.224
587.2
598.259
570.237
561.233
576.848
610.22
856.8
754.268
782.505
9.09155e+223
3.94662e+180
9.09155e+223
666.499
728.395
576.751
560.909
562.182
697.601
727.185
685.476
710.94
732.42
555.014
540.564
518.567
614.582
609.589
590.001
585.634
596.933
569.605
560.174
574.072
595.435
851.376
9.09155e+223
9.09155e+223
766.006
627.992
829.338
663.225
727.191
576.241
560.232
560.338
695.363
725.073
682.862
708.86
730.1
553.901
540.193
518.313
612.709
608.585
589.744
584.071
595.582
568.961
559.153
571.383
580.372
845.184
9.09155e+223
777.394
770.773
614.654
824.056
659.698
726.861
575.713
559.591
558.566
693.127
722.976
680.234
706.76
727.819
552.75
539.792
518.054
610.808
607.525
589.458
582.515
594.207
568.3
558.165
568.789
565.464
838.448
749.761
774.126
775.309
600.719
818.453
655.945
727.016
575.173
558.985
556.866
512.329
690.892
720.865
677.589
704.631
725.578
551.6
539.341
517.802
608.869
606.413
589.145
580.97
592.806
567.629
557.209
566.274
551.011
831.269
747.317
770.372
779.607
583.485
812.465
652.085
725.842
574.628
558.405
555.242
511.022
688.649
718.7
674.922
702.458
723.366
550.459
538.861
517.55
606.888
605.26
588.807
579.437
591.376
566.946
556.267
563.833
535.897
823.717
9.09155e+223
758.745
783.547
805.951
648.237
723.953
574.067
557.847
553.685
509.811
686.38
716.484
747.84
672.231
700.235
721.167
549.342
538.361
517.316
604.897
604.06
588.445
577.913
589.914
566.241
555.339
561.492
520.783
9.09155e+223
741.206
761.344
787.074
798.91
721.681
573.521
557.312
552.209
508.672
684.081
714.205
745.048
669.516
697.949
718.978
548.261
537.853
517.097
602.903
602.822
588.051
576.419
588.44
565.533
554.435
559.235
505.771
9.09155e+223
9.09155e+223
756.099
790.16
791.289
719.087
572.961
556.801
550.791
507.593
681.742
711.83
742.347
666.767
695.591
716.775
547.239
537.338
516.897
600.904
601.546
587.626
574.968
586.959
564.831
553.555
557.063
491.607
9.09155e+223
726.325
733.298
750.419
792.792
783.181
716.1
572.394
556.312
549.439
506.568
679.338
709.384
739.767
663.977
693.151
714.554
546.271
536.806
516.709
598.883
600.23
587.172
573.559
585.483
564.137
552.697
554.983
476.948
791.242
721.585
728.506
744.198
795.13
774.621
713.455
571.807
555.836
548.139
505.597
676.855
706.928
737.303
661.136
690.62
712.377
545.365
536.266
516.525
596.865
598.874
586.659
572.202
584.013
551.867
553.005
462.183
782.689
716.1
723.141
737.396
797.257
765.594
985.43
710.95
571.191
555.358
546.885
504.67
704.581
734.936
658.245
688.062
710.271
544.49
535.698
516.353
594.814
597.467
586.079
570.919
582.547
551.072
551.135
448.145
774.045
710.031
717.094
729.965
799.105
756.086
978.074
708.36
570.518
554.859
545.668
503.783
702.292
732.649
655.289
685.475
708.214
543.597
535.098
516.172
592.686
595.993
585.436
569.713
581.085
550.32
549.372
9.09155e+223
765.006
703.398
710.258
721.962
800.644
746.119
970.07
705.509
569.752
554.322
544.497
502.928
700.042
730.426
652.315
682.933
706.195
542.667
534.39
515.982
590.508
594.428
584.72
568.578
579.626
549.547
547.704
420.138
755.649
696.347
9.09155e+223
778.811
713.408
801.9
736.134
961.552
702.394
759.676
568.905
553.731
543.35
502.104
697.822
728.228
649.394
680.433
704.221
541.679
533.509
515.748
588.238
592.779
583.944
567.514
578.17
548.714
546.086
407.458
745.932
688.547
694.489
780.152
705.434
802.706
726.258
952.48
698.903
761.635
567.95
553.087
542.216
501.31
695.63
726.045
646.579
677.959
702.284
540.665
532.576
515.482
585.848
591.094
583.159
566.517
576.72
547.808
544.479
394.517
735.64
680.93
685.591
781.218
699.002
803.114
716.697
943.07
695.286
763.035
566.934
552.449
541.129
693.451
723.887
643.841
675.502
700.358
539.71
531.577
515.218
583.504
589.43
582.413
565.584
575.273
546.905
542.961
2.06697e+161
724.78
674.313
614.831
676.072
781.995
692.461
803.113
707.629
933.522
691.442
763.92
565.911
551.815
540.097
691.277
721.737
641.179
673.055
698.443
538.825
530.524
514.947
581.293
587.791
581.679
573.828
546.018
541.531
371.129
2.06697e+161
9.09155e+223
614.74
666.082
782.536
802.714
699.061
923.876
687.418
764.426
564.982
551.185
539.167
689.102
719.6
638.581
670.615
696.533
538.123
529.581
514.736
579.193
586.151
580.942
572.385
545.17
540.218
2.06697e+161
701.43
660.174
614.443
655.768
782.862
801.908
690.366
914.33
683.191
764.627
564.121
550.644
538.332
686.916
717.493
636.051
668.177
694.621
537.559
528.691
514.532
577.203
584.499
580.186
570.936
544.421
539.045
688.542
9.09155e+223
613.941
830.346
830.346
830.346
645.11
782.952
800.681
760.579
682.515
905.047
678.696
764.618
550.164
537.578
684.721
715.411
633.571
665.738
692.707
537.117
527.803
514.317
575.313
582.832
579.4
569.487
543.75
537.968
675.039
613.229
831.771
2.06697e+161
831.771
9.09155e+223
782.339
799.031
766.694
674.524
896.178
673.879
764.493
549.729
536.884
682.532
713.353
631.139
663.294
690.79
536.774
526.899
514.079
573.487
581.136
578.585
568.039
543.135
536.944
2.06697e+161
891.165
612.302
832.978
832.978
832.978
782.36
796.917
772.813
665.264
887.75
668.698
764.201
549.305
536.247
680.343
711.325
628.748
660.838
688.867
536.493
525.982
513.824
571.714
579.404
577.733
566.592
542.514
535.964
646.132
9.09155e+223
9.09155e+223
833.833
833.833
833.833
781.605
794.357
779.015
655.429
879.739
663.147
764.308
548.889
535.653
678.143
709.31
626.396
658.364
686.929
536.253
525.053
513.537
569.977
577.628
576.834
565.15
541.882
535.017
2.06697e+161
881.196
609.806
834.243
834.243
834.243
780.499
791.301
785.311
645.32
872.167
657.175
764.051
548.467
535.095
675.928
707.28
624.076
655.867
684.962
536.072
524.114
513.217
568.286
575.809
575.885
563.715
541.237
534.104
615.255
2.06697e+161
9.09155e+223
4.2695e+257
834.343
834.343
779.016
787.783
791.499
633.833
864.933
650.641
762.995
548.028
534.572
673.693
705.222
621.795
653.349
682.963
535.905
523.173
512.857
566.621
573.957
574.89
562.282
540.571
533.218
599.119
9.09155e+223
761.436
606.527
834.195
834.195
834.195
777.137
783.779
797.434
623.879
857.903
643.573
761.713
547.566
534.071
671.435
703.12
650.807
680.914
535.777
522.232
512.468
564.979
572.084
573.854
560.858
539.895
532.344
582.65
9.09155e+223
9.09155e+223
604.593
833.914
833.914
833.914
774.722
779.256
802.946
613.568
850.881
635.977
760.221
547.088
533.599
669.157
700.959
648.231
678.809
535.724
521.312
512.051
563.402
570.2
572.775
559.443
539.203
531.486
2.06697e+161
858.708
9.09155e+223
602.444
9.09155e+223
833.602
833.602
771.656
774.108
807.963
601.441
843.704
627.984
758.501
546.601
533.148
666.849
698.735
645.624
676.626
535.743
520.421
511.604
561.907
568.294
571.657
558.061
538.512
530.649
550.409
851.855
760.556
599.946
833.079
833.079
833.079
862.04
768.045
768.311
812.412
590.737
836.23
619.693
756.55
546.101
532.715
664.487
696.399
642.978
674.37
535.832
519.564
511.138
560.49
566.386
570.496
556.714
537.816
529.836
534.057
844.332
758.987
9.09155e+223
3.94662e+180
9.09155e+223
831.887
854.764
763.888
761.933
816.241
828.294
1070.14
611.132
754.337
545.605
532.301
662.063
694.04
640.281
672.031
535.996
518.75
510.654
559.158
564.475
569.294
555.409
537.119
529.042
517.775
9.09155e+223
756.525
829.952
829.952
829.952
846.657
759.139
754.959
819.459
819.766
1067.32
602.478
752.269
545.08
531.902
659.534
691.783
637.528
669.619
536.211
517.985
510.152
557.912
562.552
568.045
554.15
536.434
528.269
2.06697e+161
827.909
9.09155e+223
827.682
827.682
827.682
820.472
820.472
820.472
837.717
753.763
747.38
822.07
810.683
1063.94
593.785
750.177
544.507
531.504
657.002
689.573
634.719
667.173
536.418
517.239
509.628
556.737
560.606
566.739
552.956
535.755
527.53
486.342
819.091
2.06697e+161
825.093
9.09155e+223
825.093
823.407
823.407
823.407
827.959
747.615
739.003
824.269
801.151
1059.97
585.889
747.836
543.84
531.089
654.603
687.4
631.831
664.762
536.601
516.479
509.063
555.6
558.624
565.36
551.832
535.054
526.825
470.329
9.09155e+223
742.839
822.122
822.122
822.122
825.965
825.965
825.965
817.554
740.66
729.804
826.185
791.066
1055.35
578.317
745.153
783.901
543.077
530.638
652.285
685.255
628.957
662.385
536.756
515.671
508.392
554.474
556.577
563.886
550.774
534.297
526.083
454.322
800.834
735.757
827.978
827.978
827.978
806.553
732.905
819.445
719.784
827.775
780.457
1050.11
742.156
788.049
542.239
530.129
650.03
683.128
626.195
660.036
536.876
514.783
507.596
553.343
554.462
562.324
549.778
533.473
525.281
577.409
2.06697e+161
727.589
9.09155e+223
829.581
829.581
829.581
794.98
724.3
821.004
709.009
829.002
769.452
1044.16
738.812
791.61
541.25
529.561
647.832
681.014
623.52
657.705
537.018
513.904
506.772
552.212
552.236
560.749
548.847
532.558
524.402
423.587
782.168
718.774
640.647
830.839
830.839
830.839
782.705
714.839
822.4
697.623
829.856
759.232
1037.51
735.094
794.603
540.22
528.99
645.689
678.905
620.912
655.393
537.196
513.066
505.932
551.13
550.08
559.216
547.978
531.601
523.531
408.747
9.09155e+223
708.919
639.874
832.044
832.044
832.044
769.809
704.593
823.574
687.388
830.293
802.195
1030.06
731.085
797.046
539.207
528.416
643.601
676.796
618.374
653.092
537.412
512.28
505.101
748.25
748.25
748.25
550.109
548.059
557.697
547.168
530.648
522.677
858.657
851.545
394.607
9.09155e+223
699.011
638.905
833.148
833.148
833.148
756.485
693.664
824.508
677.61
830.325
736.245
1021.75
726.717
799.042
538.322
527.887
641.562
674.679
615.899
650.787
537.714
511.647
504.352
749.604
749.604
749.604
549.183
546.154
556.175
546.418
529.714
521.868
858.462
852.749
2.06697e+161
752.537
9.09155e+223
637.758
834.061
834.061
834.061
742.843
682.096
825.276
667.789
829.965
726.131
1012.5
721.993
800.667
537.554
527.434
639.559
672.559
613.487
648.482
538.134
511.125
503.636
750.922
750.922
750.922
548.413
544.359
554.637
619.059
545.719
528.882
521.15
595.171
746.277
858.176
854.329
2.06697e+161
741.787
679.265
636.408
834.72
834.72
834.72
728.773
669.955
825.896
657.949
829.221
716.557
1002.61
716.867
802.021
536.874
527.017
537.482
637.602
670.438
611.13
646.168
758.78
758.78
758.78
538.653
510.702
502.914
752.195
752.195
752.195
547.781
542.641
553.072
619.02
545.055
528.124
520.501
599.224
751.378
858.044
856.335
2.06697e+161
730.263
935.252
668.562
634.759
835.122
835.122
835.122
714.402
657.368
826.317
647.987
828.06
777.868
707.369
992.014
711.335
803.189
536.258
526.621
768.622
537.908
646.234
635.684
668.323
608.83
643.842
646.879
760.261
760.261
760.261
539.218
510.356
502.186
753.413
753.413
753.413
547.237
540.966
551.477
618.968
544.423
527.431
519.888
603.653
756.786
858.514
858.761
970.734
718.347
929.948
9.09155e+223
632.783
835.342
835.342
835.342
644.326
826.511
637.759
826.539
786.061
699.127
980.898
705.394
804.422
535.696
526.247
770.454
538.335
647.009
633.803
666.203
606.579
641.503
648.413
632.234
761.628
761.628
761.628
539.78
510.048
501.447
754.53
754.53
754.53
669.754
546.728
539.315
549.85
618.917
543.817
859.296
526.786
519.261
607.89
762.157
1432.79
1277.18
859.401
861.993
969.798
705.531
924.49
645.081
630.462
835.356
835.356
835.356
630.775
826.436
824.581
794.492
690.439
969.296
698.994
805.189
535.147
525.86
772.13
538.743
647.761
631.945
664.062
604.357
639.142
649.939
633.352
762.89
762.89
762.89
540.32
509.755
500.692
755.537
755.537
755.537
671.594
546.246
537.691
548.182
618.873
543.228
859.079
526.159
518.611
1037.02
612.062
768.237
1577.14
1435.45
1276.69
860.8
867.401
970.017
1238.37
691.776
918.861
632.501
785.459
627.817
835.242
835.242
835.242
616.79
826.093
822.196
802.896
682.407
957.502
692.127
805.334
534.604
525.451
773.777
539.123
648.514
630.119
661.903
602.177
636.758
651.437
634.463
764.045
764.045
764.045
540.848
509.506
499.931
756.451
756.451
756.451
673.37
591.715
545.802
536.103
546.485
618.845
542.656
858.851
525.514
517.941
1084.44
1074.93
1034.54
616.794
776.548
1565.85
1432.77
1276.28
862.238
798.495
972.648
1268.23
1143.03
1238.13
677.308
913.077
787.28
624.869
835.126
835.126
835.126
602.476
825.471
819.379
810.903
672.515
945.959
684.777
804.857
534.067
525.029
775.433
539.488
649.302
628.32
659.728
722.556
722.556
722.556
600.039
634.355
652.891
635.559
765.095
765.095
765.095
541.368
509.299
499.167
757.294
757.294
757.294
675.088
592.98
545.398
534.556
544.754
618.808
542.097
858.6
524.863
517.26
1080.59
1073.71
1031.79
1553.44
1426.35
1276.19
2231.7
2050.24
801.466
979.283
1253.92
1447.56
1239.5
662.105
907.135
788.852
2.06697e+161
834.838
834.838
834.838
910.041
587.951
824.5
816.087
818.507
661.076
934.744
676.914
804.031
533.51
524.575
777.025
539.858
650.104
626.54
657.533
724.32
724.32
724.32
597.931
631.924
654.289
636.649
766.062
766.062
766.062
541.873
509.134
498.404
758.063
758.063
758.063
676.741
594.287
545.035
533.043
543
618.747
541.55
858.337
524.201
516.563
1091
1073.51
1029.86
1418.6
1276.09
2256.95
2117.64
805.331
990.489
1232.79
1342.12
1227.29
646.257
901.079
790.145
618.209
834.006
834.006
834.006
908.186
823.165
812.196
825.603
648.095
924.024
668.424
802.967
532.944
524.082
778.541
540.237
650.923
624.772
655.312
726.044
726.044
726.044
595.856
629.457
655.636
637.728
766.953
766.953
766.953
542.413
509.035
497.655
758.76
758.76
758.76
678.332
595.629
544.719
531.592
541.234
618.666
594.925
541.02
858.06
523.517
515.854
1091.26
1070.8
1028.39
1407.72
1277.76
2285.25
2172.59
809.29
1240.06
1236.56
629.785
9.09155e+223
791.068
614.571
701.297
832.666
832.666
832.666
823.411
823.411
823.411
905.526
821.403
660.833
807.816
832.168
635.386
913.806
659.385
801.697
532.398
523.568
779.982
540.629
512.31
651.76
623.017
653.055
727.745
727.745
727.745
593.815
626.948
656.938
615.102
638.81
767.832
767.832
767.832
686.675
542.992
509.001
496.923
759.429
759.429
759.429
679.862
597.033
544.491
530.213
539.457
618.57
595.741
540.531
857.801
522.84
515.141
1100.48
1069.32
1025.24
974.672
1397.29
1278.05
2291.68
2203.47
813.179
960.556
1237.1
1236.21
612.599
888.858
791.594
610.768
701.18
830.91
830.91
830.91
828.354
828.354
828.354
901.755
819.169
660.354
802.967
838.103
623.295
904.134
1119.44
649.918
800.167
531.87
523.033
781.33
541.04
512.579
652.617
621.273
650.753
729.452
729.452
729.452
591.803
624.399
658.195
618.057
639.903
768.712
768.712
768.712
688.551
543.61
509.021
496.218
760.102
760.102
760.102
681.392
598.527
544.36
528.905
537.663
618.464
596.527
540.082
857.564
522.171
514.425
1104.13
1067.82
1024.07
970.575
1389.94
1278.12
2189.98
817.104
831.622
1240.98
1235.55
594.882
9.09155e+223
791.519
606.786
700.609
828.633
828.633
828.633
832.677
832.677
832.677
897.02
816.387
659.522
797.721
843.416
610.526
894.861
1119.46
640.063
798.463
531.344
522.466
782.573
733.685
541.478
512.874
653.496
619.527
648.383
731.176
731.176
731.176
589.818
621.801
659.412
620.98
640.991
769.603
769.603
769.603
690.423
544.265
509.109
495.543
760.785
760.785
760.785
682.925
600.109
544.323
527.672
535.862
618.345
597.286
539.674
857.331
521.509
513.714
1113.67
1066.43
1023.21
967.999
1385.26
1278.49
1167.74
2147.77
818.32
827.88
1236.53
1234.9
576.863
9.09155e+223
790.928
602.61
699.536
825.844
825.844
825.844
836.426
836.426
836.426
891.119
813.075
658.207
791.986
848.1
598.921
885.917
1119.26
629.851
796.549
530.795
521.838
783.708
736.524
541.961
513.208
654.409
653.163
617.773
645.951
732.912
732.912
732.912
587.862
619.143
660.599
623.865
642.076
770.515
770.515
770.515
692.299
544.954
509.232
494.904
761.479
761.479
761.479
684.46
601.769
544.384
526.509
534.057
618.215
598.008
539.31
857.103
520.846
513
1119.33
1065.05
1022.34
967.275
1382.76
1280.36
1163.56
1601.54
1579.99
1947.77
2123.81
2127.08
820.438
831.588
1235.44
1233.57
9.09155e+223
869.911
789.944
598.038
697.928
822.798
822.798
822.798
839.462
839.462
839.462
883.763
809.184
656.415
785.711
852.128
586.515
877.056
1118.8
619.392
794.474
530.207
521.15
784.726
739.405
542.483
513.583
655.348
653.785
616.014
643.607
734.659
734.659
734.659
585.935
616.423
661.76
626.711
643.18
771.459
771.459
771.459
694.186
605.079
545.646
509.344
494.259
762.193
762.193
762.193
686.003
603.507
544.552
525.407
532.224
618.077
598.694
538.984
856.896
520.17
512.285
1124.41
1063.47
1022.11
967.288
1381.36
1283.92
1161.03
1587.97
1575.99
1805.61
2254.51
1482.33
2144.69
1563.91
824.261
833.69
1236.93
1236.28
1221.05
542.029
863.18
788.27
592.912
695.793
819.121
819.121
819.121
841.975
841.975
841.975
879.561
2247.33
804.665
654.089
778.706
855.514
867.963
1118.03
608.423
792.097
800.409
529.577
520.406
785.639
742.302
543.026
513.977
656.315
654.428
614.321
641.348
736.42
736.42
736.42
666.735
584.026
613.622
662.898
629.515
644.293
604.023
772.442
772.442
772.442
696.092
607.364
546.297
509.43
493.597
762.933
762.933
762.933
687.558
605.325
544.839
524.336
530.355
617.934
599.343
698.217
538.712
856.66
582.758
519.477
511.525
1131.3
1061.43
1021.2
967.523
1380.08
1287.35
1158.92
1576.37
1562.92
1669.13
2357.9
1588.34
2186.26
1641.67
829.083
836.748
1235.83
1237.9
1168.86
524.512
855.618
785.774
587.262
693.198
814.575
814.575
814.575
844.154
844.154
844.154
872.675
865.091
799.584
651.156
771.084
858.268
850.89
858.518
1116.91
597.222
789.378
807.304
528.894
519.585
786.507
745.197
543.594
514.373
657.307
655.098
612.117
612.694
639.146
738.166
738.166
738.166
668.906
582.14
610.914
664.02
632.263
645.403
605.316
773.414
773.414
773.414
697.963
609.701
546.942
509.482
492.898
763.704
763.704
763.704
689.135
607.227
545.237
523.267
528.436
617.791
599.959
698.216
538.514
856.383
582.559
518.754
510.707
1134.2
1058.12
1020.23
966.726
1378.89
1290.61
1157.22
1560.88
1591.97
2283.15
1659.93
2224.49
1812.99
838.877
841.05
1232.01
1250.87
1138.82
507.213
9.09155e+223
782.406
581.136
670.576
689.936
809.505
809.505
6.22655e+228
845.791
845.791
845.791
863.816
853.793
793.494
854.281
762.684
860.574
854.738
848.645
1115.36
586.448
786.315
813.364
528.155
518.666
787.375
748.069
544.191
514.767
658.322
655.805
612.297
611.171
637
739.864
739.864
739.864
671.1
580.325
608.294
665.116
634.933
646.509
606.62
774.379
774.379
774.379
699.801
612.077
547.612
509.493
492.143
764.466
764.466
764.466
690.707
609.188
545.708
522.197
526.438
617.649
600.54
698.214
538.389
856.079
582.426
517.998
509.815
1134.49
1048.41
1019.63
965.342
1376.74
1294.29
1155.89
1560.09
1558.64
2174.8
1749.18
2004.41
849.494
843.572
1216.9
1400.7
1143.06
9.09155e+223
838.965
778.326
574.691
670.645
685.862
803.812
803.812
803.812
846.795
846.795
846.795
853.853
841.217
786.636
855.644
753.422
862.542
858.309
838.289
1113.39
575.206
782.896
818.6
527.352
517.625
788.211
750.94
544.829
515.161
659.353
656.574
612.605
609.754
634.896
673.332
582.49
578.594
605.748
666.171
637.529
607.961
775.34
775.34
775.34
701.61
614.483
548.318
509.529
491.42
765.221
765.221
765.221
692.245
611.164
546.3
521.135
524.38
617.492
601.055
698.217
538.337
855.739
582.31
517.194
508.842
1698.65
1021.77
1018.23
964.704
1374
1296.93
1154.89
1559.9
1526.17
2134.86
1830.16
849.536
1186.32
1515.95
1144.57
473.49
830.187
9.09155e+223
568.062
670.479
681.022
797.453
797.453
797.453
847.294
847.294
847.294
843.255
827.673
778.954
856.881
743.409
864.17
861.626
827.26
1110.83
564.661
779.107
823.243
526.572
516.582
789.013
753.795
545.515
515.555
660.376
657.409
613.086
608.421
632.833
675.596
582.759
576.991
603.269
667.186
640.063
609.338
776.302
776.302
776.302
703.39
616.903
549.061
509.598
490.718
765.97
765.97
765.97
693.749
613.15
547.013
520.124
522.436
617.307
601.492
698.221
538.351
855.372
582.16
516.366
507.85
1724.98
994.292
1017.21
964.155
1371.23
1300.37
1153.91
1550.93
1494.41
1415.18
2170.7
1958.79
854.221
1161.33
1499.39
1145.18
2.06697e+161
821.165
9.09155e+223
561.388
670.085
675.471
790.498
790.498
790.498
847.502
847.502
847.502
832.755
813.255
770.453
857.967
732.359
865.435
864.676
815.572
1107.66
553.742
774.961
827.318
525.84
515.623
789.776
756.616
546.241
515.952
661.428
658.3
613.742
607.183
630.818
677.896
623.13
583.154
575.511
600.845
668.166
642.538
610.743
777.259
777.259
777.259
705.135
619.325
549.843
509.701
490.067
766.706
766.706
766.706
695.215
615.143
547.839
519.166
520.603
617.091
601.864
698.222
538.43
854.992
582.011
553.628
515.565
506.868
1751.13
988.407
1016.13
963.6
1368.27
1302.2
1152.8
1550.13
1475.7
1475.58
2037.42
862.003
1146.42
1290.55
1145.44
440.831
812.107
758.776
554.742
669.464
669.217
783.128
783.128
783.128
847.639
847.639
847.639
821.016
797.943
761.106
858.871
720.654
866.299
867.427
803.363
1103.81
545.198
770.465
830.843
525.172
514.788
790.521
759.382
547.011
516.362
494.188
662.534
659.23
654.874
614.564
606.046
628.84
680.232
625.185
583.684
574.15
598.474
669.118
644.983
612.167
778.214
778.214
778.214
706.841
621.735
550.669
509.879
489.521
767.428
767.428
767.428
696.644
617.138
548.77
518.291
518.868
616.847
602.173
698.217
538.563
722.949
581.9
553.259
514.791
505.925
1782.98
994.779
1015.05
963.006
1364.24
1299.98
1151.8
1548.19
1457.93
1489.26
2079.3
2206.7
1152.84
871.785
1136.2
1209.57
1144.87
424.318
803.002
9.09155e+223
668.622
662.793
774.716
774.716
774.716
848.502
847.721
847.721
807.955
781.57
750.882
859.578
709.467
866.756
869.848
790.964
1099.28
765.629
833.89
524.554
514.026
791.241
762.089
547.847
516.794
494.352
663.655
660.193
657.718
615.556
605.006
626.906
682.601
627.36
584.365
572.905
596.151
670.042
647.443
608.589
613.6
779.171
779.171
779.171
708.506
624.131
551.534
510.176
489.059
768.131
768.131
768.131
698.034
619.131
549.799
517.558
517.214
616.577
602.419
574.359
698.21
565.933
538.746
724.493
581.828
552.918
514.07
505.057
1808.46
997.462
1013.85
962.451
1360.7
1295.33
1151.07
1533.55
1441.45
1521.13
2137.22
2197.18
1146.33
883.502
1127.9
1188.1
1143.7
409.955
793.854
738.475
667.555
656.314
765.642
765.642
765.642
847.752
847.752
847.752
794.132
764.445
739.76
860.125
698.366
866.781
871.927
778.538
1094.05
760.455
836.527
523.977
513.316
791.892
764.757
548.741
517.252
494.546
664.82
661.175
660.725
616.719
604.065
625.009
684.997
629.675
585.197
571.773
593.88
671.01
649.923
612.941
615.045
780.125
780.125
780.125
710.128
626.509
552.437
510.574
488.685
768.814
768.814
768.814
699.389
621.118
550.915
516.958
515.626
616.289
602.65
575.57
698.2
567.022
538.977
725.991
581.797
552.607
530.453
513.419
504.25
1711.04
1868.85
998.706
1011.92
961.37
1357.12
1290.67
1150.62
1519.77
1427.3
1549.95
2197.21
2158.36
1140.69
893.014
1121.25
1160.04
1138.78
2.06697e+161
784.593
3.94662e+180
727.175
666.278
755.87
755.87
755.87
847.823
847.823
847.823
746.804
727.774
860.555
687.283
866.392
873.636
766.537
1088.02
754.905
838.95
538.676
523.436
512.656
767.379
549.693
517.738
494.771
482.216
666.029
662.185
663.89
618.045
603.225
623.142
687.424
632.134
586.173
570.746
591.657
672.03
652.446
617.309
616.504
711.709
628.866
553.359
511.017
488.369
769.478
769.478
769.478
700.71
623.098
552.085
516.446
514.077
616.043
602.887
576.812
698.187
663.777
568.168
539.249
727.463
552.328
529.986
512.826
503.499
1668.96
1906.34
1002.98
1010.73
959.287
1352.79
1285.83
1150.51
1506.64
1423.71
1569.65
2139.72
1135.04
904.21
1115.97
1158.31
1139.7
382.313
774.821
974.902
715.107
806.585
664.8
745.391
745.391
745.391
847.953
847.953
847.953
728.805
715.05
860.871
676.095
865.621
801.079
875.046
754.857
1081.1
749.004
841.062
538.304
522.921
512.039
769.944
730.628
550.708
518.251
495.023
482.133
663.233
667.212
619.521
602.47
621.3
689.881
634.714
587.275
569.822
589.476
655.013
621.714
617.977
713.244
631.175
554.298
511.461
488.094
770.128
770.128
770.128
702
625.07
553.299
515.978
512.562
615.846
603.135
578.083
698.212
664.163
569.371
539.557
728.911
552.091
529.581
512.279
502.796
1664.12
1772.71
1006.15
1009.43
957.418
1280.8
1150.58
1494.6
1421.41
1557.42
1280.5
2147.78
1358.41
1130.31
1111.36
1158.08
1136.76
370.252
9.09155e+223
968.699
702.649
808.206
663.116
847.912
847.912
847.912
710.427
701.895
861.067
664.574
864.357
811.512
876.192
744.114
1073.28
742.734
842.636
537.974
522.412
511.445
772.446
734.21
518.787
495.299
482.046
664.329
666.196
670.668
621.141
601.786
619.487
692.338
637.391
588.489
568.995
587.333
657.556
626.155
619.462
714.718
633.41
555.271
511.9
487.853
703.253
626.991
554.562
515.546
511.077
615.697
603.398
579.39
698.303
664.535
570.631
539.897
730.341
551.944
529.239
511.761
502.102
1675.17
1010.77
1007.44
955.533
1275.42
1150.74
1489.13
1419.18
1513.15
2379.4
1279.25
2168.35
1422.48
1126.27
1158.51
1136.6
2.06697e+161
962.252
9.09155e+223
809.967
661.219
847.473
847.473
847.473
691.791
688.084
861.116
652.814
862.671
821.842
876.949
734.665
1064.57
736.087
843.621
537.638
521.887
510.834
774.88
737.889
519.336
495.588
481.95
665.471
667.221
674.261
622.948
601.194
617.7
694.772
640.153
589.809
568.257
585.228
660.066
630.641
620.959
716.108
635.574
556.298
512.334
487.643
704.436
628.863
555.877
515.154
509.623
615.601
603.68
580.724
698.465
664.903
571.935
540.264
731.743
551.889
528.922
511.244
501.396
1684.49
1017.2
1005.25
953.772
1270.27