/*--------------------------------*- C++ -*----------------------------------*\
| =========                 |                                                 |
| \\      /  F ield         | OpenFOAM: The Open Source CFD Toolbox           |
|  \\    /   O peration     | Version:  2.1.1                                 |
|   \\  /    A nd           | Web:      www.OpenFOAM.org                      |
|    \\/     M anipulation  |                                                 |
\*---------------------------------------------------------------------------*/
FoamFile
{
    version     2.0;
    format      ascii;
    class       vectorField;
    location    "0.0013";
    object      U;
}
// * * * * * * * * * * * * * * * * * * * * * * * * * * * * * * * * * * * * * //


44454
(
(-0.574423 -0.0225962 0.0205456)
(21.9143 -1.37959 -1.24944)
(21.8397 -1.34529 -1.21399)
(21.7597 -1.30534 -1.17271)
(21.6786 -1.25975 -1.12526)
(21.6514 -1.2068 -1.06642)
(21.6089 -1.15297 -1.00586)
(21.5324 -1.09703 -0.944864)
(21.4547 -1.03715 -0.880699)
(21.3769 -0.972615 -0.810201)
(21.3751 -0.903071 -0.727765)
(21.2981 -0.848269 -0.663029)
(21.2016 -0.796288 -0.603827)
(21.0945 -0.746246 -0.550014)
(21.0646 -0.691553 -0.489274)
(20.9146 -0.656556 -0.460297)
(20.7098 -0.627826 -0.446203)
(22.4564 -1.58027 -1.45652)
(22.4002 -1.57005 -1.43919)
(22.3315 -1.55816 -1.42218)
(22.2589 -1.54346 -1.40351)
(22.1821 -1.52571 -1.38256)
(22.1006 -1.50405 -1.35851)
(22.055 -1.47763 -1.3277)
(22.039 -1.44634 -1.29057)
(21.9641 -1.41278 -1.25439)
(21.876 -1.37554 -1.21663)
(21.7835 -1.33099 -1.17166)
(21.6959 -1.27873 -1.1185)
(21.6843 -1.21725 -1.05131)
(21.6201 -1.15733 -0.987121)
(21.5314 -1.09359 -0.921285)
(21.4371 -1.02502 -0.850273)
(21.4025 -0.947577 -0.764148)
(21.3594 -0.880087 -0.685718)
(22.9343 -1.58931 -1.56566)
(21.2469 -0.823748 -0.622839)
(22.886 -1.60053 -1.55509)
(8.90208 -0.382794 0.415748)
(21.1121 -0.771602 -0.56858)
(22.8309 -1.60709 -1.54239)
(8.6939 -0.389604 0.417645)
(21.0903 -0.707959 -0.498137)
(22.7686 -1.61181 -1.52917)
(8.47567 -0.395881 0.420033)
(20.9319 -0.669382 -0.466544)
(22.7003 -1.61425 -1.5152)
(8.23417 -0.402741 0.423361)
(20.6987 -0.638553 -0.453534)
(22.6259 -1.61325 -1.5001)
(7.96339 -0.410626 0.427816)
(20.5247 -0.598172 -0.430055)
(22.5545 -1.60959 -1.48373)
(7.65582 -0.41972 0.43363)
(22.5153 -1.60575 -1.46599)
(7.31292 -0.430837 0.440867)
(22.4958 -1.60153 -1.44793)
(6.92787 -0.444171 0.449571)
(22.4393 -1.59283 -1.42975)
(6.50828 -0.461379 0.459946)
(22.3585 -1.58002 -1.41111)
(6.05666 -0.481337 0.471776)
(22.2703 -1.5634 -1.39016)
(5.59645 -0.506309 0.484712)
(22.1747 -1.54244 -1.36621)
(22.0925 -1.51801 -1.33882)
(22.0765 -1.48565 -1.30074)
(22.0118 -1.44985 -1.26221)
(10.4215 -0.341564 0.43273)
(21.905 -1.40914 -1.22234)
(10.2937 -0.347051 0.428214)
(21.7914 -1.36061 -1.1751)
(10.1587 -0.352957 0.424441)
(21.6969 -1.30094 -1.11598)
(10.011 -0.359843 0.421696)
(21.6882 -1.22914 -1.03987)
(23.2618 -1.38516 -1.54723)
(9.85632 -0.367196 0.419501)
(21.5891 -1.16051 -0.970542)
(23.2314 -1.41788 -1.54789)
(9.69034 -0.3752 0.418017)
(21.4686 -1.08558 -0.896576)
(23.1928 -1.44907 -1.54721)
(9.51549 -0.38355 0.417159)
(21.3716 -1.00211 -0.810072)
(23.1427 -1.47799 -1.54508)
(9.33092 -0.392313 0.417015)
(21.3619 -0.915177 -0.711391)
(23.0881 -1.5074 -1.54359)
(9.13801 -0.401128 0.417357)
(21.2165 -0.852477 -0.643636)
(23.046 -1.53887 -1.54316)
(8.9335 -0.409897 0.418199)
(21.0395 -0.794096 -0.585404)
(23.021 -1.57358 -1.54502)
(8.71994 -0.4181 0.419372)
(21.0046 -0.721201 -0.507056)
(22.9838 -1.59903 -1.54102)
(8.49636 -0.425721 0.420911)
(20.7623 -0.682187 -0.483193)
(22.928 -1.61403 -1.53083)
(8.24752 -0.434063 0.423554)
(20.4646 -0.645255 -0.472518)
(22.8582 -1.62334 -1.5184)
(7.96522 -0.44351 0.427589)
(20.2041 -0.601688 -0.455905)
(22.7795 -1.62872 -1.50548)
(7.64674 -0.454393 0.433069)
(22.6932 -1.63039 -1.49112)
(7.29123 -0.466935 0.440035)
(22.6029 -1.62847 -1.47377)
(6.89145 -0.481189 0.44837)
(22.542 -1.62707 -1.45566)
(6.53573 -0.467342 -0.345728)
(6.45746 -0.498478 0.458433)
(22.5208 -1.62485 -1.44246)
(6.49017 -0.458956 -0.349181)
(5.98765 -0.519871 0.4705)
(11.1509 -0.328263 0.480181)
(22.4416 -1.61567 -1.42455)
(6.44115 -0.450883 -0.352802)
(5.50668 -0.544179 0.483487)
(11.0471 -0.331886 0.472653)
(22.3395 -1.60017 -1.40293)
(6.3895 -0.44304 -0.356505)
(5.04619 -0.573548 0.496857)
(10.9378 -0.335957 0.465353)
(22.2275 -1.58146 -1.37921)
(6.3356 -0.4354 -0.360276)
(10.8217 -0.340609 0.458346)
(22.1123 -1.55723 -1.35096)
(6.27925 -0.427972 -0.364132)
(10.6976 -0.345877 0.451705)
(22.0804 -1.52316 -1.31247)
(6.22071 -0.420738 -0.368065)
(10.5656 -0.351799 0.445519)
(22.012 -1.48351 -1.2711)
(23.4075 -1.05929 -1.42851)
(6.16004 -0.413677 -0.372081)
(10.4266 -0.358328 0.439843)
(21.8757 -1.43904 -1.22951)
(23.3987 -1.11512 -1.45257)
(6.09714 -0.406825 -0.376177)
(10.2779 -0.365669 0.43503)
(21.7275 -1.3816 -1.17658)
(23.395 -1.17631 -1.47863)
(6.03142 -0.400119 -0.380356)
(10.1198 -0.37399 0.43109)
(21.666 -1.30669 -1.10213)
(23.3876 -1.23322 -1.49864)
(5.96234 -0.393515 -0.38464)
(9.95395 -0.383077 0.427738)
(21.6002 -1.2258 -1.0207)
(23.3745 -1.28417 -1.51136)
(5.88979 -0.387067 -0.389051)
(9.77677 -0.393078 0.425118)
(21.4443 -1.14364 -0.942758)
(23.3547 -1.33035 -1.51986)
(5.81341 -0.380714 -0.393603)
(9.59296 -0.403439 0.423114)
(21.3018 -1.04991 -0.849968)
(23.3274 -1.37179 -1.5238)
(9.40052 -0.414469 0.421777)
(21.284 -0.946233 -0.735094)
(23.292 -1.41079 -1.52531)
(9.20114 -0.425501 0.420866)
(21.0821 -0.876406 -0.663073)
(23.2453 -1.44763 -1.52527)
(8.99209 -0.436341 0.420367)
(20.8899 -0.805839 -0.593775)
(23.1844 -1.48381 -1.52532)
(7.21592 -0.387832 -0.886029)
(8.77286 -0.446724 0.420238)
(20.7571 -0.732641 -0.524155)
(23.115 -1.51924 -1.52572)
(7.14562 -0.382151 -0.885003)
(8.54461 -0.455932 0.42005)
(20.3631 -0.69599 -0.519764)
(23.0636 -1.55819 -1.52828)
(7.07063 -0.376814 -0.884304)
(8.29058 -0.465347 0.420702)
(20.0853 -0.636685 -0.489615)
(23.0314 -1.59938 -1.53271)
(6.97162 -0.517124 -0.365083)
(6.99189 -0.37169 -0.883885)
(8.00394 -0.475177 0.422549)
(11.9666 -0.310799 0.547535)
(22.974 -1.6261 -1.53032)
(6.92968 -0.507851 -0.368138)
(6.90838 -0.366759 -0.88392)
(7.67953 -0.486613 0.425696)
(11.8685 -0.313233 0.538769)
(22.8866 -1.63926 -1.52109)
(6.88448 -0.498985 -0.371193)
(6.82089 -0.361982 -0.884229)
(7.31093 -0.499663 0.430668)
(11.7682 -0.315806 0.530044)
(22.7919 -1.64738 -1.50977)
(6.83617 -0.490458 -0.374252)
(6.72989 -0.35729 -0.88477)
(6.89624 -0.515891 0.437652)
(11.665 -0.318614 0.52138)
(22.6918 -1.65154 -1.49476)
(6.78531 -0.482171 -0.377322)
(6.63558 -0.352643 -0.885525)
(6.43062 -0.535473 0.446851)
(11.5572 -0.321807 0.512817)
(22.5905 -1.6528 -1.48049)
(6.73144 -0.474188 -0.38045)
(6.53752 -0.347943 -0.886536)
(5.94045 -0.559862 0.458326)
(11.445 -0.32533 0.504338)
(22.5392 -1.65411 -1.46978)
(6.67464 -0.466507 -0.383661)
(6.4363 -0.343169 -0.887714)
(5.42899 -0.587564 0.471261)
(11.3273 -0.329386 0.495905)
(22.7252 0.0427096 0.0423449)
(22.4643 -1.65019 -1.45424)
(23.6174 -0.555145 -1.10988)
(6.61706 -0.459018 -0.386548)
(6.33389 -0.338314 -0.888647)
(4.95668 -0.617807 0.484661)
(11.2033 -0.334008 0.487806)
(11.0419 -0.202615 -0.769777)
(22.7228 0.0426623 0.042199)
(22.7338 0.0431299 0.00548004)
(22.3446 -1.63651 -1.43128)
(23.5838 -0.625353 -1.16046)
(6.55749 -0.451613 -0.389544)
(6.22798 -0.333293 -0.889794)
(4.5736 -0.644281 0.495095)
(11.0738 -0.339234 0.479719)
(10.7334 -0.178267 -0.780181)
(22.7206 0.0425783 0.0420202)
(22.7316 0.0431295 0.00531537)
(22.2167 -1.61843 -1.40448)
(23.5614 -0.695178 -1.21359)
(6.49547 -0.444373 -0.392645)
(6.11917 -0.328121 -0.891106)
(10.9357 -0.3453 0.471808)
(10.386 -0.150356 -0.790329)
(22.7658 -0.06852 0.0507517)
(22.7184 0.0424561 0.0417987)
(22.7296 0.0430742 0.0051258)
(22.0834 -1.59274 -1.37174)
(23.536 -0.764803 -1.26016)
(6.43159 -0.437234 -0.395867)
(6.00801 -0.322753 -0.892545)
(8.3074 -0.444666 -0.935147)
(10.7924 -0.352097 0.464086)
(10.0052 -0.114699 -0.799738)
(22.7637 -0.0687766 0.0509596)
(22.7164 0.0422925 0.0415166)
(22.767 0.039275 0.0435525)
(22.7275 0.0429932 0.00499461)
(22.0473 -1.55469 -1.32974)
(23.5105 -0.832319 -1.30021)
(6.36577 -0.430192 -0.399205)
(5.89404 -0.317181 -0.894131)
(8.28767 -0.43356 -0.928819)
(10.6427 -0.359572 0.456684)
(9.59429 -0.0715564 -0.808679)
(22.7617 -0.0690048 0.0511729)
(22.7144 0.0420927 0.0412733)
(22.7648 0.0397532 0.0434003)
(22.7253 0.0428853 0.00492515)
(22.7712 0.0387923 0.00839883)
(21.9298 -1.51175 -1.286)
(23.4931 -0.898604 -1.34051)
(6.29802 -0.42322 -0.402675)
(5.77782 -0.311301 -0.895857)
(8.25436 -0.424131 -0.923893)
(10.4829 -0.368137 0.450038)
(9.29592 -0.0543145 -0.816011)
(22.7595 -0.0691999 0.0513751)
(22.8006 -0.0609503 0.0481206)
(22.7122 0.041857 0.0410756)
(22.7625 0.0402005 0.043279)
(22.7231 0.0427468 0.00491291)
(22.769 0.039264 0.00804977)
(21.7572 -1.45798 -1.23646)
(23.4758 -0.960042 -1.37227)
(6.22767 -0.416304 -0.406271)
(5.65787 -0.305094 -0.897731)
(8.21738 -0.415318 -0.919376)
(10.3162 -0.377644 0.444124)
(9.08444 -0.0458923 -0.820954)
(22.7574 -0.0693601 0.0515666)
(22.7989 -0.0614865 0.0482459)
(22.71 0.0415827 0.0409128)
(22.7602 0.0406174 0.043182)
(22.7208 0.0425748 0.00495321)
(22.7667 0.039722 0.00772959)
(21.6031 -1.38659 -1.17088)
(23.456 -1.02135 -1.39869)
(6.15464 -0.409399 -0.409984)
(5.53498 -0.29852 -0.899697)
(8.17687 -0.407101 -0.915181)
(10.1386 -0.388555 0.439043)
(8.89666 -0.0387248 -0.825306)
(22.7552 -0.0694838 0.0517476)
(22.7971 -0.0620135 0.048371)
(22.7078 0.0412649 0.0407767)
(22.7578 0.041004 0.0431043)
(22.7185 0.0423668 0.00504077)
(22.7644 0.0401592 0.00743726)
(21.5746 -1.29426 -1.07829)
(23.4393 -1.08584 -1.42769)
(6.07874 -0.402534 -0.413872)
(8.13274 -0.399447 -0.911301)
(9.95691 -0.399936 0.434519)
(8.72135 -0.0319074 -0.828829)
(22.753 -0.0695698 0.0519183)
(22.7953 -0.0625319 0.0484955)
(22.7054 0.0409039 0.0406622)
(22.7553 0.0413607 0.0430404)
(22.7162 0.042121 0.00517099)
(22.7621 0.0405715 0.00717084)
(21.394 -1.20545 -0.995654)
(23.4271 -1.15564 -1.4583)
(5.99951 -0.39571 -0.417954)
(8.08439 -0.392385 -0.907784)
(9.76574 -0.41234 0.430779)
(8.57963 -0.0245137 -0.830203)
(22.7508 -0.0696174 0.0520786)
(22.7934 -0.0630404 0.04862)
(22.7031 0.0405011 0.0405635)
(22.7528 0.0416877 0.0429868)
(22.7139 0.0418357 0.00533975)
(22.7598 0.0409566 0.00692673)
(21.2006 -1.10204 -0.89703)
(23.4178 -1.22722 -1.48645)
(5.91727 -0.38886 -0.422229)
(8.03155 -0.385872 -0.904666)
(9.56718 -0.425438 0.427708)
(8.45587 -0.0169064 -0.830536)
(22.7486 -0.0696267 0.0522286)
(22.7915 -0.0635361 0.0487461)
(22.7027 0.0481526 0.0917313)
(22.7007 0.0400553 0.0404703)
(22.7503 0.0419844 0.0429399)
(22.7993 0.0325698 0.0437431)
(22.7116 0.0415094 0.00554337)
(22.7574 0.0413123 0.00670394)
(22.7518 -0.065176 0.0279374)
(21.1681 -0.982504 -0.767226)
(23.4013 -1.29049 -1.50519)
(5.83183 -0.381988 -0.426696)
(7.97377 -0.379922 -0.901988)
(9.3594 -0.439226 0.425369)
(12.9746 -0.280203 0.617776)
(8.33081 -0.00925232 -0.831172)
(22.7464 -0.0695973 0.0523681)
(22.7896 -0.0640168 0.0488749)
(22.7006 0.0476826 0.0916969)
(22.6984 0.0395648 0.0403759)
(22.7477 0.0422507 0.0428932)
(22.7971 0.0331146 0.0437761)
(22.7094 0.0411414 0.0057799)
(22.755 0.0416375 0.00650015)
(22.5606 0.00821311 -0.0175921)
(22.7493 -0.0650046 0.0282308)
(22.7975 -0.0625708 0.02328)
(20.8985 -0.906723 -0.692716)
(23.3749 -1.34591 -1.51716)
(5.74312 -0.375048 -0.431317)
(7.48028 -0.547154 -0.386476)
(7.91047 -0.374495 -0.899762)
(9.14313 -0.452467 0.423531)
(12.8708 -0.283785 0.609183)
(8.20572 -0.00134886 -0.832109)
(22.7442 -0.0695288 0.0524975)
(22.7876 -0.0644825 0.0490073)
(22.8192 -0.0529205 0.0469064)
(22.6985 0.0471963 0.0916408)
(22.6961 0.0390309 0.0402764)
(22.7451 0.0424859 0.0428418)
(22.7948 0.0336494 0.0438017)
(22.7071 0.0407343 0.00604278)
(22.7526 0.0419342 0.00631193)
(22.7963 0.0319138 0.0132312)
(22.5584 0.00803856 -0.0168739)
(22.6042 0.0106453 -0.0269675)
(22.7469 -0.0647991 0.028533)
(22.7952 -0.0629163 0.0234147)
(20.7315 -0.815944 -0.601544)
(23.3376 -1.39365 -1.522)
(5.65089 -0.368027 -0.436078)
(7.44401 -0.536456 -0.388701)
(7.84162 -0.369579 -0.897974)
(8.92445 -0.463801 0.421446)
(12.7639 -0.287258 0.600751)
(8.08 0.00582915 -0.8333)
(22.742 -0.0694231 0.0526174)
(22.7856 -0.0649337 0.0491438)
(22.818 -0.0534706 0.046937)
(22.6965 0.0466938 0.0915649)
(22.7359 0.0530318 0.0875147)
(22.6938 0.03846 0.0401772)
(22.7425 0.0426931 0.0427871)
(22.7924 0.0341746 0.0438211)
(22.7049 0.0402912 0.00632726)
(22.7502 0.0422057 0.00613688)
(22.7942 0.0324969 0.0128688)
(22.5562 0.00785395 -0.0161478)
(22.6016 0.0105955 -0.0268854)
(22.7444 -0.0645611 0.0288422)
(22.793 -0.0632437 0.0235606)
(20.4127 -0.756427 -0.562758)
(23.2885 -1.43893 -1.52454)
(5.5547 -0.360939 -0.441012)
(7.40653 -0.526211 -0.390932)
(7.76734 -0.365084 -0.896607)
(8.69466 -0.473837 0.419252)
(12.6546 -0.290693 0.592478)
(7.95378 0.0127196 -0.834753)
(22.7398 -0.0692833 0.0527278)
(22.7836 -0.0653723 0.0492844)
(22.8167 -0.0540261 0.0469715)
(22.6945 0.0461754 0.0914716)
(22.7338 0.0529454 0.0878614)
(22.6915 0.0378528 0.0400782)
(22.7399 0.042872 0.0427302)
(22.7901 0.0346952 0.0438356)
(22.7026 0.0398134 0.00663162)
(22.7478 0.0424546 0.00597201)
(22.7921 0.0330839 0.0125067)
(22.554 0.00765864 -0.015417)
(22.5991 0.0105338 -0.0267763)
(22.7419 -0.0642918 0.0291567)
(22.7908 -0.0635517 0.023716)
(20.0057 -0.70143 -0.545675)
(23.2224 -1.48238 -1.5261)
(7.366 -0.516455 -0.393142)
(7.68714 -0.360978 -0.895664)
(8.43818 -0.48386 0.417694)
(12.5396 -0.294239 0.584449)
(7.82683 0.0194177 -0.836491)
(12.4048 -0.218838 -0.749477)
(22.7376 -0.0691096 0.0528283)
(22.7816 -0.0657959 0.0494289)
(22.8154 -0.054587 0.0470113)
(22.6924 0.0456409 0.0913632)
(22.7316 0.0528478 0.088199)
(22.6893 0.0372108 0.039979)
(22.7373 0.0430213 0.0426703)
(22.7877 0.035211 0.0438451)
(22.7004 0.0393059 0.00694613)
(22.7454 0.042682 0.00581343)
(22.7899 0.0336733 0.0121423)
(22.5518 0.00745185 -0.0146844)
(22.5965 0.0104586 -0.0266418)
(22.7395 -0.0639917 0.0294761)
(22.7885 -0.0638399 0.0238816)
(19.4377 -0.657468 -0.560226)
(23.1396 -1.52405 -1.528)
(7.32175 -0.507192 -0.395341)
(7.60149 -0.357142 -0.895144)
(8.14559 -0.494945 0.417317)
(12.4234 -0.297827 0.576464)
(7.6979 0.0263514 -0.83861)
(12.2591 -0.218249 -0.758218)
(22.7354 -0.0689017 0.0529188)
(22.7795 -0.0662057 0.0495775)
(22.814 -0.0551525 0.047057)
(22.6905 0.04509 0.0912425)
(22.7295 0.0527382 0.088529)
(22.6871 0.0365404 0.0398852)
(22.7347 0.0431403 0.042608)
(22.7852 0.0357229 0.0438491)
(22.6983 0.0387686 0.00726723)
(22.743 0.0428855 0.00566026)
(22.7878 0.0342618 0.0117743)
(22.5496 0.00723235 -0.0139534)
(22.5939 0.0103766 -0.0264673)
(22.737 -0.0636605 0.0298001)
(22.7861 -0.0641068 0.024057)
(23.0719 -1.56984 -1.53254)
(7.27364 -0.498393 -0.397553)
(7.51061 -0.353566 -0.894977)
(7.81265 -0.507259 0.418221)
(12.3053 -0.301132 0.568649)
(7.56961 0.0334988 -0.841009)
(12.084 -0.213866 -0.768934)
(22.7332 -0.0686655 0.0529994)
(22.7774 -0.066604 0.04973)
(22.8126 -0.0557202 0.0471107)
(22.6886 0.0445225 0.0911119)
(22.7273 0.0526162 0.0888524)
(22.685 0.0358426 0.0397924)
(22.7321 0.0432302 0.042541)
(22.7828 0.0362331 0.0438462)
(22.6961 0.0382011 0.00759178)
(22.7407 0.0430623 0.0055105)
(22.7856 0.0348466 0.011402)
(22.5474 0.00701176 -0.013221)
(22.5913 0.0102896 -0.0262494)
(22.7346 -0.0632995 0.0301269)
(22.7838 -0.0643521 0.0242403)
(23.0327 -1.61976 -1.542)
(7.22185 -0.489998 -0.399797)
(7.41416 -0.350239 -0.895145)
(7.42459 -0.522353 0.421521)
(12.1826 -0.304643 0.560876)
(7.4412 0.0407716 -0.843774)
(11.875 -0.206736 -0.779881)
(22.731 -0.0684027 0.0530708)
(22.7753 -0.0669896 0.049887)
(22.8112 -0.0562902 0.0471726)
(22.7144 0.026355 0.103654)
(22.6867 0.0439384 0.0909741)
(22.7252 0.0524808 0.0891717)
(22.6829 0.0351168 0.0396927)
(22.7295 0.0432893 0.042464)
(22.7803 0.036741 0.0438332)
(22.694 0.0376027 0.00791489)
(22.7383 0.0432095 0.00536216)
(22.7834 0.0354249 0.0110247)
(22.5452 0.00679053 -0.0124903)
(22.5888 0.0101976 -0.0259882)
(22.7322 -0.0629104 0.0304535)
(22.7815 -0.0645761 0.02443)
(22.9586 -1.64966 -1.54277)
(7.1668 -0.481931 -0.402088)
(7.31287 -0.347004 -0.895608)
(6.9877 -0.540722 0.427005)
(12.0573 -0.308288 0.553074)
(7.31058 0.0483035 -0.846943)
(11.634 -0.19606 -0.791036)
(22.7289 -0.0681133 0.0531342)
(22.7732 -0.0673605 0.0500499)
(22.8097 -0.05686 0.0472454)
(22.6759 0.0226588 0.102174)
(22.7124 0.0262971 0.103866)
(22.6848 0.0433375 0.0908321)
(22.7231 0.0523299 0.089485)
(22.6808 0.034362 0.0395796)
(22.727 0.0433148 0.0423695)
(22.7779 0.0372459 0.0438084)
(22.692 0.0369722 0.0082301)
(22.736 0.0433237 0.00521269)
(22.7813 0.0359928 0.010638)
(22.543 0.00656855 -0.0117639)
(22.5863 0.0101008 -0.025684)
(22.7298 -0.0624953 0.0307766)
(22.7791 -0.0647798 0.0246243)
(22.8209 -0.0564614 0.0219168)
(22.8526 -1.66477 -1.53468)
(23.9119 -0.125865 -0.66809)
(7.10853 -0.474176 -0.404426)
(7.20716 -0.343799 -0.896321)
(8.91093 -0.49464 -0.99243)
(6.49099 -0.563967 0.43526)
(11.9313 -0.311997 0.545228)
(7.17717 0.0558991 -0.850701)
(11.3608 -0.180519 -0.802323)
(22.7267 -0.0677983 0.0531907)
(22.7711 -0.0677146 0.0502202)
(22.8082 -0.0574294 0.0473288)
(22.6742 0.022274 0.10192)
(22.7103 0.0262408 0.104043)
(22.6831 0.0427206 0.0906945)
(22.721 0.0521587 0.0897683)
(22.7572 0.0534318 0.0806439)
(22.6789 0.0335785 0.0394507)
(22.7246 0.0433058 0.0422529)
(22.7755 0.0377481 0.0437703)
(22.69 0.036309 0.00852973)
(22.7337 0.0434007 0.00505992)
(22.7791 0.0365456 0.0102399)
(22.5409 0.00634567 -0.0110442)
(22.5839 0.00999935 -0.0253368)
(22.7274 -0.0620564 0.0310919)
(22.7767 -0.0649643 0.0248211)
(22.8192 -0.0569938 0.021923)
(22.741 -1.675 -1.52254)
(23.9726 -0.147134 -0.75275)
(7.04737 -0.466681 -0.406814)
(7.09777 -0.340572 -0.897246)
(8.94667 -0.475474 -0.981249)
(5.95953 -0.592569 0.446756)
(11.8 -0.316095 0.537403)
(7.03865 0.063579 -0.855267)
(11.0589 -0.158327 -0.814109)
(22.7246 -0.0674583 0.0532416)
(22.7689 -0.06805 0.0503988)
(22.8067 -0.0579964 0.0474261)
(22.6725 0.0218953 0.101629)
(22.7082 0.026183 0.104187)
(22.6813 0.0420842 0.090543)
(22.7189 0.0519654 0.0900222)
(22.7553 0.0535093 0.0811814)
(22.677 0.032762 0.0392975)
(22.7222 0.0432614 0.0421107)
(22.7731 0.0382478 0.0437153)
(22.6881 0.0356109 0.00880601)
(22.7315 0.0434359 0.00489943)
(22.777 0.037079 0.00982681)
(22.5387 0.00612158 -0.0103327)
(22.5814 0.00989327 -0.024947)
(22.7251 -0.0615959 0.0313948)
(22.7744 -0.065131 0.0250181)
(22.8175 -0.0575229 0.02193)
(22.629 -1.67999 -1.5109)
(23.9565 -0.194504 -0.828355)
(6.98339 -0.45942 -0.409267)
(6.98456 -0.337274 -0.898359)
(8.97446 -0.457535 -0.97078)
(5.41944 -0.625981 0.460002)
(11.6652 -0.320561 0.529475)
(6.89498 0.0708946 -0.860697)
(10.7155 -0.131644 -0.825117)
(22.7226 -0.0670934 0.0532881)
(22.7668 -0.0683642 0.050587)
(22.8051 -0.0585617 0.0475383)
(22.6708 0.0215207 0.101303)
(22.7061 0.0261212 0.104299)
(22.6796 0.04143 0.0903573)
(22.7167 0.0517486 0.0902475)
(22.7535 0.053574 0.0817067)
(22.6752 0.0319118 0.0391129)
(22.7199 0.043181 0.0419355)
(22.7707 0.0387456 0.0436394)
(22.6863 0.0348745 0.00905272)
(22.7293 0.0434214 0.0047217)
(22.7749 0.037587 0.00939238)
(22.5365 0.00589621 -0.00963114)
(22.579 0.00978262 -0.0245153)
(22.7229 -0.0611162 0.0316799)
(22.772 -0.0652816 0.0252126)
(22.8158 -0.0580505 0.021937)
(22.5313 -1.68366 -1.50191)
(23.8726 -0.25906 -0.882563)
(6.91659 -0.452362 -0.411821)
(6.86892 -0.333791 -0.899585)
(8.99436 -0.440815 -0.960997)
(4.92702 -0.658088 0.473003)
(11.525 -0.325559 0.521449)
(6.74561 0.0775452 -0.867141)
(10.3301 -0.0974725 -0.835394)
(22.7206 -0.0667047 0.0533311)
(22.7647 -0.0686552 0.0507856)
(22.8035 -0.0591221 0.0476689)
(22.4679 -0.0444809 0.0621524)
(22.6691 0.0211483 0.10094)
(22.704 0.026053 0.104378)
(22.6779 0.040758 0.0901379)
(22.7145 0.0515072 0.0904446)
(22.7516 0.0536259 0.0822188)
(22.6736 0.0310266 0.0388894)
(22.7177 0.0430621 0.0417187)
(22.7684 0.0392419 0.0435368)
(22.6847 0.0340907 0.00924927)
(22.7273 0.0433591 0.00454085)
(22.7729 0.0380705 0.00894321)
(22.5343 0.0056692 -0.00894051)
(22.5767 0.00966733 -0.024043)
(22.7208 -0.06062 0.031941)
(22.7698 -0.0654179 0.0254013)
(22.814 -0.0585773 0.0219431)
(22.463 -1.68527 -1.4897)
(23.7962 -0.326816 -0.932089)
(6.84711 -0.445485 -0.4145)
(6.75047 -0.330083 -0.900957)
(8.99665 -0.426491 -0.952652)
(4.55524 -0.687052 0.482032)
(11.3779 -0.331248 0.513375)
(6.58984 0.0829741 -0.874793)
(10.0008 -0.075146 -0.844449)
(22.7187 -0.0662929 0.0533716)
(22.7626 -0.0689205 0.0509972)
(22.802 -0.0596783 0.0478138)
(22.4671 -0.0437454 0.0619688)
(22.6674 0.0207766 0.100544)
(22.7018 0.0259762 0.104426)
(22.6761 0.0400686 0.0898855)
(22.7124 0.0512402 0.090614)
(22.7496 0.0536644 0.0827173)
(22.6722 0.0301017 0.0386169)
(22.7158 0.0429027 0.0414452)
(22.7662 0.0397395 0.0433946)
(22.683 0.0332852 0.0094595)
(22.7251 0.0432722 0.00442411)
(22.7708 0.0385558 0.00853229)
(22.5321 0.0054402 -0.00826148)
(22.5744 0.00954727 -0.0235313)
(22.7187 -0.0601094 0.0321714)
(22.7675 -0.0655421 0.0255808)
(22.8123 -0.0591054 0.0219437)
(22.3267 -1.67473 -1.4661)
(23.7342 -0.401527 -0.985318)
(6.77553 -0.438735 -0.417287)
(6.62807 -0.326238 -0.902534)
(8.98656 -0.413891 -0.945548)
(11.2292 -0.337379 0.505197)
(6.42538 0.0870582 -0.883897)
(9.73959 -0.0648821 -0.851455)
(22.7169 -0.0658579 0.053408)
(22.7605 -0.0691568 0.0512146)
(22.8003 -0.0602349 0.0479536)
(22.4663 -0.0430461 0.0618094)
(22.6657 0.0204035 0.100114)
(22.6997 0.0258889 0.104444)
(22.7358 0.0255993 0.0993382)
(22.6744 0.0393618 0.0896006)
(22.7102 0.0509469 0.090756)
(22.7476 0.0536885 0.0832015)
(22.6706 0.0291725 0.0383698)
(22.7137 0.0427067 0.041214)
(22.764 0.0402206 0.0432553)
(22.6813 0.032475 0.00970563)
(22.7229 0.0431572 0.00436701)
(22.7686 0.0390363 0.00815556)
(22.53 0.00520899 -0.00759409)
(22.5721 0.0094222 -0.0229818)
(22.7168 -0.0595896 0.0323577)
(22.7653 -0.0656553 0.0257484)
(22.8106 -0.0596181 0.0219603)
(22.1855 -1.65725 -1.43968)
(23.695 -0.476999 -1.0463)
(6.70171 -0.432124 -0.420203)
(6.50274 -0.322127 -0.904263)
(8.97026 -0.40221 -0.938908)
(11.074 -0.344315 0.497047)
(9.53162 -0.0576086 -0.855774)
(22.715 -0.0653911 0.0534229)
(22.7583 -0.0693596 0.0514212)
(22.7986 -0.0607876 0.0480899)
(22.4655 -0.0423789 0.061674)
(22.664 0.0200277 0.099652)
(22.6976 0.0257892 0.104431)
(22.7338 0.0257657 0.0997116)
(22.6727 0.0386382 0.0892841)
(22.708 0.0506259 0.090871)
(22.7456 0.0536979 0.0836706)
(22.669 0.0282414 0.0381475)
(22.7115 0.0424725 0.0410252)
(22.7617 0.0406713 0.0431456)
(22.6796 0.0316593 0.0099867)
(22.7207 0.043011 0.00436462)
(22.7663 0.0395055 0.00781049)
(22.5278 0.0049737 -0.0069406)
(22.5698 0.00929185 -0.0224004)
(22.7149 -0.0590438 0.0325601)
(22.7631 -0.065724 0.025943)
(22.8087 -0.0601104 0.0219968)
(22.0386 -1.63148 -1.40812)
(23.6502 -0.557754 -1.10447)
(6.62616 -0.425594 -0.423244)
(6.37437 -0.317717 -0.906157)
(8.94722 -0.391442 -0.932748)
(10.9103 -0.352312 0.489126)
(9.3613 -0.0515916 -0.858383)
(22.7131 -0.0648925 0.0534164)
(22.7562 -0.069527 0.0516172)
(22.7969 -0.0613353 0.0482237)
(22.4647 -0.0417396 0.0615615)
(22.6623 0.0196474 0.099158)
(22.6956 0.0256753 0.104388)
(22.7319 0.0259232 0.10007)
(22.671 0.0378975 0.0889367)
(22.7059 0.0502761 0.0909589)
(22.7436 0.0536913 0.0841254)
(22.6673 0.0273076 0.0379472)
(22.7092 0.0421944 0.0408709)
(22.7593 0.0410923 0.0430594)
(22.6778 0.0308364 0.0102993)
(22.7184 0.0428312 0.00441223)
(22.764 0.0399586 0.00749377)
(22.5255 0.00473369 -0.00630211)
(22.5676 0.00915608 -0.0217888)
(22.7129 -0.0584737 0.032782)
(22.7608 -0.0657493 0.0261619)
(22.8068 -0.0605825 0.0220514)
(21.9802 -1.59142 -1.36159)
(23.6196 -0.639441 -1.16804)
(7.26775 0.271608 0.134802)
(6.54911 -0.419099 -0.426414)
(6.2434 -0.312953 -0.908194)
(8.91741 -0.381573 -0.927081)
(10.7429 -0.36102 0.481553)
(9.19202 -0.0448627 -0.861442)
(22.7112 -0.0643622 0.0533885)
(22.7539 -0.0696573 0.0518029)
(22.7951 -0.0618769 0.0483561)
(22.464 -0.0411239 0.0614712)
(22.6607 0.0192608 0.0986326)
(22.6935 0.0255458 0.104317)
(22.7299 0.0260702 0.100415)
(22.6693 0.0371391 0.0885592)
(22.7038 0.0498964 0.0910213)
(22.7416 0.0536696 0.0845659)
(22.6655 0.0263704 0.037765)
(22.7069 0.0418735 0.0407429)
(22.7568 0.0414833 0.0429915)
(22.6759 0.0300054 0.0106374)
(22.7161 0.0426155 0.00450529)
(22.7617 0.0403919 0.00720244)
(22.5233 0.00448903 -0.00567684)
(22.5653 0.00901442 -0.0211533)
(22.7109 -0.0578803 0.0330208)
(22.7584 -0.0657325 0.0264025)
(22.8048 -0.0610349 0.0221225)
(21.8091 -1.54378 -1.31155)
(23.5856 -0.721916 -1.22587)
(7.05588 0.289786 0.13128)
(6.46928 -0.412662 -0.429756)
(6.10937 -0.307805 -0.910333)
(8.88322 -0.372385 -0.921809)
(10.5668 -0.371164 0.474449)
(9.04259 -0.0383809 -0.863176)
(22.7092 -0.0638027 0.053339)
(22.7517 -0.0697495 0.0519783)
(22.7933 -0.0624086 0.0484879)
(22.4632 -0.0405273 0.0614037)
(22.6591 0.0188659 0.0980748)
(22.6915 0.0254014 0.104221)
(22.7278 0.0262046 0.100747)
(22.6677 0.0363628 0.088153)
(22.7016 0.0494877 0.0910593)
(22.7395 0.0536368 0.0849914)
(22.6636 0.0254285 0.0375967)
(22.7046 0.0415098 0.0406333)
(22.7543 0.0418442 0.0429371)
(22.674 0.0291671 0.0109985)
(22.7138 0.0423622 0.00463945)
(22.7594 0.0408006 0.00693539)
(22.5211 0.00423966 -0.00506483)
(22.5631 0.00886624 -0.0204962)
(22.756 -0.0656748 0.0266618)
(22.8028 -0.0614683 0.0222089)
(21.6035 -1.47935 -1.24984)
(23.5513 -0.803324 -1.27683)
(6.83476 0.308675 0.128272)
(6.38729 -0.406196 -0.433261)
(5.97195 -0.302178 -0.912587)
(8.8445 -0.363941 -0.916985)
(10.3856 -0.3823 0.467708)
(14.0992 -0.219783 0.671255)
(8.91562 -0.031507 -0.863432)
(22.7073 -0.0632175 0.0532686)
(22.7495 -0.0698027 0.0521433)
(22.7914 -0.0629292 0.0486204)
(22.4624 -0.0399466 0.0613555)
(22.6895 0.0252434 0.104102)
(22.7258 0.0263249 0.101069)
(22.666 0.0355678 0.0877195)
(22.6995 0.0490548 0.0910734)
(22.7374 0.053596 0.0854021)
(22.6617 0.0244805 0.0374399)
(22.7023 0.041103 0.040538)
(22.7518 0.0421754 0.0428909)
(22.6721 0.0283185 0.0113796)
(22.7115 0.0420699 0.00481051)
(22.757 0.0411819 0.00668951)
(22.5189 0.00398383 -0.00446923)
(22.561 0.00871084 -0.0198204)
(22.7535 -0.0655779 0.0269375)
(22.8007 -0.0618828 0.0223093)
(21.5104 -1.38895 -1.16262)
(23.5264 -0.881115 -1.32579)
(6.60452 0.328092 0.125502)
(6.30269 -0.399715 -0.436952)
(5.83183 -0.296079 -0.914912)
(8.80119 -0.356227 -0.912591)
(10.1973 -0.394464 0.461525)
(13.9944 -0.223576 0.664424)
(8.79471 -0.0243877 -0.863401)
(22.7054 -0.0626079 0.0531779)
(22.7472 -0.0698166 0.0522977)
(22.7895 -0.0634384 0.0487543)
(22.4616 -0.0393788 0.0613249)
(22.6875 0.0250696 0.103964)
(22.7238 0.0264294 0.101379)
(22.6644 0.0347542 0.0872614)
(22.6975 0.0485978 0.0910644)
(22.7353 0.0535463 0.0857992)
(22.6598 0.0235263 0.0372922)
(22.6999 0.040652 0.0404486)
(22.7492 0.0424757 0.042851)
(22.6701 0.0274587 0.0117762)
(22.7093 0.0417376 0.0050154)
(22.7546 0.0415343 0.00646355)
(22.5166 0.00372181 -0.00388902)
(22.5588 0.00854752 -0.0191283)
(22.7511 -0.0654434 0.0272269)
(22.7986 -0.0622789 0.0224225)
(21.376 -1.29099 -1.06993)
(23.5008 -0.954366 -1.36394)
(6.3654 0.347931 0.12294)
(6.21538 -0.393205 -0.44087)
(5.68904 -0.289467 -0.917304)
(8.75317 -0.349199 -0.908649)
(10.0014 -0.407744 0.455922)
(13.8827 -0.228218 0.657232)
(8.6718 -0.0170993 -0.863679)
(22.7035 -0.0619729 0.0530674)
(22.745 -0.0697911 0.0524415)
(22.7876 -0.0639344 0.0488907)
(22.4608 -0.0388206 0.06131)
(22.6855 0.0248782 0.103806)
(22.7217 0.0265161 0.101681)
(22.6628 0.0339286 0.0867823)
(22.6954 0.0481229 0.0910328)
(22.7332 0.0534867 0.0861839)
(22.6578 0.0225654 0.0371546)
(22.6976 0.0401553 0.0403584)
(22.7466 0.0427449 0.0428112)
(22.6682 0.0265883 0.0121864)
(22.707 0.0413649 0.00525213)
(22.7522 0.041856 0.00625673)
(22.5144 0.00345411 -0.00332235)
(22.5566 0.00837575 -0.0184221)
(22.7486 -0.0652727 0.0275276)
(22.7964 -0.0626567 0.0225485)
(21.1176 -1.18577 -0.97505)
(23.4742 -1.02674 -1.396)
(6.11915 0.367617 0.120694)
(6.12553 -0.38662 -0.444995)
(7.97706 -0.537837 -0.410362)
(5.54427 -0.282318 -0.919714)
(8.69888 -0.342944 -0.905266)
(9.79732 -0.421975 0.450896)
(13.768 -0.233294 0.649695)
(8.54624 -0.00979468 -0.864338)
(12.7288 -0.169433 -0.791148)
(22.7015 -0.0613151 0.0529375)
(22.7428 -0.0697256 0.0525749)
(22.7856 -0.0644143 0.0490306)
(22.46 -0.0382685 0.0613093)
(22.6835 0.0246679 0.103633)
(22.7197 0.0265825 0.101976)
(22.6613 0.0330979 0.0862842)
(22.6934 0.0476317 0.0909803)
(22.7311 0.0534177 0.0865568)
(22.6558 0.0215937 0.0370199)
(22.6953 0.039613 0.040262)
(22.744 0.0429825 0.0427682)
(22.6662 0.0257034 0.0126085)
(22.7048 0.0409539 0.00551547)
(22.7498 0.0421494 0.00606583)
(22.5121 0.00318144 -0.00276802)
(22.5544 0.00819489 -0.0177051)
(22.7461 -0.0650676 0.0278378)
(22.7942 -0.0630161 0.0226865)
(21.0533 -1.05138 -0.834731)
(23.4525 -1.10198 -1.43112)
(5.88029 0.383721 0.122416)
(6.03299 -0.379941 -0.449323)
(7.93637 -0.526478 -0.412299)
(5.42078 -0.274052 -0.921201)
(8.63795 -0.337484 -0.902405)
(9.59044 -0.436622 0.446171)
(13.6464 -0.239504 0.641732)
(8.42041 -0.00239357 -0.865293)
(12.6953 -0.173784 -0.787679)
(22.6997 -0.0606366 0.05279)
(22.7405 -0.0696215 0.0526986)
(22.7836 -0.0648774 0.049175)
(22.4591 -0.0377195 0.0613207)
(22.6816 0.0244368 0.103445)
(22.7176 0.0266257 0.102264)
(22.6597 0.0322716 0.0857703)
(22.6914 0.047124 0.0909091)
(22.729 0.0533387 0.0869189)
(22.6538 0.0206126 0.0368863)
(22.693 0.0390325 0.040165)
(22.7414 0.043191 0.0427224)
(22.6642 0.0248041 0.0130417)
(22.7026 0.0405071 0.00580158)
(22.7474 0.0424179 0.00588761)
(22.5098 0.00290478 -0.00222426)
(22.5523 0.00800435 -0.0169801)
(22.7436 -0.0648291 0.0281555)
(22.792 -0.0633568 0.0228361)
(20.7692 -0.962059 -0.746911)
(23.437 -1.1845 -1.46711)
(5.66764 0.392138 0.129647)
(5.93759 -0.373164 -0.453843)
(7.89588 -0.515514 -0.414263)
(5.3017 -0.265211 -0.922774)
(8.57025 -0.332756 -0.900085)
(9.3707 -0.451735 0.442141)
(13.5197 -0.246127 0.633737)
(8.29266 0.00466848 -0.866551)
(12.6255 -0.177377 -0.78874)
(22.6978 -0.0599427 0.0526262)