/*--------------------------------*- C++ -*----------------------------------*\
| =========                 |                                                 |
| \\      /  F ield         | OpenFOAM: The Open Source CFD Toolbox           |
|  \\    /   O peration     | Version:  2.1.1                                 |
|   \\  /    A nd           | Web:      www.OpenFOAM.org                      |
|    \\/     M anipulation  |                                                 |
\*---------------------------------------------------------------------------*/
FoamFile
{
    version     2.0;
    format      ascii;
    class       volScalarField;
    location    "0.00125";
    object      alpha1;
}
// * * * * * * * * * * * * * * * * * * * * * * * * * * * * * * * * * * * * * //

dimensions      [0 0 0 0 0 0 0];

internalField   nonuniform List<scalar> 
36520
(
-2.3821e-12
-2.08723e-13
-2.90904e-13
-3.75577e-13
-5.21285e-13
-6.99767e-13
-8.97899e-13
-1.11694e-12
-1.36573e-12
-1.65091e-12
-1.98448e-12
-2.34022e-12
-2.72795e-12
-2.95817e-12
-2.97676e-12
-2.93499e-12
-3.03411e-12
-3.36006e-12
-3.97289e-12
-4.84416e-12
-5.97136e-12
-7.26996e-12
-8.73232e-12
-1.03227e-11
-1.19586e-11
-1.35188e-11
-1.4939e-11
-1.62541e-11
-1.76649e-11
-1.95957e-11
-2.26297e-11
-2.73256e-11
-3.3961e-11
-4.23394e-11
-5.17173e-11
-6.09462e-11
-6.86943e-11
-7.36264e-11
-7.48213e-11
-7.17783e-11
-6.40219e-11
-5.05892e-11
-3.14849e-11
-1.12887e-11
3.27292e-13
2.63664e-11
1.01608e-10
1.91483e-10
2.4315e-10
2.44684e-10
1.18095e-10
3.93968e-11
-2.02218e-13
-6.31481e-11
-7.03705e-11
-1.07127e-11
-5.62582e-13
-1.20032e-14
-1.34645e-16
-9.85185e-19
-5.04258e-12
-3.36537e-12
-3.9428e-12
-4.70012e-12
-5.6127e-12
-6.46735e-12
-7.29335e-12
-8.23797e-12
-9.47116e-12
-1.10391e-11
-1.29665e-11
-1.49596e-11
-1.68917e-11
-1.85239e-11
-2.00899e-11
-2.20175e-11
-2.47624e-11
-2.8443e-11
-3.30003e-11
-3.82181e-11
-4.35634e-11
-4.87459e-11
-5.31659e-11
-5.6234e-11
-5.73101e-11
-5.60992e-11
-5.24903e-11
-4.68813e-11
-4.01357e-11
-3.36429e-11
-2.90464e-11
-2.70962e-11
-2.75674e-11
-2.95082e-11
-3.1939e-11
-3.42133e-11
-3.5886e-11
-3.63993e-11
-3.51501e-11
-3.1644e-11
-2.55424e-11
-1.59697e-11
1.52141e-17
6.69814e-11
1.4893e-09
8.15694e-09
2.91068e-08
8.354e-08
1.75406e-07
2.57722e-07
2.84015e-07
9.41248e-08
1.06244e-08
-1.66587e-11
-6.04527e-10
-1.14791e-10
-9.60589e-12
-3.09092e-13
-4.62347e-15
-4.13224e-17
-1.08524e-11
-9.06715e-12
-9.91407e-12
-1.09172e-11
-1.17114e-11
-1.20654e-11
-1.21746e-11
-1.23219e-11
-1.2774e-11
-1.34252e-11
-1.43947e-11
-1.53476e-11
-1.6444e-11
-1.64261e-11
-1.57675e-11
-1.54241e-11
-1.54994e-11
-1.61198e-11
-1.73177e-11
-1.89512e-11
-2.04661e-11
-2.16961e-11
-2.23654e-11
-2.20781e-11
-2.03513e-11
-1.7025e-11
-1.18111e-11
-5.20311e-12
-2.67405e-13
1.56859e-19
1.01772e-19
3.22697e-20
-3.26152e-20
-1.0881e-19
-1.56154e-19
-8.82975e-20
2.2899e-19
6.05665e-19
4.65084e-19
-2.11264e-17
1.4608e-16
3.3379e-11
7.57259e-10
4.69042e-09
3.71231e-08
2.5066e-07
1.19719e-06
4.46593e-06
1.26485e-05
2.47161e-05
3.19479e-05
1.45693e-05
2.53909e-06
7.6097e-08
-2.43047e-09
-5.14278e-10
-7.63209e-11
-3.70527e-12
-7.42145e-14
-8.11884e-16
-1.51965e-11
-1.15514e-11
-1.15379e-11
-1.16033e-11
-1.15036e-11
-1.11803e-11
-1.09338e-11
-1.04172e-11
-8.96525e-12
-6.74316e-12
-4.02301e-12
-4.22251e-13
-5.15004e-16
-1.52875e-14
1.31798e-12
4.51547e-12
4.16926e-12
2.81218e-12
4.10333e-12
1.09145e-11
1.99758e-11
2.93792e-11
3.3763e-11
3.09925e-11
3.42084e-11
2.7013e-10
1.30168e-09
2.58963e-09
4.29252e-09
6.85243e-09
1.04157e-08
1.49686e-08
1.95735e-08
2.27189e-08
2.38062e-08
2.16319e-08
1.9465e-08
1.75866e-08
1.61027e-08
1.47222e-08
1.35485e-08
1.31097e-08
1.58546e-08
3.09115e-08
1.12463e-07
5.91197e-07
3.36731e-06
1.73786e-05
6.86924e-05
0.00021026
0.000366938
0.000286549
7.38467e-05
4.82068e-06
-7.84688e-09
-1.57566e-09
-3.87271e-10
-2.87048e-11
-7.83451e-13
-1.05827e-14
-1.39124e-11
-8.67198e-12
-5.75508e-12
-8.94533e-13
3.27671e-19
1.34113e-18
8.7221e-18
6.90648e-12
1.70448e-11
2.38001e-11
2.65973e-11
1.97719e-10
5.11131e-10
1.08537e-09
2.30852e-09
4.15099e-09
6.81581e-09
1.05834e-08
1.57724e-08
2.26515e-08
3.1904e-08
4.4388e-08
6.08122e-08
8.08952e-08
1.02424e-07
1.246e-07
1.51754e-07
1.91147e-07
2.51647e-07
3.49765e-07
5.02842e-07
7.08303e-07
9.16094e-07
1.03527e-06
9.97032e-07
8.62401e-07
7.14747e-07
5.8286e-07
4.65092e-07
3.50725e-07
2.58352e-07
1.97641e-07
1.67607e-07
2.12568e-07
4.4779e-07
1.38425e-06
5.88449e-06
2.8321e-05
0.0001217
0.000483807
0.00122557
0.00131045
0.000736921
0.000170941
2.67594e-05
5.39502e-07
-1.34718e-09
-1.5843e-10
-6.16535e-12
-1.04321e-13
-7.30523e-12
6.35025e-19
1.64234e-11
9.86151e-11
1.93449e-10
3.17842e-10
4.4396e-10
5.71897e-10
2.01572e-10
-1.72526e-15
1.07801e-08
4.8569e-08
9.81281e-08
6.99239e-08
6.882e-08
1.17419e-07
1.79621e-07
2.68213e-07
3.91204e-07
5.35489e-07
6.94086e-07
8.97348e-07
1.23996e-06
1.81587e-06
2.55925e-06
3.25972e-06
3.7638e-06
4.09203e-06
4.48526e-06
5.09208e-06
5.93039e-06
7.07478e-06
8.356e-06
9.24764e-06
9.2798e-06
8.96633e-06
8.66449e-06
8.25151e-06
7.88057e-06
8.08037e-06
8.56528e-06
8.52897e-06
7.73199e-06
6.42726e-06
7.60036e-06
1.26668e-05
3.12181e-05
9.81047e-05
0.000399685
0.00158263
0.00485131
0.0103746
0.0110136
0.00788544
0.0023249
9.36275e-05
-3.43925e-09
-5.76018e-10
-3.83065e-11
-8.39218e-13
7.01159e-11
1.43472e-09
3.39772e-09
3.67161e-09
3.53888e-10
5.4679e-09
2.19342e-08
8.25952e-08
3.11806e-07
1.10881e-06
3.15532e-06
6.26706e-06
9.22986e-06
7.20046e-06
2.18099e-06
1.71555e-06
2.44694e-06
3.18735e-06
3.92607e-06
4.50726e-06
4.98051e-06
5.39687e-06
5.95973e-06
6.98061e-06
8.46344e-06
9.89593e-06
1.18269e-05
1.58377e-05
1.91839e-05
2.0584e-05
2.25323e-05
2.52503e-05
2.80417e-05
3.08608e-05
3.07908e-05
2.9608e-05
3.0332e-05
2.92262e-05
2.55784e-05
2.32217e-05
2.41763e-05
3.23332e-05
5.61577e-05
9.53047e-05
0.000137156
0.000165497
0.00023348
0.000465238
0.000933977
0.00262981
0.0184653
0.0786861
0.12189
0.0950078
0.0277763
0.00121637
8.17267e-07
-1.85016e-10
-1.85726e-10
-5.37424e-12
1.77419e-09
3.77205e-09
1.55957e-09
-3.20653e-13
9.55196e-07
2.05021e-06
2.886e-06
5.1661e-06
1.20593e-05
2.79508e-05
5.20353e-05
7.75399e-05
9.21336e-05
8.00405e-05
3.46531e-05
1.05546e-05
1.03407e-05
1.25162e-05
1.41796e-05
1.57171e-05
1.76498e-05
2.00677e-05
2.21684e-05
2.29551e-05
2.30961e-05
2.43056e-05
2.72951e-05
3.23031e-05
3.95458e-05
4.85138e-05
5.70789e-05
6.56746e-05
8.05745e-05
0.000118979
0.000188047
0.000213136
0.000198769
0.000168199
0.000151295
0.000152272
0.000151812
0.000144427
0.000127143
0.000105686
0.000104462
0.000156772
0.000250843
0.000282855
0.00029703
0.000462371
0.00233534
0.108
0.532359
0.416313
0.0876128
0.00320656
6.80364e-06
-3.33679e-09
-6.71618e-10
-2.55085e-11
-7.43107e-17
1.18477e-15
4.19516e-16
5.11838e-14
-4.66528e-13
1.15979e-05
4.02391e-05
0.000108259
0.000307304
0.000918253
0.00216668
0.00275246
0.00206404
0.000780031
0.000273299
0.000178048
0.000156782
0.000146371
0.000127814
9.69782e-05
7.36755e-05
7.02318e-05
7.32621e-05
7.44665e-05
7.35287e-05
7.68869e-05
8.56943e-05
0.000101658
0.000122652
0.000150836
0.00019058
0.000240549
0.000297421
0.000358173
0.00042481
0.000502168
0.000590523
0.000683328
0.000767301
0.000826011
0.000859176
0.00087209
0.000829469
0.000674489
0.000404759
0.000169862
0.000123273
0.000122954
0.000122929
0.000117658
0.00064886
0.064263
0.677171
0.6253
0.152451
0.00705129
3.62343e-05
-1.7909e-08
-2.42512e-09
-1.12903e-10
-1.70099e-15
-5.58787e-16
4.82348e-15
-1.79806e-15
8.04919e-06
2.52765e-05
5.15336e-05
0.000121775
0.000276119
0.000577828
0.00111941
0.00195823
0.002165
0.00156705
0.000670939
0.000399809
0.000398343
0.000421004
0.00044397
0.000458483
0.00046527
0.000434963
0.00035583
0.000227791
0.000124177
0.00010657
0.000119948
0.000155347
0.000213434
0.000279223
0.000357292
0.000459573
0.000579451
0.000689155
0.000765735
0.000806095
0.000841229
0.000876193
0.000899183
0.000912805
0.000931759
0.000919379
0.000817611
0.000624863
0.000488446
0.000438141
0.000442209
0.000442031
0.000313033
0.00011766
0.00102849
0.0755365
0.587052
0.513708
0.125373
0.00619069
3.43585e-05
-1.6896e-08
-2.73044e-09
-1.37832e-10
2.70793e-14
4.8521e-15
-1.58139e-14
2.37009e-12
-3.09251e-12
1.70236e-06
1.12986e-05
3.53909e-05
0.000121416
0.000513392
0.00209382
0.00504775
0.00545313
0.00321413
0.000594541
5.95294e-05
5.33733e-05
7.60727e-05
0.000123795
0.000165762
0.000188802
0.000190866
0.000164497
0.000120902
0.000101914
0.00010415
0.000110269
0.000121947
0.000175688
0.000264944
0.000260735
0.000240686
0.000232605
0.000235943
0.000245372
0.000263093
0.000294063
0.000332089
0.000353078
0.00036533
0.000374671
0.000372428
0.00033458
0.000260989
0.000199975
0.000177602
0.000187429
0.000197028
0.000132004
8.06542e-05
0.00101541
0.0956326
0.656427
0.521425
0.102818
0.00354536
6.66498e-06
-1.17722e-08
-2.92794e-09
-1.51198e-10
1.0718e-07
1.65012e-08
4.02541e-09
5.0342e-07
6.53626e-07
1.37949e-06
2.25332e-06
3.60768e-06
2.20423e-05
0.000199424
0.00187598
0.00692573
0.00635003
0.0030526
0.000333491
1.35078e-05
1.54526e-05
2.03959e-05
3.68271e-05
5.83878e-05
6.73973e-05
6.64632e-05
6.91e-05
0.000116349
0.000201549
0.000138435
5.90765e-05
5.89388e-05
9.88045e-05
0.00033447
0.000429395
0.000283513
0.000143119
8.34986e-05
7.88473e-05
0.000259202
0.000774714
0.000785939
0.000590963
0.00023556
0.000210925
0.000241232
0.00023535
0.00017785
0.000103799
0.000100057
0.000131009
0.00016525
8.06596e-05
8.06394e-05
0.000726883
0.0826205
0.771234
0.78634
0.198714
0.00728743
1.3846e-05
-1.75723e-08
-2.26553e-09
-9.35171e-11
1.15361e-07
5.71886e-07
1.70023e-06
3.97656e-06
7.51879e-06
1.34363e-05
2.3236e-05
4.6432e-05
0.0001641
0.000830319
0.00414683
0.0157636
0.0319217
0.0297089
0.0134882
0.00169786
4.71115e-05
1.15981e-05
1.16179e-05
1.16052e-05
1.15929e-05
1.16052e-05
2.00793e-05
6.31723e-05
0.00017291
0.000163692
6.41597e-05
5.88944e-05
5.89385e-05
7.63743e-05
0.000376885
0.000799552
0.000443365
0.000142082
6.62371e-05
6.62517e-05
7.87964e-05
0.000361798
0.000776382
0.000631618
0.000228963
8.07925e-05
7.84065e-05
9.42585e-05
0.000389307
0.000585766
0.000400411
0.000158405
8.06503e-05
8.06515e-05
0.000734311
0.0787704
0.740823
0.737242
0.192397
0.00732377
1.48207e-05
-1.68048e-08
-2.13944e-09
-8.9002e-11
1.29363e-13
5.29095e-14
3.08122e-14
2.34823e-05
6.64257e-05
0.00012728
0.00013118
8.12337e-05
8.11917e-05
0.000241211
0.00264714
0.021011
0.0807919
0.102032
0.0658502
0.016553
0.00112369
3.88708e-05
4.4153e-05
9.65665e-05
0.000162947
0.00017849
0.000173598
0.000159278
0.000121199
6.9392e-05
5.89471e-05
6.39205e-05
7.23747e-05
0.000109345
0.00019491
0.000256774
0.000254293
0.000244277
0.000244483
0.000255543
0.000267566
0.000283696
0.000322174
0.000359318
0.000343615
0.000296865
0.000229745
0.00023652
0.000403665
0.000536829
0.000492997
0.000380979
0.000122717
0.000136239
0.00397023
0.178759
0.549354
0.347071
0.0579255
0.00152876
6.58989e-08
-1.64765e-08
-2.42924e-09
-1.20291e-10
3.23908e-13
1.0024e-12
6.60706e-05
0.000395196
0.00165049
0.00382383
0.00359612
0.00165866
0.000175741
0.000230704
0.00111786
0.00751825
0.0359274
0.0910187
0.0903115
0.0452946
0.00632135
0.000194159
0.000114335
0.000125724
0.000120839
0.000110174
9.8547e-05
7.67013e-05
4.19083e-05
3.20087e-05
3.43228e-05
7.94025e-05
0.000336875
0.000518009
0.000517581
0.000395986
0.000217586
0.000145272
0.000108308
0.000109868
0.000152871
0.000348889
0.000866008
0.000872416
0.00048309
0.000265847
0.000273419
0.000334418
0.000459591
0.000501583
0.000468238
0.000359173
9.77227e-05
0.000151135
0.00711979
0.259012
0.486825
0.235837
0.0263063
0.00041461
-9.00074e-08
-8.81435e-09
-1.29924e-09
-6.19514e-11
2.2564e-12
1.27482e-11
7.36692e-05
0.000569291
0.000758368
0.000391358
6.86512e-05
2.84892e-05
4.7426e-05
0.000374314
0.00313738
0.0149151
0.0259961
0.0226232
0.012047
0.00321656
0.000344104
7.6036e-05
9.72979e-05
0.000128451
0.000144301
0.000140546
0.000113941
7.22514e-05
7.04889e-05
0.000155891
0.000457535
0.000597155
0.000597151
0.00043401
0.000157023
7.9835e-05
0.000107334
0.00023697
0.00142569
0.0019022
0.00106454
0.000326961
0.000321195
0.000309238
0.0001768
0.000195836
0.000456805
0.000577206
0.000577277
0.000496357
0.000291738
0.000134375
7.27168e-05
0.000108971
0.00608834
0.30017
0.588232
0.272243
0.0273738
0.000389474
-8.27573e-08
-8.12788e-09
-1.06957e-09
-4.65138e-11
1.34576e-10
4.67165e-10
1.99273e-14
-8.82923e-14
-1.59672e-12
3.4037e-06
6.76777e-06
1.29173e-05
3.3667e-05
9.76312e-05
0.000308808
0.000617136
0.000640768
0.000357662
0.000123465
2.75137e-05
1.24182e-05
1.93306e-05
2.32662e-05
2.23893e-05
1.84006e-05
1.58453e-05
1.86846e-05
4.06004e-05
0.000108487
0.000148152
0.000151898
0.000139027
9.77049e-05
5.10852e-05
3.83919e-05
0.000101486
0.0004711
0.000601474
0.000601487
0.00052817
0.000267414
5.94025e-05
3.04188e-05
3.69642e-05
5.62858e-05
0.00010363
0.000155185
0.000165624
0.000181656
0.000168834
0.000131222
8.80701e-05
7.27098e-05
0.000190972
0.00760443
0.167128
0.363408
0.22303
0.0394083
0.00113001
6.62096e-07
-1.18689e-09
-5.17916e-10
-1.73565e-11
1.09163e-17
1.94933e-10
4.03395e-10
6.35111e-10
1.42019e-10
4.94586e-16
1.67758e-15
5.40433e-15
1.37152e-14
1.33567e-14
-6.5475e-14
-7.61154e-12
4.11957e-11
-1.85123e-10
-1.299e-09
5.55171e-07
1.14973e-06
1.44798e-06
1.33541e-06
1.28754e-06
2.39911e-06
5.0954e-06
1.06554e-05
1.79824e-05
2.14346e-05
1.18605e-05
6.56875e-06
8.09751e-06
1.12735e-05
1.46625e-05
1.73939e-05
1.97362e-05
2.19786e-05
2.38673e-05
2.10536e-05
1.69284e-05
1.23419e-05
1.00894e-05
1.12486e-05
1.42878e-05
1.88205e-05
2.22469e-05
2.60282e-05
3.43011e-05
4.73559e-05
5.48132e-05
5.67419e-05
6.43269e-05
0.000160803
0.0011858
0.0123369
0.0519204
0.0974916
0.085566
0.0268401
0.00121808
1.73703e-06
-1.56109e-10
-1.50449e-10
-4.37243e-12
-1.44527e-10
-1.21401e-10
-9.17083e-11
-2.97263e-11
1.03843e-17
2.92275e-17
9.87719e-17
2.89315e-16
5.62959e-16
2.05221e-16
-8.33551e-16
-2.00865e-14
-1.73196e-12
-3.38105e-11
-4.12406e-11
-2.76263e-11
2.30638e-09
3.13085e-10
1.63221e-10
9.5482e-09
7.22054e-08
2.44509e-07
4.61431e-07
3.8869e-07
9.9014e-08
1.18338e-09
1.18556e-13
-2.30693e-16
-4.16553e-16
-1.08377e-15
-2.13171e-15
-2.89996e-15
-2.14581e-15
-1.30045e-15
-9.13775e-15
-1.13127e-14
9.35652e-09
1.8824e-08
3.141e-08
3.43719e-08
2.30637e-08
2.30601e-08
1.15764e-07
6.18462e-07
2.33086e-06
6.59611e-06
1.52265e-05
3.79127e-05
0.000100731
0.000366023
0.00175426
0.00629582
0.011818
0.0132077
0.00732154
0.000541874
2.51381e-07
-4.35918e-10
-4.17061e-11
-9.26596e-13
-1.74191e-10
-1.97675e-10
-2.3802e-10
-2.73057e-10
-3.07708e-10
-3.43963e-10
-3.9255e-10
-4.43977e-10
-5.01227e-10
-5.55273e-10
-6.15162e-10
-6.8979e-10
-7.84947e-10
-9.13072e-10
-1.07562e-09
-1.2995e-09
-1.61463e-09
-1.90821e-09
-2.02403e-09
-1.69786e-09
-4.62282e-10
-5.98725e-15
-7.21726e-15
7.81674e-14
-9.12107e-10
-2.96e-09
-2.87866e-09
-2.67127e-09
-2.44396e-09
-2.1968e-09
-1.90931e-09
-1.56586e-09
-1.15042e-09
-6.39728e-10
-1.52468e-10
-6.41779e-17
3.58349e-10
3.10376e-09
6.54378e-09
1.01924e-08
1.7091e-08
3.36581e-08
7.92159e-08
2.38125e-07
7.36916e-07
2.4249e-06
6.86824e-06
1.11239e-05
1.19332e-05
5.31121e-06
1.76171e-05
0.0001816
0.00044712
0.000634395
0.000507122
5.55687e-05
4.3423e-10
-2.20835e-10
-1.04653e-11
-1.78312e-13
-1.2406e-10
-1.62332e-10
-2.21582e-10
-2.876e-10
-3.55312e-10
-4.24516e-10
-5.03911e-10
-5.98534e-10
-7.18005e-10
-8.61173e-10
-1.0263e-09
-1.19533e-09
-1.35983e-09
-1.54434e-09
-1.75982e-09
-1.9982e-09
-2.24804e-09
-2.49526e-09
-2.73123e-09
-2.93783e-09
-3.06891e-09
-3.09689e-09
-3.16726e-09
-3.29117e-09
-3.42585e-09
-3.39536e-09
-3.3237e-09
-3.26354e-09
-3.23991e-09
-3.237e-09
-3.21827e-09
-3.14935e-09
-2.99153e-09
-2.71025e-09
-2.27651e-09
-1.70259e-09
-1.08047e-09
-5.2418e-10
-1.65004e-10
4.38719e-11
2.0236e-09
2.76124e-08
1.302e-07
4.30024e-07
1.08615e-06
1.8916e-06
2.66294e-06
3.01801e-06
1.45659e-06
4.62732e-07
6.28224e-07
2.07438e-06
3.6333e-06
4.76555e-06
4.42786e-06
4.51899e-07
-7.88381e-10
-9.22465e-11
-2.87913e-12
-4.13731e-14
-4.93776e-11
-5.89419e-11
-8.1602e-11
-1.10668e-10
-1.44808e-10
-1.82566e-10
-2.25929e-10
-2.76184e-10
-3.36015e-10
-4.04682e-10
-4.81783e-10
-5.60066e-10
-6.38991e-10
-7.09756e-10
-7.76147e-10
-8.39035e-10
-9.0607e-10
-9.81242e-10
-1.06961e-09
-1.16456e-09
-1.25968e-09
-1.34379e-09
-1.41158e-09
-1.46519e-09
-1.50929e-09
-1.56134e-09
-1.63782e-09
-1.74517e-09
-1.86323e-09
-1.97187e-09
-2.04036e-09
-2.03617e-09
-1.92653e-09
-1.6831e-09
-1.29276e-09
-7.87422e-10
-4.71099e-10
-2.17451e-10
-2.82784e-16
1.40997e-09
1.44407e-08
7.47101e-08
3.21205e-07
1.15535e-06
3.23419e-06
5.29989e-06
4.79382e-06
1.26325e-06
2.58691e-07
-7.55565e-10
1.58264e-10
9.44191e-09
1.75047e-08
2.37447e-08
3.80642e-09
-4.23351e-10
-2.09173e-10
-1.15196e-11
-2.30114e-13
-2.59879e-15
-9.15053e-12
-8.76003e-12
-1.17077e-11
-1.60561e-11
-2.21594e-11
-2.95022e-11
-3.83268e-11
-4.84935e-11
-6.02396e-11
-7.34014e-11
-8.81147e-11
-1.03575e-10
-1.19891e-10
-1.32376e-10
-1.41836e-10
-1.49862e-10
-1.59725e-10
-1.72549e-10
-1.9049e-10
-2.12053e-10
-2.37227e-10
-2.63408e-10
-2.89259e-10
-3.15122e-10
-3.42937e-10
-3.76871e-10
-4.20774e-10
-4.73243e-10
-5.28132e-10
-5.79231e-10
-6.17805e-10
-6.36138e-10
-6.29153e-10
-5.96815e-10
-5.4361e-10
-4.81428e-10
-4.25059e-10
-3.41627e-10
-2.221e-10
-1.32172e-10
-6.31569e-11
-1.36333e-11
-1.8546e-14
2.85511e-09
1.18819e-08
1.4806e-08
6.09691e-09
3.3241e-10
-1.9725e-11
-1.40688e-11
4.07219e-10
9.45152e-10
1.48878e-10
-3.42138e-13
-6.64203e-10
-1.25415e-10
-2.16538e-11
-6.43207e-13
-8.43521e-15
-7.27018e-17
-2.21365e-12
-2.97691e-13
-3.93628e-13
-5.27866e-13
-8.11926e-13
-1.22932e-12
-1.78053e-12
-2.45231e-12
-3.23112e-12
-4.1024e-12
-5.08585e-12
-6.17868e-12
-7.37926e-12
-8.22858e-12
-8.70451e-12
-9.06331e-12
-9.65293e-12
-1.05451e-11
-1.20052e-11
-1.38799e-11
-1.62527e-11
-1.89313e-11
-2.17878e-11
-2.48911e-11
-2.84906e-11
-3.31834e-11
-3.98225e-11
-4.83056e-11
-5.84147e-11
-6.99603e-11
-8.2492e-11
-9.55656e-11
-1.09031e-10
-1.23433e-10
-1.39817e-10
-1.59329e-10
-1.8223e-10
-2.0546e-10
-2.19531e-10
-2.06239e-10
-1.45898e-10
-4.07844e-11
6.86083e-11
1.34124e-10
1.01915e-10
1.36193e-11
-2.35844e-13
-2.5036e-13
-1.05594e-13
-3.97954e-11
-2.86967e-10
-2.53251e-10
-2.0466e-10
-1.93576e-10
-1.08036e-10
-1.26683e-11
-9.44546e-13
-1.60653e-14
-1.44738e-16
-9.64086e-19
-6.23727e-13
-1.9034e-13
-2.66604e-13
-3.29959e-13
-4.33814e-13
-5.5432e-13
-7.13972e-13
-9.03824e-13
-1.14668e-12
-1.43926e-12
-1.8054e-12
-2.24809e-12
-2.78585e-12
-3.42735e-12
-4.19317e-12
-5.09373e-12
-6.15145e-12
-7.37928e-12
-8.80088e-12
-1.04338e-11
-1.22911e-11
-1.43883e-11
-1.67306e-11
-1.93138e-11
-2.20871e-11
-2.49192e-11
-2.7515e-11
-2.93721e-11
-2.9808e-11
-2.83757e-11
-2.54951e-11
-2.24564e-11
-2.01407e-11
-1.86046e-11
-1.78797e-11
-1.80705e-11
-1.923e-11
-2.11569e-11
-2.32165e-11
-2.41656e-11
-2.26596e-11
-1.80012e-11
-1.19975e-11
-7.88023e-12
-7.99398e-12
-1.2921e-11
-2.30131e-11
-3.82025e-11
-5.91086e-11
-8.63314e-11
-1.11744e-10
-1.3e-10
-1.35225e-10
-1.31228e-10
-6.42385e-11
-9.74995e-12
-9.85101e-13
-3.42303e-14
-3.57974e-16
-2.42678e-18
-2.10763e-12
-3.67382e-12
-4.87031e-12
-6.40865e-12
-8.34548e-12
-1.0491e-11
-1.30988e-11
-1.60506e-11
-1.96741e-11
-2.38433e-11
-2.89281e-11
-3.48655e-11
-4.1796e-11
-4.97424e-11
-5.86082e-11
-6.83018e-11
-7.85881e-11
-8.90244e-11
-9.93026e-11
-1.08786e-10
-1.16833e-10
-1.22593e-10
-1.24843e-10
-1.2219e-10
-1.12837e-10
-9.53348e-11
-6.88858e-11
-3.43368e-11
2.94954e-12
1.09579e-10
4.57486e-10
8.47398e-10
1.13709e-09
1.24931e-09
1.25666e-09
1.0736e-09
7.29237e-10
3.70524e-10
1.30875e-10
4.01254e-11
2.25869e-11
5.42438e-11
3.5999e-10
9.96359e-10
1.60616e-09
1.92889e-09
2.01888e-09
2.00295e-09
2.1602e-09
2.32255e-09
2.31268e-09
2.38831e-09
2.05217e-09
4.9465e-10
7.17049e-12
-2.64217e-11
-9.01769e-12
-8.24817e-13
-1.34976e-14
-1.17499e-16
2.55401e-12
-1.0318e-11
-1.53341e-11
-2.13611e-11
-2.82748e-11
-3.61073e-11
-4.47824e-11
-5.4296e-11
-6.4762e-11
-7.58574e-11
-8.79823e-11
-1.00369e-10
-1.12494e-10
-1.23246e-10
-1.31284e-10
-1.35285e-10
-1.34205e-10
-1.27269e-10
-1.14557e-10
-9.6255e-11
-7.25827e-11
-4.43207e-11
-1.23796e-11
2.56849e-11
1.83705e-10
4.01451e-10
6.44246e-10
9.85747e-10
1.61072e-09
5.19436e-09
2.72932e-08
7.84249e-08
1.12616e-07
1.34988e-07
1.65354e-07
1.87627e-07
1.82145e-07
1.08144e-07
6.2881e-08
5.39372e-08
5.60514e-08
1.0453e-07
2.1589e-07
4.53018e-07
9.28152e-07
1.83153e-06
2.64212e-06
2.06669e-06
1.11782e-06
6.89544e-07
4.94661e-07
4.60759e-07
4.62224e-07
4.31972e-07
3.04034e-07
3.91085e-08
-3.98645e-11
-8.40953e-12
-2.41092e-13
-2.73324e-15
-2.04593e-11
-3.97776e-11
-6.02691e-11
-8.30962e-11
-1.05518e-10
-1.28667e-10
-1.49838e-10
-1.70216e-10
-1.88293e-10
-2.04994e-10
-2.2045e-10
-2.34998e-10
-2.48793e-10
-2.62039e-10
-2.73165e-10
-2.79245e-10
-2.75504e-10
-2.56469e-10
-2.19921e-10
-1.69586e-10
-1.25739e-10
-8.50703e-11
-4.55476e-11
-6.35628e-12
3.43827e-11
1.62707e-10
3.24622e-10
6.71028e-10
1.85518e-09
6.08591e-09
1.67123e-08
3.24815e-08
4.69358e-08
5.85646e-08
6.88694e-08
7.9362e-08
9.48909e-08
1.30883e-07
2.26202e-07
4.88416e-07
1.27843e-06
3.57353e-06
1.01611e-05
2.78495e-05
5.89976e-05
0.000119492
0.000212986
0.000292874
0.000167938
4.99464e-05
9.804e-06
9.53854e-06
1.91739e-05
2.95402e-05
3.49293e-05
1.33514e-05
9.68459e-08
-4.41549e-11
-2.73554e-12
-4.20649e-14
-8.60517e-11
-1.35337e-10
-1.93654e-10
-2.52037e-10
-3.07009e-10
-3.6167e-10
-4.10953e-10
-4.55794e-10
-4.96774e-10
-5.33751e-10
-5.72771e-10
-6.13239e-10
-6.59976e-10
-7.1158e-10
-7.64348e-10
-8.07744e-10
-8.24372e-10
-7.8749e-10
-6.89182e-10
-5.3247e-10
-3.49024e-10
-1.87722e-10
-8.27058e-11
-2.67585e-11
3.43142e-12
6.6639e-11
2.49091e-10
5.48671e-10
1.29397e-09
2.75683e-09
4.9109e-09
7.21965e-09
9.68461e-09
1.21941e-08
1.49284e-08
1.82804e-08
2.83749e-08
5.24674e-08
1.0276e-07
2.48749e-07
7.85762e-07
2.78583e-06
8.49707e-06
2.46116e-05
7.96781e-05
0.000190314
0.000279281
0.000291949
0.000259162
0.000194034
5.74674e-05
9.99396e-05
0.000333786
0.00066714
0.000911498
0.000451161
8.06893e-06
-8.95752e-11
-1.89103e-11
-4.11449e-13
-1.01425e-10
-1.22326e-10
-1.28785e-10
-1.30685e-10
-1.31412e-10
-1.26415e-10
-1.22236e-10
-1.17784e-10
-1.29075e-10
-1.39828e-10
-1.47849e-10
-1.48563e-10
-1.4499e-10
-1.33286e-10
-1.03356e-10
-5.81498e-11
-4.81638e-12
-1.69871e-17
-2.25713e-17
-4.74805e-17
-6.74794e-17
-9.61731e-17
-1.66507e-16
1.90409e-11
9.00398e-10
4.06434e-09
8.97426e-09
1.58026e-08
2.40203e-08
3.21235e-08
3.83241e-08
4.1882e-08
4.23702e-08
3.98555e-08
3.85799e-08
5.30772e-08
8.91095e-08
1.28082e-07
1.40412e-07
2.10544e-07
4.4228e-07
1.20621e-06
4.77489e-06
2.13379e-05
4.71578e-05
7.05221e-05
9.06527e-05
0.000104817
0.000121297
0.000248653
0.000301253
0.000754648
0.00297245
0.00719761
0.00904485
0.00343759
6.28599e-05
5.73577e-10
-5.07616e-11
-1.4119e-12
-5.53948e-11
-3.18268e-12
-7.39049e-18
5.98393e-17
1.71354e-16
2.70569e-11
3.19465e-09
5.42115e-09
5.88543e-09
5.94825e-09
5.37178e-09
5.8534e-09
7.50652e-09
9.47151e-09
1.02221e-08
1.01533e-08
1.17558e-08
1.48696e-08
1.77348e-08
1.93193e-08
2.11455e-08
2.87294e-08
4.92972e-08
7.94965e-08
1.21367e-07
1.80367e-07
2.55255e-07
3.48769e-07
4.85155e-07
6.65886e-07
8.88184e-07
1.17057e-06
1.5347e-06
1.99928e-06
2.51888e-06
2.85391e-06
2.60952e-06
1.86124e-06
1.3901e-06
1.27527e-06
1.32685e-06
1.86261e-06
3.03359e-06
5.21701e-06
4.88617e-06
5.24606e-06
8.78673e-06
1.15552e-05
1.32301e-05
9.58413e-05
0.0012132
0.00721197
0.0288754
0.0572861
0.044077
0.00750599
7.26587e-05
-2.20256e-09
-1.56973e-10
-4.07354e-12
1.68728e-10
5.83686e-09
2.25066e-08
4.72726e-08
1.45382e-07
3.08781e-07
5.08078e-07
6.63127e-07
7.94151e-07
8.98296e-07
9.24705e-07
9.59894e-07
1.04786e-06
1.18409e-06
1.37771e-06
1.53564e-06
1.63305e-06
1.72774e-06
1.91686e-06
2.14029e-06
2.34047e-06
2.50009e-06
2.81332e-06
3.32052e-06
3.82765e-06
4.07339e-06
4.22716e-06
4.16871e-06
4.28427e-06
5.13294e-06
6.78347e-06
9.02551e-06
1.13375e-05
1.28918e-05
1.36138e-05
1.38687e-05
1.47481e-05
1.53215e-05
1.46125e-05
1.26537e-05
1.17844e-05
1.24721e-05
1.45113e-05
1.82912e-05
2.09369e-05
2.20823e-05
1.46187e-05
3.84793e-06
2.55327e-06
4.51519e-05
0.00241666
0.041486
0.206973
0.228361
0.0923952
0.00511061
1.44025e-05
-5.4456e-09
-4.25453e-10
-1.25193e-11
3.87053e-09
3.05855e-08
8.72781e-08
1.20192e-07
3.84319e-13
6.3481e-07
2.23499e-06
3.20373e-06
4.29367e-06
5.15583e-06
6.53408e-06
8.42023e-06
1.02585e-05
1.1881e-05
1.27886e-05
1.34079e-05
1.37902e-05
1.37733e-05
1.40425e-05
1.53882e-05
1.7775e-05
2.04239e-05
2.34289e-05
2.70768e-05
3.14011e-05
3.64124e-05
4.31706e-05
5.36196e-05
6.6304e-05
8.16685e-05
9.63461e-05
0.000103817
0.000104695
0.000101949
9.14847e-05
7.85045e-05
7.66362e-05
8.28113e-05
9.53974e-05
0.000102455
0.000107951
0.000107311
0.000102263
9.07614e-05
8.59773e-05
9.16863e-05
0.000101672
9.41864e-05
3.06997e-05
5.62918e-05
0.00258507
0.146077
0.676026
0.501765
0.0787864
0.00164208
-5.46363e-08
-1.43027e-08
-1.01409e-09
-3.16454e-11
2.71888e-09
1.21551e-14
4.16934e-15
-7.13396e-15
3.31816e-05
9.32329e-05
0.000126071
5.89926e-05
2.18087e-05
2.32741e-05
3.1254e-05
4.61737e-05
6.88412e-05
9.28117e-05
0.000116356
0.000147504
0.000186664
0.000231417
0.000265932
0.000266058
0.000230369
0.000223743
0.000225207
0.000210054
0.000175911
0.000147077
0.000142853
0.000156195
0.000202117
0.000297572
0.000431401
0.000604297
0.000817988
0.00104822
0.00127915
0.0014959
0.00168829
0.00184621
0.00197317
0.00206136
0.00209658
0.00204879
0.00185063
0.00143423
0.00101522
0.000915795
0.000929217
0.000857815
0.000421685
0.000217504
0.00378905
0.252766
0.866224
0.580825
0.078594
0.00158594
-2.40543e-07
-2.17399e-08
-2.06306e-09
-8.43683e-11
1.43412e-13
-2.86281e-14
9.42373e-10
-2.12719e-10
0.000121199
0.000458143
0.00128776
0.00164296
0.000911234
0.000126317
1.96449e-05
3.79425e-05
6.64484e-05
7.83416e-05
8.20914e-05
8.82583e-05
9.35018e-05
9.65074e-05
9.89255e-05
0.000104158
0.000114165
0.000126403
0.000135191
0.00013991
0.000145533
0.000152539
0.000165285
0.000203711
0.000275059
0.000364674
0.000461085
0.000554158
0.0006341
0.000714739
0.000810351
0.000928933
0.00108681
0.00131258
0.00162162
0.0019205
0.00201618
0.00197151
0.0017633
0.00138998
0.00112326
0.00100883
0.000892003
0.000683652
0.000240033
0.000217572
0.00527142
0.30226
0.684878
0.356678
0.0425232
0.000795741
-1.60522e-07
-1.49068e-08
-1.92737e-09
-9.04394e-11
1.95804e-12
0.000332414
0.00209371
0.00535351
0.0097265
0.0208469
0.0492592
0.0531996
0.0322287
0.00627024
0.000517103
0.000602496
0.000798007
0.000485189
0.000119656
7.2025e-05
6.93386e-05
5.87229e-05
5.45928e-05
8.59904e-05
0.000194748
0.000307413
0.00023412
5.52837e-05
1.78771e-05
6.90042e-05
0.000282568
0.00029642
0.00029848
0.000300159
0.000318593
0.000345975
0.000381749
0.000428065
0.000479268
0.000539155
0.000636293
0.000846784
0.00118963
0.00132767
0.00127094
0.00104845
0.000832926
0.000774872
0.000729999
0.00061384
0.00046465
0.000286898
0.000152292
0.000264422
0.0179945
0.377345
0.476274
0.193855
0.016993
0.000237331
-7.79925e-08
-8.45639e-09
-1.44724e-09
-7.7951e-11
2.43733e-13
5.97893e-14
-1.77183e-10
0.000118128
0.000591152
0.002444
0.00728892
0.0102545
0.00840282
0.00440101
0.00497606
0.00743055
0.00660352
0.00282955
0.00036725
9.25737e-05
8.43992e-05
6.92099e-05
5.29606e-05
5.65642e-05
0.000104688
0.000208035
0.000207711
0.000124465
3.52164e-05
1.66015e-05
3.19355e-05
0.000196288
0.000298449
0.000255484
0.000211283
0.000218168
0.000223939
0.000222999
0.000218001
0.000209901
0.000204035
0.000205433
0.000224634
0.000306485
0.000490976
0.000640705
0.000635366
0.000534867
0.000362985
0.000343745
0.000402292
0.000358547
0.000152317
0.000243235
0.0107812
0.284855
0.467165
0.229495
0.027258
0.000496497
5.74984e-08
-9.37527e-09
-1.60543e-09
-8.6263e-11
2.53418e-14
4.72997e-14
7.83233e-14
7.51597e-14
2.81238e-05
9.4397e-05
0.000261285
0.00051555
0.0010605
0.00271911
0.00657588
0.00891819
0.00665155
0.00193589
0.0001444
3.7124e-05
4.12609e-05
4.90553e-05
5.5585e-05
6.02093e-05
6.28232e-05
6.20662e-05
6.2952e-05
7.28441e-05
9.54312e-05
0.000115994
0.000131696
0.000149278
0.000173401
0.000199153
0.000226823
0.00025078
0.00025632
0.000253089
0.00023838
0.000210423
0.00019235
0.000192846
0.00020387
0.000253362
0.000384647
0.000517411
0.000520904
0.000449457
0.000301371
0.00025711
0.000268857
0.00027245
0.000206334
0.000127197
0.00179422
0.146885
0.702726
0.513011
0.0989549
0.00347027
7.29297e-06
-1.05756e-08
-2.60895e-09
-1.33865e-10
2.12777e-07
4.80844e-07
1.14251e-06
4.02665e-07
6.8454e-07
4.70018e-06
1.43615e-05
3.93862e-05
0.000142067
0.000430479
0.000577322
0.000447302
0.000152752
1.20526e-05
1.00789e-05
1.00808e-05
1.00623e-05
1.00684e-05
1.00621e-05
1.00687e-05
1.00725e-05
1.00837e-05
1.00869e-05
1.01007e-05
1.84831e-05
5.04236e-05
6.35872e-05
6.35862e-05
0.000191431
0.000231676
0.000231583
0.000214439
0.000184931
0.000156518
0.000144381
0.000152492
0.00019777
0.000235129
0.000232667
0.000224765
0.000205191
0.000182573
0.000163062
0.00011858
9.73685e-05
0.000108704
0.000161484
0.000231913
0.000127195
0.000128583
0.000933547
0.0859175
0.759123
0.728613
0.187093
0.00838171
3.51447e-05
-2.57831e-08
-3.31311e-09
-1.52228e-10
1.27906e-06
2.20999e-06
2.21007e-06
2.43034e-06
2.31505e-06
2.83435e-06
4.14026e-06
6.99789e-06
1.19983e-05
1.56862e-05
1.79915e-05
2.28725e-05
2.84319e-05
3.26458e-05
3.94221e-05
5.04058e-05
7.17298e-05
9.98874e-05
0.000114463
0.000106767
8.34212e-05
5.55729e-05
3.1849e-05
1.90826e-05
3.77664e-05
0.000234369
0.000289851
0.000275948
0.00019367
0.000109655
0.000125767
0.000491283
0.000794312
0.000426516
0.000142056
0.000152996
0.000355071
0.000552781
0.000381959
0.000188002
0.000163864
0.000201141
0.000268084
0.000429128
0.000396391
0.000405154
0.000436515
0.000391115
0.000224457
0.000124387
0.000790183
0.0506626
0.486549
0.515916
0.168426
0.00977882
5.01483e-05
-1.63939e-08
-1.4607e-09
-5.2936e-11
1.03512e-08
7.53951e-08
4.66947e-11
1.26448e-10
4.63637e-11
1.00853e-07
-1.58566e-11
4.11756e-12
1.92902e-13
1.99615e-12
2.13044e-10
1.60343e-10
2.42601e-08
6.94414e-06
3.11245e-06
2.62592e-06
3.3884e-06
5.28672e-06
7.46756e-06
1.11918e-05
1.65528e-05
2.08431e-05
2.38658e-05
2.9881e-05
6.2923e-05
0.000110362