/*--------------------------------*- C++ -*----------------------------------*\
| =========                 |                                                 |
| \\      /  F ield         | OpenFOAM: The Open Source CFD Toolbox           |
|  \\    /   O peration     | Version:  2.1.1                                 |
|   \\  /    A nd           | Web:      www.OpenFOAM.org                      |
|    \\/     M anipulation  |                                                 |
\*---------------------------------------------------------------------------*/
FoamFile
{
    version     2.0;
    format      ascii;
    class       volScalarField;
    location    "0.00125";
    object      criterion2;
}
// * * * * * * * * * * * * * * * * * * * * * * * * * * * * * * * * * * * * * //

dimensions      [1 2 -2 0 0 0 0];

internalField   nonuniform List<scalar> 
36520
(
2.03695e-09
5.9445e-09
9.61497e-09
1.08399e-08
1.17612e-08
1.23388e-08
1.28325e-08
1.32931e-08
1.37958e-08
1.43367e-08
1.47846e-08
1.5009e-08
1.48261e-08
1.42831e-08
1.36039e-08
1.29923e-08
1.25317e-08
1.22052e-08
1.19474e-08
1.17047e-08
1.1438e-08
1.11611e-08
1.08602e-08
1.05581e-08
1.0253e-08
9.97805e-09
9.74098e-09
9.56802e-09
9.4677e-09
9.46638e-09
9.56747e-09
9.77406e-09
1.00529e-08
1.03726e-08
1.06891e-08
1.09996e-08
1.13184e-08
1.17238e-08
1.2327e-08
1.32772e-08
1.47736e-08
1.69075e-08
1.95689e-08
2.28189e-08
2.70992e-08
3.29101e-08
4.20726e-08
6.02052e-08
9.36006e-08
1.48925e-07
2.32294e-07
3.45795e-07
5.0511e-07
8.51962e-07
1.3891e-06
1.57156e-06
1.07761e-06
7.48659e-07
4.94132e-07
3.33942e-07
9.04341e-09
2.55618e-10
1.52769e-09
1.45285e-09
1.51193e-09
1.43635e-09
1.47441e-09
1.56246e-09
1.89836e-09
2.51869e-09
3.54292e-09
4.92909e-09
5.41312e-09
4.78078e-09
3.75712e-09
2.73677e-09
2.06769e-09
1.8067e-09
1.83604e-09
1.98099e-09
2.10726e-09
2.22204e-09
2.27512e-09
2.34486e-09
2.41956e-09
2.59915e-09
2.88232e-09
3.34049e-09
3.97563e-09
4.85192e-09
5.95552e-09
7.26291e-09
8.58272e-09
9.65007e-09
1.0206e-08
1.02959e-08
1.00178e-08
9.61999e-09
9.21908e-09
8.86753e-09
8.57969e-09
8.34005e-09
8.12055e-09
8.04049e-09
8.20332e-09
8.34311e-09
8.36701e-09
8.46351e-09
8.92556e-09
9.5685e-09
1.01643e-08
1.02225e-08
9.34081e-09
8.02469e-09
6.1894e-09
5.62766e-09
2.01403e-08
1.41596e-07
1.28538e-07
2.31779e-06
2.58784e-10
-3.18048e-09
-2.04175e-09
-1.80322e-09
-1.57757e-09
-1.53931e-09
-1.38699e-09
-1.07819e-09
-3.29452e-10
6.91202e-10
1.22793e-09
8.3486e-10
3.08451e-10
2.49193e-10
1.33504e-09
3.32002e-09
3.10586e-09
2.80631e-09
2.90709e-09
3.05431e-09
3.05106e-09
2.98632e-09
2.79901e-09
2.66477e-09
2.51225e-09
2.47574e-09
2.5016e-09
2.62327e-09
2.75486e-09
2.88548e-09
2.93942e-09
2.92389e-09
2.84917e-09
2.75159e-09
2.63948e-09
2.51102e-09
2.35967e-09
2.20333e-09
2.08188e-09
2.02362e-09
2.05024e-09
2.16131e-09
2.33973e-09
2.61078e-09
2.99746e-09
3.41038e-09
3.70385e-09
3.98695e-09
4.35938e-09
4.62052e-09
5.27915e-09
7.38486e-09
9.78926e-09
9.75834e-09
7.80444e-09
6.06462e-09
4.49189e-09
1.24853e-08
1.13055e-07
2.92007e-06
-7.7174e-09
-4.69227e-09
-3.21802e-09
-2.56047e-09
-2.14106e-09
-1.88475e-09
-1.59e-09
-1.2279e-09
-8.26792e-10
-4.87271e-10
-2.48103e-10
-1.30008e-10
-1.08259e-10
-2.0809e-10
-4.1933e-10
-6.92395e-10
-7.78651e-10
-5.10176e-10
-3.51946e-10
-2.82008e-10
-3.27413e-10
-3.47739e-10
-3.8305e-10
-3.78516e-10
-4.00003e-10
-4.14527e-10
-4.03023e-10
-3.33692e-10
-2.32317e-10
-9.48278e-11
5.21214e-11
1.91594e-10
3.01302e-10
3.81611e-10
4.53501e-10
5.5827e-10
7.21837e-10
8.34614e-10
8.55232e-10
8.72298e-10
9.21487e-10
1.01395e-09
1.12961e-09
1.25337e-09
1.36903e-09
1.40132e-09
1.22507e-09
9.45297e-10
9.20363e-10
1.10152e-09
1.02745e-09
1.48409e-09
4.78308e-09
9.18045e-09
1.0119e-08
8.16702e-09
5.93833e-09
2.95756e-09
6.85607e-08
3.38412e-06
-1.46087e-08
-4.01894e-09
-2.2787e-09
-1.48384e-09
-1.19729e-09
-1.06411e-09
-9.60177e-10
-7.95642e-10
-5.14554e-10
-1.18631e-10
3.03208e-10
6.41497e-10
9.10615e-10
7.08182e-10
7.39687e-11
-4.80101e-10
-8.38652e-10
-1.03477e-09
-1.04979e-09
-9.70991e-10
-8.94162e-10
-8.38263e-10
-8.22416e-10
-8.07662e-10
-7.93137e-10
-7.44677e-10
-6.44001e-10
-4.96223e-10
-3.21646e-10
-1.22583e-10
8.86966e-11
2.99178e-10
4.79476e-10
5.99274e-10
6.46492e-10
5.23126e-10
2.65613e-10
4.54163e-11
-5.59715e-11
-1.63982e-11
9.2462e-11
1.90005e-10
2.95177e-10
4.42081e-10
6.23471e-10
8.38456e-10
9.69056e-10
9.7069e-10
9.95554e-10
1.04223e-09
7.67299e-10
5.93271e-10
6.48649e-10
2.37964e-09
7.67143e-09
1.12729e-08
8.59047e-09
4.02223e-09
1.00199e-08
3.8501e-06
-7.03247e-09
-1.71009e-09
-1.2691e-09
-1.0415e-09
-8.62618e-10
-6.66037e-10
-3.99648e-10
8.42974e-11
8.99849e-10
2.13806e-09
3.69415e-09
5.23602e-09
6.38728e-09
5.79412e-09
3.59946e-09
1.41829e-09
2.44823e-10
-1.54775e-10
-1.26555e-10
1.85433e-10
6.09244e-10
9.69648e-10
1.21693e-09
1.42416e-09
1.65386e-09
1.93602e-09
2.29932e-09
2.96581e-09
3.92722e-09
5.04721e-09
6.31284e-09
7.70377e-09
8.98955e-09
9.70564e-09
9.50241e-09
8.35764e-09
6.71526e-09
5.04082e-09
3.68e-09
2.51255e-09
1.53306e-09
9.23992e-10
4.96429e-10
4.54875e-10
5.51333e-10
6.78854e-10
8.51569e-10
1.15201e-09
1.42046e-09
1.04582e-09
4.07505e-10
1.48415e-10
1.22407e-10
1.47806e-10
4.9278e-10
8.67953e-09
1.21102e-08
5.67078e-09
3.37745e-09
4.34779e-06
1.66499e-08
-1.26769e-09
-8.23229e-10
-2.99273e-10
3.29915e-10
1.19473e-09
2.31034e-09
4.04745e-09
6.6525e-09
1.04514e-08
1.50976e-08
1.93868e-08
2.17215e-08
2.15241e-08
1.84906e-08
1.35869e-08
1.00857e-08
9.08523e-09
9.60083e-09
1.06533e-08
1.17651e-08
1.26596e-08
1.32443e-08
1.35759e-08
1.38631e-08
1.42364e-08
1.45712e-08
1.53444e-08
1.68459e-08
1.92298e-08
2.20359e-08
2.50068e-08
2.78698e-08
2.9966e-08
3.05921e-08
2.94485e-08
2.66691e-08
2.28087e-08
1.90216e-08
1.54565e-08
1.20852e-08
9.3224e-09
6.51342e-09
4.12841e-09
3.17297e-09
3.00472e-09
2.96919e-09
2.574e-09
2.04872e-09
9.76992e-10
1.09669e-10
2.09277e-11
1.35194e-11
1.41611e-11
6.8162e-11
1.97482e-09
1.32728e-08
7.58927e-09
3.30212e-09
4.78808e-06
1.91832e-08
-4.8296e-10
5.55221e-10
2.16966e-09
3.96645e-09
6.47939e-09
9.04693e-09
1.26536e-08
1.71747e-08
2.27842e-08
2.82958e-08
3.24845e-08
3.5303e-08
3.84927e-08
4.23088e-08
4.40837e-08
4.436e-08
4.49987e-08
4.57148e-08
4.55224e-08
4.44882e-08
4.27843e-08
4.088e-08
3.93167e-08
3.81695e-08
3.73867e-08
3.70269e-08
3.69987e-08
3.7215e-08
3.78817e-08
3.9223e-08
4.08756e-08
4.21501e-08
4.18672e-08
3.95797e-08
3.82866e-08
3.74062e-08
3.5799e-08
3.26662e-08
2.84083e-08
2.41078e-08
2.03696e-08
1.71556e-08
1.43898e-08
1.21607e-08
9.94176e-09
7.87051e-09
7.26565e-09
7.31243e-09
7.11224e-09
3.52257e-09
4.05553e-11
1.31542e-11
1.12788e-11
3.20919e-11
1.83801e-09
1.30113e-08
1.02655e-08
4.37441e-09
4.99379e-06
1.99492e-07
4.61362e-10
1.78477e-09
3.5071e-09
5.38759e-09
7.3008e-09
8.97069e-09
1.06447e-08
1.11118e-08
8.63009e-09
5.4408e-09
5.10196e-09
7.55262e-09
1.693e-08
2.82459e-08
3.40027e-08
3.79533e-08
4.14028e-08
4.46019e-08
4.76674e-08
4.97796e-08
5.03401e-08
5.02081e-08
4.98155e-08
4.91188e-08
4.77322e-08
4.5738e-08
4.34471e-08
4.12914e-08
3.93162e-08
3.75437e-08
3.59461e-08
3.44728e-08
3.30578e-08
3.14973e-08
2.95362e-08
2.71394e-08
2.44744e-08
2.17842e-08
1.93039e-08
1.70177e-08
1.49403e-08
1.35157e-08
1.32738e-08
1.46899e-08
1.67039e-08
1.6345e-08
1.67006e-08
1.88186e-08
1.98498e-08
1.16718e-08
8.74079e-11
1.64828e-11
1.36605e-11
2.87782e-11
1.17813e-09
1.8705e-08
1.77052e-08
7.67895e-09
4.80892e-06
2.9594e-07
3.18417e-11
1.3695e-09
2.65192e-09
4.36683e-09
5.61672e-09
6.73283e-09
7.95841e-09
8.9458e-09
9.03547e-09
8.00503e-09
6.36651e-09
6.75596e-09
1.00031e-08
1.91314e-08
2.55431e-08
2.69652e-08
2.7938e-08
2.93109e-08
3.1225e-08
3.35078e-08
3.71744e-08
4.30888e-08
5.19866e-08
5.99849e-08
6.08524e-08
5.76281e-08
5.25063e-08
4.69148e-08
4.23016e-08
3.84918e-08
3.50525e-08
3.21312e-08
3.0141e-08
2.90757e-08
2.85709e-08
2.77993e-08
2.65775e-08
2.50567e-08
2.31846e-08
2.08501e-08
1.86013e-08
1.71379e-08
1.66289e-08
1.55527e-08
1.41733e-08
1.41359e-08
1.6935e-08
2.20551e-08
2.85144e-08
1.2834e-08
9.46079e-11
2.56256e-11
2.68177e-11
5.82928e-11
1.89777e-09
2.32852e-08
2.0826e-08
9.17363e-09
4.72435e-06
1.32974e-07
-2.85548e-10
1.70456e-09
4.32913e-09
5.56031e-09
6.65426e-09
7.912e-09
9.95529e-09
1.25296e-08
1.23368e-08
6.70927e-09
3.50789e-09
3.82554e-09
7.70203e-09
3.05516e-08
5.42614e-08
5.77534e-08
5.93563e-08
5.93426e-08
5.99158e-08
6.18773e-08
6.53778e-08
7.1025e-08
7.80952e-08
8.25269e-08
8.29623e-08
7.99776e-08
7.42343e-08
6.56671e-08
5.71882e-08
5.62147e-08
5.76703e-08
5.95804e-08
6.13685e-08
6.26603e-08
6.27127e-08
6.10296e-08
5.80302e-08
5.49214e-08
5.1191e-08
4.66888e-08
4.15866e-08
3.6574e-08
3.13884e-08
2.51632e-08
1.9463e-08
1.67284e-08
1.94627e-08
2.52466e-08
2.78214e-08
1.18914e-08
6.93321e-11
2.16449e-11
2.06779e-11
5.00542e-11
2.71602e-09
1.90569e-08
1.76768e-08
8.27837e-09
4.74298e-06
2.15569e-08
-3.3878e-10
1.07452e-09
3.18154e-09
4.7697e-09
6.33821e-09
8.01474e-09
1.0713e-08
1.4692e-08
1.80332e-08
8.63301e-09
2.87424e-09
3.74468e-09
9.5081e-09
4.52873e-08
6.85603e-08
7.39874e-08
7.86114e-08
8.10469e-08
8.22235e-08
8.45113e-08
8.78845e-08
9.08776e-08
8.89029e-08
8.27695e-08
8.81754e-08
9.33796e-08
8.77756e-08
7.6684e-08
5.62777e-08
4.99539e-08
5.71833e-08
6.77507e-08
7.52775e-08
7.86339e-08
6.69907e-08
4.39836e-08
4.30642e-08
4.80211e-08
6.14906e-08
5.719e-08
4.80403e-08
3.89912e-08
3.10069e-08
2.33419e-08
1.58918e-08
1.2586e-08
1.45129e-08
2.21224e-08
2.36538e-08
1.31118e-08
8.09368e-11
2.23589e-11
1.74031e-11
2.2489e-11
8.36569e-10
9.74318e-09
8.84379e-09
4.56615e-09
5.03704e-06
2.02877e-08
-2.98014e-10
6.88158e-10
2.34129e-09
3.76313e-09
5.82291e-09
8.01361e-09
1.09997e-08
1.36468e-08
1.11606e-08
3.82326e-09
1.0098e-09
5.58504e-10
7.05745e-10
1.93872e-09
1.97156e-08
7.1803e-08
8.14778e-08
8.6766e-08
9.07752e-08
9.4313e-08
9.74038e-08
9.90824e-08
9.61973e-08
8.61108e-08
8.59528e-08
9.20439e-08
8.63255e-08
7.82188e-08
7.04841e-08
5.03479e-08
3.63437e-08
4.99273e-08
6.96364e-08
7.86643e-08
8.04262e-08
7.90521e-08
5.76929e-08
3.90893e-08
4.03098e-08
5.1143e-08
5.01703e-08
3.87822e-08
2.66091e-08
1.31692e-08
8.0001e-09
9.15961e-09
1.60073e-08
2.36811e-08
2.48623e-08
1.37192e-08
9.81042e-11
2.71954e-11
2.02701e-11
2.41703e-11
7.9924e-10
8.9897e-09
8.21179e-09
4.34874e-09
5.05629e-06
1.20863e-07
-1.12098e-11
2.13146e-09
4.5136e-09
6.58846e-09
8.06515e-09
9.05661e-09
1.07784e-08
1.34589e-08
1.51967e-08
4.95795e-09
5.8731e-10
2.00479e-10
2.03472e-10
3.29233e-10
1.47728e-09
2.62397e-08
7.09828e-08
7.65962e-08
7.69579e-08
7.55405e-08
7.73606e-08
7.99051e-08
8.2365e-08
8.59383e-08
8.96472e-08
8.6671e-08
7.89774e-08
7.12905e-08
6.42951e-08
5.71869e-08
5.42862e-08
5.61543e-08
5.89447e-08
6.08317e-08
6.1007e-08
5.9751e-08
5.6913e-08
5.18306e-08
4.60752e-08
4.19308e-08
3.78115e-08
3.26735e-08
2.36445e-08
1.35843e-08
8.7756e-09
8.31262e-09
1.18022e-08
2.0408e-08
2.11848e-08
3.0116e-09
4.99346e-11
2.82193e-11
2.7857e-11
8.67074e-11
4.89778e-09
1.6816e-08
1.60669e-08
7.93868e-09
4.89159e-06
2.95981e-07
-6.53791e-10
8.46371e-10
2.02783e-09
1.94935e-09
1.23152e-09
1.58196e-09
3.81927e-09
1.22601e-08
1.36106e-08
8.31355e-09
1.53042e-09
3.17456e-10
1.81463e-10
2.24957e-10
4.71367e-10
4.66211e-09
5.47481e-08
6.38556e-08
6.64552e-08
6.97835e-08
7.29199e-08
7.51509e-08
7.63065e-08
7.62341e-08
7.16718e-08
6.53513e-08
5.71897e-08
4.13237e-08
3.38763e-08
3.34389e-08
3.7441e-08
4.53272e-08
5.00129e-08
5.25487e-08
5.14899e-08
4.65623e-08
3.50256e-08
2.06384e-08
1.81064e-08
2.14249e-08
2.23674e-08
1.8256e-08
1.35869e-08
9.427e-09
7.62728e-09
7.70601e-09
1.03707e-08
1.84614e-08
1.99922e-08
1.48953e-09
3.90804e-11
2.90033e-11
3.39226e-11
2.26342e-10
9.07243e-09
2.31565e-08
1.85367e-08
8.77873e-09
5.21769e-06
2.0685e-07
-5.38689e-10
1.0761e-09
1.93457e-09
2.7995e-09
4.95427e-09
8.26424e-09
1.08258e-08
1.43842e-08
1.474e-08
4.35501e-09
8.73366e-10
5.76361e-10
8.2531e-10
1.98875e-09
9.74858e-09
4.48307e-08
5.96388e-08
5.92584e-08
5.83713e-08
5.82472e-08
5.87678e-08
5.99903e-08
6.12021e-08
5.81704e-08
4.91463e-08
3.40848e-08
2.85125e-08
2.73992e-08
3.07802e-08
3.97645e-08
4.30339e-08
4.15205e-08
3.56116e-08
1.44378e-08
1.07389e-08
1.55597e-08
2.47142e-08
2.19497e-08
1.94315e-08
1.94769e-08
1.67396e-08
1.13064e-08
8.93722e-09
8.04181e-09
8.43332e-09
1.10177e-08
1.62171e-08
2.14311e-08
2.15571e-08
1.80176e-09
3.36817e-11
2.50131e-11
2.94497e-11
2.12006e-10
9.0746e-09
2.33167e-08
1.69899e-08
7.83453e-09
5.25459e-06
2.09705e-08
-5.60255e-10
6.83279e-10
2.34405e-09
4.30538e-09
6.24963e-09
8.35043e-09
1.11733e-08
1.48697e-08
1.91101e-08
2.0949e-08
1.99323e-08
2.1353e-08
2.78013e-08
3.54535e-08
4.07085e-08
4.23744e-08
4.31384e-08
4.48819e-08
4.68984e-08
4.85114e-08
4.92836e-08
4.85036e-08
4.54684e-08
3.93287e-08
3.46225e-08
3.20637e-08
3.11319e-08
3.25743e-08
3.56819e-08
3.83127e-08
3.77622e-08
2.76454e-08
2.53458e-08
2.47957e-08
2.47237e-08
2.83743e-08
3.11167e-08
2.76182e-08
2.31024e-08
1.86671e-08
1.46408e-08
1.18016e-08
1.05881e-08
1.01331e-08
1.07571e-08
1.25964e-08
1.52814e-08
1.67392e-08
1.45889e-08
9.4047e-10
2.72469e-11
1.41897e-11
1.50036e-11
7.83196e-11
3.65333e-09
1.46324e-08
9.3336e-09
4.02602e-09
5.05273e-06
2.45373e-08
-1.34747e-09
-9.04314e-10
-4.11177e-10
1.32076e-10
8.98471e-10
1.8465e-09
3.18096e-09
5.11836e-09
7.89381e-09
1.11589e-08
1.38462e-08
1.51062e-08
1.47098e-08
1.39761e-08
1.30197e-08
1.12635e-08
1.01366e-08
1.07802e-08
1.2105e-08
1.36399e-08
1.49177e-08
1.50747e-08
1.38614e-08
1.16762e-08
9.33471e-09
7.51797e-09
6.68706e-09
6.86945e-09
7.54357e-09
8.16527e-09
8.56836e-09
8.80296e-09
9.04768e-09
9.37315e-09
9.14191e-09
8.5876e-09
7.71802e-09
6.73992e-09
5.73593e-09
4.9652e-09
4.67439e-09
4.73295e-09
5.26232e-09
6.23595e-09
7.6818e-09
9.48164e-09
1.05887e-08
9.78015e-09
4.24001e-09
3.27357e-10
4.88976e-11
1.84547e-11
1.37807e-11
5.92692e-11
1.85493e-09
1.1392e-08
6.40407e-09
2.79851e-09
4.79882e-06
8.85155e-09
-1.94146e-09
-1.34352e-09
-1.13227e-09
-9.94758e-10
-8.36137e-10
-6.07287e-10
-2.27386e-10
3.40435e-10
1.06007e-09
1.77675e-09
2.33082e-09
2.65087e-09
2.44019e-09
1.94753e-09
1.28922e-09
5.15445e-10
3.89036e-11
-5.85236e-12
2.44273e-10
7.04865e-10
1.15575e-09
1.31927e-09
1.09461e-09
5.70566e-10
1.16669e-11
-3.3637e-10
-3.52928e-10
-2.54238e-10
-1.37343e-10
-3.3813e-11
4.8425e-11
1.12339e-10
1.52232e-10
1.59897e-10
1.53419e-10
1.50524e-10
1.69499e-10
2.25453e-10
3.45622e-10
5.53426e-10
8.58694e-10
1.27594e-09
1.83764e-09
2.56529e-09
3.4395e-09
4.46292e-09
5.34113e-09
5.77889e-09
4.73281e-09
1.94579e-09
4.73086e-10
1.70513e-10
9.86694e-11
1.39214e-10
2.6358e-09
1.14548e-08
4.9808e-09
2.85823e-09
4.46005e-06
-3.53258e-10
-4.03709e-09
-2.40844e-09
-1.6275e-09
-1.36897e-09
-1.25992e-09
-1.15527e-09
-9.82576e-10
-7.36103e-10
-4.56708e-10
-2.30871e-10
-9.81979e-11
-5.13286e-11
-1.24995e-10
-2.82426e-10
-4.70588e-10
-6.63135e-10
-7.58057e-10
-7.4611e-10
-6.71981e-10
-6.06547e-10
-5.36261e-10
-5.19313e-10
-5.52672e-10
-6.3015e-10
-6.45103e-10
-5.91317e-10
-5.2275e-10
-3.81777e-10
-1.88343e-10
1.0726e-11
1.97741e-10
3.44458e-10
4.21615e-10
4.14126e-10
3.55515e-10
2.7738e-10
2.23279e-10
2.17146e-10
2.90894e-10
4.49666e-10
6.6229e-10
9.61463e-10
1.37286e-09
1.86301e-09
2.4843e-09
3.30854e-09
3.78422e-09
3.72381e-09
3.53677e-09
3.17918e-09
2.22785e-09
1.29086e-09
5.41414e-10
9.67894e-10
7.77753e-09
8.71123e-09
3.64623e-09
5.64108e-09
4.02556e-06
4.9408e-09
-4.08129e-09
-2.93475e-09
-2.61449e-09
-2.30452e-09
-2.13519e-09
-1.81235e-09
-1.42516e-09
-1.02698e-09
-7.19393e-10
-5.1789e-10
-4.14226e-10
-3.94213e-10
-4.23953e-10
-4.63262e-10
-3.67637e-10
8.82263e-11
3.7556e-10
3.4237e-10
2.7402e-10
1.04043e-10
7.39483e-13
-3.2326e-11
9.7452e-11
2.90857e-10
3.92115e-10
3.64502e-10
4.14477e-10
5.61048e-10
7.72041e-10
9.66751e-10
1.11807e-09
1.19141e-09
1.17665e-09
1.07453e-09
9.29197e-10
7.73916e-10
6.42259e-10
5.62686e-10
5.62865e-10
6.5245e-10
8.20139e-10
1.03988e-09
1.33223e-09
1.74246e-09
2.19038e-09
2.53994e-09
2.74179e-09
2.7996e-09
2.85555e-09
2.87763e-09
2.77493e-09
2.73713e-09
3.30811e-09
5.57694e-09
7.61812e-09
5.89838e-09
2.6281e-09
2.25311e-08
3.60189e-06
5.06821e-09
-2.7584e-09
-2.08148e-09
-2.12518e-09
-1.92622e-09
-1.84515e-09
-1.57239e-09
-1.15124e-09
-3.93207e-10
7.16788e-10
2.12777e-09
3.20886e-09
3.33326e-09
3.96561e-09
4.94361e-09
5.43431e-09
5.1751e-09
4.8535e-09
4.63541e-09
4.58703e-09
4.40138e-09
4.23432e-09
3.95458e-09
3.7276e-09
3.35917e-09
3.00535e-09
2.71147e-09
2.60557e-09
2.59984e-09
2.62842e-09
2.59178e-09
2.47956e-09
2.26898e-09
1.98706e-09
1.64526e-09
1.30025e-09
9.84317e-10
7.36554e-10
5.83403e-10
5.36776e-10
5.98545e-10
7.58213e-10
1.01132e-09
1.36269e-09
1.79718e-09
2.21504e-09
2.47673e-09
2.56564e-09
2.6033e-09
2.815e-09
3.36286e-09
4.31958e-09
5.09406e-09
5.33581e-09
5.1808e-09
4.88326e-09
3.49814e-09
2.75305e-09
1.07443e-07
3.05826e-06
1.14025e-08
5.41671e-10
1.18912e-09
7.36678e-10
7.31319e-10
6.31306e-10
7.14325e-10
8.31007e-10
1.08402e-09
1.51128e-09
2.18369e-09
3.00937e-09
3.43482e-09
3.46999e-09
3.29149e-09
3.0741e-09
2.89706e-09
2.87438e-09
2.99999e-09
3.27666e-09
3.56727e-09
3.87919e-09
4.04804e-09
4.15466e-09
4.11364e-09
4.08876e-09
4.11293e-09
4.42497e-09
5.04175e-09
5.93325e-09
6.92126e-09
7.84065e-09
8.4497e-09
8.58335e-09
8.1586e-09
7.33628e-09
6.30076e-09
5.26601e-09
4.34765e-09
3.5802e-09
2.99141e-09
2.54731e-09
2.24319e-09
2.07674e-09
2.09593e-09
2.22331e-09
2.46929e-09
2.87709e-09
3.51516e-09
4.4561e-09
5.23834e-09
5.47485e-09
4.97729e-09
4.62126e-09
3.93192e-09
3.80325e-09
7.37924e-09
1.26555e-07
1.42021e-07
2.4448e-06
4.8102e-09
7.39546e-09
1.06015e-08
1.15756e-08
1.23503e-08
1.28382e-08
1.32627e-08
1.36407e-08
1.40012e-08
1.43254e-08
1.45645e-08
1.4663e-08
1.4584e-08
1.4367e-08
1.40472e-08
1.36977e-08
1.33487e-08
1.30259e-08
1.27243e-08
1.24358e-08
1.21325e-08
1.18152e-08
1.14574e-08
1.10846e-08
1.06899e-08
1.03192e-08
1.00056e-08
9.80651e-09
9.73588e-09
9.79958e-09
9.97899e-09
1.02728e-08
1.06513e-08
1.10872e-08
1.15279e-08
1.2002e-08
1.25569e-08
1.33021e-08
1.44106e-08
1.61033e-08
1.85902e-08
2.1974e-08
2.64506e-08
3.2756e-08
4.23026e-08
5.63295e-08
7.78766e-08
1.11626e-07
1.64811e-07
2.49438e-07
3.78682e-07
5.8525e-07
8.31243e-07
1.16538e-06
1.48593e-06
1.8306e-06
1.24741e-06
8.34983e-07
5.52768e-07
4.02344e-07
3.46848e-09
6.76184e-09
1.01767e-08
1.12572e-08
1.21759e-08
1.26681e-08
1.31018e-08
1.33983e-08
1.36211e-08
1.3812e-08
1.39203e-08
1.40129e-08
1.4004e-08
1.39673e-08
1.38304e-08
1.36556e-08
1.34212e-08
1.31649e-08
1.28837e-08
1.25826e-08
1.22607e-08
1.1926e-08
1.15727e-08
1.12177e-08
1.08498e-08
1.05081e-08
1.02095e-08
1.00066e-08
9.92092e-09
9.98815e-09
1.02082e-08
1.05748e-08
1.10418e-08
1.15521e-08
1.2023e-08
1.24395e-08
1.28314e-08
1.33175e-08
1.41044e-08
1.54178e-08
1.75408e-08
2.07393e-08
2.50839e-08
3.11215e-08
4.04645e-08
5.46212e-08
7.56305e-08
1.07294e-07
1.5557e-07
2.28467e-07
3.38682e-07
5.1142e-07
7.18325e-07
9.85963e-07
1.25049e-06
1.83823e-06
1.34824e-06
8.65672e-07
5.55254e-07
3.84536e-07
9.18878e-09
-4.84559e-10
7.40182e-10
4.96238e-10
6.22374e-10
5.44525e-10
7.06651e-10
7.88715e-10
9.5765e-10
1.14637e-09
1.34353e-09
1.58801e-09
1.79255e-09
2.04151e-09
2.23129e-09
2.46526e-09
2.69675e-09
2.95407e-09
3.22851e-09
3.48968e-09
3.72429e-09
3.95073e-09
4.11734e-09
4.27554e-09
4.3718e-09
4.51552e-09
4.71634e-09
5.10714e-09
5.67996e-09
6.45218e-09
7.28665e-09
8.03706e-09
8.48276e-09
8.51307e-09
8.07536e-09
7.34252e-09
6.43675e-09
5.52526e-09
4.72885e-09
4.08521e-09
3.60435e-09
3.26663e-09
2.95195e-09
2.8581e-09
2.9707e-09
3.22733e-09
3.56186e-09
3.98212e-09
4.46328e-09
4.94917e-09
5.28292e-09
5.45415e-09
4.92286e-09
4.34178e-09
3.46127e-09
3.10844e-09
3.9063e-09
8.85613e-08
1.26542e-07
2.36275e-06
1.49371e-09
-3.72043e-09
-2.4145e-09
-2.179e-09
-1.7318e-09
-1.46603e-09
-1.05221e-09
-7.3745e-10
-3.38168e-10
8.67742e-11
5.85685e-10
1.222e-09
1.83407e-09
2.56621e-09
3.14487e-09
3.72248e-09
4.16725e-09
4.43342e-09
4.50557e-09
4.39524e-09
4.12343e-09
3.80935e-09
3.40036e-09
3.01445e-09
2.57848e-09
2.20654e-09
1.87498e-09
1.66976e-09
1.54464e-09
1.50085e-09
1.47585e-09
1.44765e-09
1.37994e-09
1.26653e-09
1.08907e-09
8.87289e-10
6.74047e-10
4.92286e-10
3.7775e-10
3.50369e-10
4.15571e-10
5.75666e-10
7.94818e-10
1.05627e-09
1.37965e-09
1.73044e-09
2.00701e-09
2.21375e-09
2.44422e-09
2.83621e-09
3.40746e-09
4.12454e-09
4.62011e-09
4.61958e-09
4.30777e-09
4.13429e-09
2.89285e-09
1.46474e-09
8.54645e-08
2.97462e-06
-1.67435e-09
-4.73202e-09
-2.99979e-09
-2.32623e-09
-1.60264e-09
-1.15689e-09
-7.32302e-10
-5.59104e-10
-3.56787e-10
-1.78599e-10
2.5097e-12
1.67008e-10
2.27971e-10
2.42461e-10
1.88683e-10
1.46462e-10
1.03912e-10
7.81949e-11
4.87288e-11
2.01769e-11
-3.06711e-11
-6.03973e-11
-1.1059e-10
-1.44159e-10
-2.00485e-10
-2.37728e-10
-2.6284e-10
-2.34773e-10
-1.61299e-10
-3.89133e-11
1.02169e-10
2.40378e-10
3.38058e-10
3.66335e-10
3.22722e-10
2.40067e-10
1.61674e-10
1.19777e-10
1.41031e-10
2.43661e-10
4.44597e-10
7.80567e-10
1.28854e-09
2.03008e-09
3.08226e-09
4.3445e-09
4.73276e-09
4.25963e-09
4.00533e-09
3.52714e-09
2.89775e-09
2.52345e-09
2.27064e-09
2.36698e-09
3.43037e-09
5.84624e-09
5.04184e-09
1.6134e-09
1.25737e-08
3.4608e-06
-1.19742e-09
-4.73132e-09
-2.82005e-09
-2.25235e-09
-1.92399e-09
-1.70493e-09
-1.53778e-09
-1.41474e-09
-1.29002e-09
-1.15683e-09
-1.00977e-09
-8.66068e-10
-7.50269e-10
-6.63757e-10
-6.1037e-10
-5.64929e-10
-5.24254e-10
-4.84851e-10
-4.56039e-10
-4.22119e-10
-4.01075e-10
-3.72555e-10
-3.5982e-10
-3.46141e-10
-3.51838e-10
-3.57609e-10
-3.63249e-10
-3.44891e-10
-3.00707e-10
-2.269e-10
-1.35446e-10
-2.71259e-11
8.59388e-11
1.7344e-10
2.07175e-10
1.96602e-10
1.78162e-10
1.81539e-10
2.36145e-10
3.73352e-10
6.30396e-10
1.06073e-09
1.73918e-09
2.75806e-09
4.09857e-09
5.77067e-09
8.56162e-09
9.7668e-09
9.00552e-09
6.8274e-09
4.75432e-09
2.98303e-09
1.74344e-09
8.4295e-10
3.6906e-10
2.16308e-09
7.90138e-09
2.92964e-09
1.82431e-09
4.01149e-06
6.09074e-09
-3.15201e-09
-1.90535e-09
-1.5639e-09
-1.41448e-09
-1.3039e-09
-1.21525e-09
-1.14851e-09
-1.06779e-09
-9.6555e-10
-8.28273e-10
-6.64037e-10
-4.7577e-10
-2.61368e-10
-1.47867e-11
2.77645e-10
5.97655e-10
9.01936e-10
1.141e-09
1.34675e-09
1.55348e-09
1.68993e-09
1.72636e-09
1.67628e-09
1.55737e-09
1.40721e-09
1.29843e-09
1.22258e-09
1.17959e-09
1.17255e-09
1.16023e-09
1.09308e-09
9.58642e-10
7.88806e-10
6.20063e-10
4.74694e-10
3.8365e-10
3.69109e-10
3.99919e-10
5.29247e-10
7.96066e-10
1.24235e-09
1.94391e-09
2.96216e-09
4.38643e-09
6.61686e-09
1.08969e-08
1.49697e-08
1.4632e-08
1.02228e-08
6.3139e-09
3.06829e-09
9.34437e-10
2.74132e-10
1.41265e-10
3.50171e-10
6.53507e-09
3.84152e-09
1.43028e-09
4.51532e-06
4.3157e-08
-1.51522e-09
-1.23597e-09
-1.12538e-09
-1.06605e-09
-9.94166e-10
-9.28363e-10
-8.32845e-10
-6.80245e-10
-4.14939e-10
3.73036e-11
7.68821e-10
1.89167e-09
3.49838e-09
5.58841e-09
8.04548e-09
1.07404e-08
1.34426e-08
1.56461e-08
1.72896e-08
1.86515e-08
1.94216e-08
1.97504e-08
1.97189e-08
1.93533e-08
1.87496e-08
1.81466e-08
1.78133e-08
1.77646e-08
1.82446e-08
1.90943e-08
1.98147e-08
1.98707e-08
1.89766e-08
1.71701e-08
1.45373e-08
1.17128e-08
9.1432e-09
6.63947e-09
3.88307e-09
2.62296e-09
2.41995e-09
2.82448e-09
3.75983e-09
5.24634e-09
7.37642e-09
1.06618e-08
1.49511e-08
1.71582e-08
1.51063e-08
5.15051e-09
7.21836e-10
1.04978e-10
3.00779e-11
2.18339e-11
2.40378e-10
6.09684e-09
4.07797e-09
1.48165e-09
4.83651e-06
4.21168e-08
-1.06362e-09
-8.17052e-10
-6.50058e-10
-4.9538e-10
-2.21329e-10
1.99374e-10
9.01628e-10
1.92434e-09
3.5389e-09
6.05816e-09
9.78217e-09
1.48373e-08
2.12337e-08
2.84222e-08
3.55131e-08
4.23645e-08
4.94257e-08
5.54672e-08
5.91575e-08
6.15398e-08
6.29764e-08
6.37266e-08
6.39171e-08
6.3424e-08
6.25289e-08
6.12009e-08
5.97342e-08
5.88629e-08
5.92132e-08
6.10169e-08
6.37711e-08
6.6626e-08
6.87201e-08
6.9372e-08
6.74388e-08
6.24583e-08
5.45834e-08
4.567e-08
3.56886e-08
2.64936e-08
1.88107e-08
1.36086e-08
1.10296e-08
1.01356e-08
1.0368e-08
1.19507e-08
1.50417e-08
1.81681e-08
1.7967e-08
3.55436e-09
1.1e-10
2.01708e-11
1.00199e-11
1.36196e-11
7.53671e-10
9.07921e-09
6.01678e-09
2.44703e-09
5.02504e-06
3.62302e-08
-3.15578e-11
1.20141e-09
2.37857e-09
3.34302e-09
4.70178e-09
7.16701e-09
9.87323e-09
1.24953e-08
1.68434e-08
2.19505e-08
2.86419e-08
3.61054e-08
4.38263e-08
5.19232e-08
5.97633e-08
6.65981e-08
7.23973e-08
7.74794e-08
8.1448e-08
8.40231e-08
8.5456e-08
8.59041e-08
8.57053e-08
8.49866e-08
8.39309e-08
8.26362e-08
8.07507e-08
7.86625e-08
7.71044e-08
7.65361e-08
7.72321e-08
7.86704e-08
7.98985e-08
8.05932e-08
7.99516e-08
7.65796e-08
7.07621e-08
6.36806e-08
5.66729e-08
4.89113e-08
4.05852e-08
3.23701e-08
2.54138e-08
2.0073e-08
1.65398e-08
1.52214e-08
1.64609e-08
1.97275e-08
1.89662e-08
3.62059e-09
3.97458e-11
1.41073e-11
9.70524e-12
3.27284e-11
3.54276e-09
1.36146e-08
1.00923e-08
4.6378e-09
5.01443e-06
1.32104e-07
1.12237e-09
3.35765e-09
7.42082e-09
1.21182e-08
1.69473e-08
2.12408e-08
2.56635e-08
2.87487e-08
3.04414e-08
3.2037e-08
3.37949e-08
3.56295e-08
3.74348e-08
3.9408e-08
4.13146e-08
4.3024e-08
4.4387e-08
4.59239e-08
4.86077e-08
5.25805e-08
5.45742e-08
5.5599e-08
5.71252e-08
5.94984e-08
6.11445e-08
6.06591e-08
5.90067e-08
5.59896e-08
5.09416e-08
4.5067e-08
3.89612e-08
3.30423e-08
2.79904e-08
2.38483e-08
2.04679e-08
1.7643e-08
1.52157e-08
1.30606e-08
1.11814e-08
9.57243e-09
8.28351e-09
7.52372e-09
7.62892e-09
8.21447e-09
7.87711e-09
7.8032e-09
9.17421e-09
1.46935e-08
1.79221e-08
2.8498e-09
3.42378e-11
2.12518e-11
2.41978e-11
8.41044e-11
7.06145e-09
2.41674e-08
1.91617e-08
8.88254e-09
4.89409e-06
2.06434e-07
2.9035e-10
5.47179e-09
9.80998e-09
1.20408e-08
1.17255e-08
8.46937e-09
8.42127e-09
1.48187e-08
3.0722e-08
3.61417e-08
3.71192e-08
3.77954e-08
3.88519e-08
3.98133e-08
4.05828e-08
4.17978e-08
4.36184e-08
4.56158e-08
4.71654e-08
4.77721e-08
4.74765e-08
4.67061e-08
4.5548e-08
4.3824e-08
4.16164e-08
3.89268e-08
3.56948e-08
3.22398e-08
2.92357e-08
2.68778e-08
2.51872e-08
2.42069e-08
2.35012e-08
2.25905e-08
2.11707e-08
1.9012e-08
1.61303e-08
1.28426e-08
1.00502e-08
8.35979e-09
7.16493e-09
6.47136e-09
6.32159e-09
6.05299e-09
5.77222e-09
6.46254e-09
9.27333e-09
1.72902e-08
1.95983e-08
2.31041e-09
4.00159e-11
3.41984e-11
4.5398e-11
2.17572e-10
1.17823e-08
2.98656e-08
2.24417e-08
1.02413e-08
4.93642e-06
2.52734e-07
1.13218e-09
1.74431e-09
9.97661e-10
6.01208e-10
2.56319e-10
1.18095e-10
1.40507e-10
3.12679e-10
2.57741e-09
2.36477e-08
2.44556e-08
2.32965e-08
3.18789e-08
4.72883e-08
5.17936e-08
5.37581e-08
5.61164e-08
5.77404e-08
5.62913e-08
4.99102e-08
4.39262e-08
4.57537e-08
5.28246e-08
5.18912e-08
4.57457e-08
3.43361e-08
3.20866e-08
3.08528e-08
3.04043e-08
3.02285e-08
3.03505e-08
3.0539e-08
3.0531e-08
3.02731e-08
2.94557e-08
2.73356e-08
2.27401e-08
1.68068e-08
1.34173e-08
1.11704e-08
9.5366e-09
7.75584e-09
5.71966e-09
4.56192e-09
4.86452e-09
7.56613e-09
1.41756e-08
2.17634e-08
2.15445e-08
5.72082e-10
3.90471e-11
3.80478e-11
5.39521e-11
5.50998e-10
1.35318e-08
3.05945e-08
2.35301e-08
1.07093e-08
5.10569e-06
2.09736e-07
1.7762e-10
2.41321e-09
3.79264e-09
4.05592e-09
2.33808e-09
9.33624e-10
8.10825e-10
1.32544e-09
3.34973e-09
3.45243e-09
2.51488e-09
3.30896e-09
9.25761e-09
3.77901e-08
5.09153e-08
5.22788e-08
5.46906e-08
5.76584e-08
5.92033e-08
5.72733e-08
5.1685e-08
5.10971e-08
5.39198e-08
5.64322e-08
5.38813e-08
4.93659e-08
3.89007e-08
3.37866e-08
3.47391e-08
3.67436e-08
3.76176e-08
3.8948e-08
4.07217e-08
4.25376e-08
4.39483e-08
4.42688e-08
4.28019e-08
3.88317e-08
3.10107e-08
2.10105e-08
1.36613e-08
9.63827e-09
7.41128e-09
6.50532e-09
5.91788e-09
7.0265e-09
1.2566e-08
2.11107e-08
2.16016e-08
1.05611e-09
4.00744e-11
3.52185e-11
4.61838e-11
2.89474e-10
1.04948e-08
2.70694e-08
2.23667e-08
1.01198e-08
5.07019e-06
2.62269e-07
8.08107e-10
2.31774e-09
5.07063e-09
6.91079e-09
8.26485e-09
8.85385e-09
9.26361e-09
8.29867e-09
4.80811e-09
2.12681e-09
1.65988e-09
2.57009e-09
9.99366e-09
3.52888e-08
4.21385e-08
4.48872e-08
4.79624e-08
5.16355e-08
5.55251e-08
5.92913e-08
6.25213e-08
6.45226e-08
6.42746e-08
6.10928e-08
5.65817e-08
5.24026e-08
4.9e-08
4.61658e-08
4.44773e-08
4.39365e-08
4.44279e-08
4.61029e-08
4.8224e-08
5.06212e-08
5.30272e-08
5.38446e-08
5.20977e-08
4.81086e-08
4.08503e-08
3.052e-08
2.17052e-08
1.65166e-08
1.31118e-08
1.1217e-08
9.47995e-09
9.04881e-09
1.04393e-08
1.49915e-08
1.98712e-08
6.66074e-09
5.06369e-11
2.60436e-11
2.98513e-11
7.28496e-11
3.29423e-09
1.98673e-08
1.84554e-08
8.40184e-09
4.81929e-06
5.84609e-08
1.26338e-09
3.12895e-09
5.11421e-09
6.94695e-09
9.717e-09
1.24736e-08
1.54851e-08
1.82086e-08
1.8046e-08
1.95462e-08
2.51512e-08
3.75757e-08
4.80764e-08
5.25463e-08
5.76634e-08
6.3109e-08
6.89668e-08
7.50876e-08
8.08204e-08
8.54994e-08
8.90526e-08
9.146e-08
9.24359e-08
9.05955e-08
8.45468e-08
7.93266e-08
7.53618e-08
6.29512e-08
5.9071e-08
5.94989e-08
6.20682e-08
6.58653e-08
6.95077e-08
7.11106e-08
6.95467e-08
6.34676e-08
5.61796e-08
4.93426e-08
4.11076e-08
3.27622e-08
2.50887e-08
1.87562e-08
1.43289e-08
1.07355e-08
8.51672e-09
7.52406e-09
7.84282e-09
1.2744e-08
1.92221e-08
1.09446e-08
8.02839e-11
2.66381e-11
2.46771e-11
3.64796e-11
9.95768e-10
1.40785e-08
1.28182e-08
5.56616e-09
4.69968e-06
4.39821e-08
1.24335e-09
1.68731e-09
2.89147e-09
4.67746e-09
7.1504e-09
1.1028e-08
1.6847e-08
2.45397e-08
3.34263e-08
4.25465e-08
5.03763e-08
5.65332e-08
6.26031e-08
6.85992e-08
7.37547e-08
7.83561e-08
8.28814e-08
8.8255e-08
9.44035e-08
1.00211e-07
1.04814e-07
1.07472e-07
1.07143e-07
1.01093e-07
7.73215e-08
6.79086e-08
6.37723e-08
6.6173e-08
7.13076e-08
7.09331e-08
5.1866e-08
4.24153e-08
5.76051e-08
7.48236e-08
7.01581e-08
5.16074e-08
3.63286e-08
3.28462e-08
2.85705e-08
1.99118e-08
1.27386e-08
8.05997e-09
4.91349e-09
4.17395e-09
4.09463e-09
4.99049e-09
7.836e-09
1.50717e-08
2.21191e-08
1.2783e-08
1.41533e-10
2.6948e-11
1.97609e-11
2.41122e-11
5.37167e-10
8.42239e-09
6.90939e-09
2.70346e-09
5.11963e-06
4.08545e-08
7.55765e-10
2.08928e-09
4.46596e-09
7.41505e-09
1.1884e-08
1.76913e-08
2.56993e-08
3.60958e-08
4.62763e-08
5.59037e-08
6.37298e-08
6.91893e-08
7.30904e-08
7.74864e-08
8.2087e-08
8.86488e-08
9.63397e-08
1.03616e-07
1.09094e-07
1.12213e-07
1.13423e-07
1.13051e-07
1.10897e-07
1.03795e-07
9.37685e-08
8.60509e-08
8.2019e-08
8.16687e-08
8.24485e-08