/*--------------------------------*- C++ -*----------------------------------*\
| =========                 |                                                 |
| \\      /  F ield         | OpenFOAM: The Open Source CFD Toolbox           |
|  \\    /   O peration     | Version:  2.1.1                                 |
|   \\  /    A nd           | Web:      www.OpenFOAM.org                      |
|    \\/     M anipulation  |                                                 |
\*---------------------------------------------------------------------------*/
FoamFile
{
    version     2.0;
    format      ascii;
    class       volScalarField;
    location    "0.00125";
    object      epsilon;
}
// * * * * * * * * * * * * * * * * * * * * * * * * * * * * * * * * * * * * * //

dimensions      [0 2 -3 0 0 0 0];

internalField   nonuniform List<scalar> 
36520
(
111.183
303.328
740.096
993.24
1235.09
1419.18
1586.65
1718.32
1804.95
1825.36
1769.08
1653.22
1496.86
1358.52
1256.58
1178.35
1106.06
1030.03
948.814
863.675
778.157
698.047
621.651
550.227
482.814
420.963
363.903
312.025
264.833
222.594
185.125
152.623
124.924
101.959
83.4093
68.8256
57.5747
49.0434
42.5973
37.7728
34.3464
32.4089
32.5449
35.5258
41.2233
47.301
48.2668
38.3749
25.2863
14.3208
7.21588
3.35017
1.28204
0.321306
0.0615066
0.0199513
0.0140804
0.0115443
0.0113931
0.0153731
24.6725
121.857
178.573
186.335
198.505
203.791
214.127
211.908
195.039
157.505
111.957
75.9735
63.1191
59.7701
56.3234
52.7532
48.8207
44.8681
40.9803
37.825
35.1743
32.8693
30.7343
28.7878
26.8844
24.7895
22.381
19.6513
16.7818
13.9368
11.2776
9.00332
7.27662
6.16742
5.64721
5.60131
5.89205
6.42361
7.17245
8.17893
9.58989
11.738
15.2569
21.1266
30.538
44.689
61.582
76.7313
89.4091
99.1347
102.451
92.6759
62.2212
28.2944
7.25692
0.723733
0.0276233
0.00480593
0.00514993
0.00266996
8.29819
32.2058
37.889
32.9862
31.5459
29.5555
30.0341
28.1596
24.2853
18.4647
14.4213
14.4429
19.264
16.0035
6.62349
3.35229
2.72943
2.51785
2.41786
2.42667
2.48716
2.55924
2.63026
2.70748
2.80045
2.87872
2.92402
2.93541
2.94529
2.98737
3.10012
3.32332
3.68242
4.18545
4.82782
5.61896
6.60911
7.87754
9.50979
11.6582
14.6247
18.9728
25.8118
37.2121
56.5876
89.5421
145.951
224.008
302.893
368.732
371.956
287.059
176.44
88.0962
29.5798
4.39655
0.190914
0.00589903
0.00199673
0.0020192
2.92764
8.94036
8.73333
7.14529
7.46789
8.75672
12.0109
17.3484
27.214
45.7309
79.6239
134.501
220.716
191.835
66.0138
12.5721
3.38768
2.23243
2.28719
2.68231
3.29112
3.87644
4.32172
4.72647
5.28298
6.20948
7.38966
8.79002
10.4232
12.3241
14.5177
16.9749
19.4836
21.6085
22.7553
22.5349
21.483
21.9003
24.2436
27.8751
32.9671
39.6968
48.8148
62.5035
84.4166
120.406
182.321
292.85
535.276
829.744
899.364
691.693
418.732
206.595
83.9629
18.1429
1.06303
0.0339951
0.00177547
0.00187036
1.26024
4.09874
5.66491
9.42581
18.2793
35.7508
68.2556
129.381
243.626
454.074
817.321
1374.59
2195.34
2001.78
850.592
215.716
58.1686
29.9045
27.4042
33.258
44.8398
55.6471
62.1004
65.7193
70.2543
79.0836
98.0884
126.568
163.353
210.065
268.833
341.287
422.426
499.793
562.863
539.011
413.28
279.126
187.334
128.073
116.805
123.347
134.045
150.717
177.728
214.357
277.574
390.24
582.38
904.739
1123.7
1068.14
817.058
473.013
200.446
54.8157
4.53428
0.18287
0.00621698
0.00181318
0.748469
11.3435
28.2283
67.3764
144.393
289.395
547.992
1037.44
1959.24
3660.74
6489.34
10459.1
15416.8
14331.6
7740.86
2858.37
1078.78
603.393
527.926
630.808
819.493
973.111
1053.83
1090.22
1118.88
1165.85
1255.31
1519.53
1980.28
2584.12
3340.47
4276.9
5317.3
6186.31
6567.13
6195.72
5267.43
4143.31
3201.71
2338.66
1568.56
1090.14
744.648
673.805
691.032
705.127
708.147
760.616
931.085
1180.02
1407.77
1407.01
1202.53
907.851
499.33
138.146
15.6177
0.808698
0.0317102
0.00176081
2.11073
89.9696
235.142
532.956
1066.57
2028.26
3629.78
6562.67
11800.5
20938.4
34696.7
50357.7
62214.3
62125.8
45541.6
25385.9
14265.7
10068.9
9312.57
9908.91
10553
10777.4
10612.6
10289.9
9919.89
9629
9436.69
9644.63
10562.1
12497.6
14994.7
17808.7
20907.6
23823.3
25678.2
25863.1
24361.7
21201.9
17832
14620.3
11399.9
8835.81
6188.84
3764.74
2629.79
2115.1
1794.82
1519.88
1346.52
1265.5
1243.6
1183.34
1043.06
860.196
684.761
314.207
46.8645
3.0632
0.152403
0.00173949
23.3953
486.568
1208.61
2703.52
5108.58
9880.95
15134.1
24368.7
38222.4
56827
76329.1
92282
102268
106364
102481
93148.4
85044.1
81301.2
79817.3
76572.7
70480.6
61632
51684.5
44081.5
40018.6
37676
36901.7
37094.7
37654.6
38786.3
40932.5
43429.6
45737.3
47497
48391.9
48098.3
46359.1
42691.4
37577.1
32055.3
26394.6
21344.7
17109.6
13046.6
9738.15
7303.53
5338.57
4132.6
3194.54
2370.06
1794.65
1375.15
1022.42
759.562
594.482
354.152
90.5008
8.74092
0.521919
0.00186955
50.8437
1165.2
3508.63
6491.08
9264.57
12436
15679.1
20309.6
26181.5
33465.8
42172.4
51895
60442.6
66393.3
70818.8
76068.8
82688.9
89528.7
93965.5
95127.1
93328.1
89317.1
83605.7
76319.2
67906.3
60360.4
54784.7
51125.6
48648
46426
44505.5
42915.7
41459.4
40082
38770
37431.2
35921.3
34082.5
31595.6
28523.3
24889.3
20992.1
17412.2
14279.2
11598.8
9619.37
8036.31
6533.3
5439.1
4359.91
3114.86
2093.58
1308.28
804.971
523.414
307.466
103.579
16.2147
1.37666
0.00264922
37.2069
874.831
2998.9
5028.04
6945.23
8399
9437.28
10869.7
13093.3
16154.9
20013
24151.3
28125.7
31811.7
34077
34344.6
33995.2
34841.5
37644.5
41287.9
44728.1
47945.8
51571.9
56213.9
60534.9
61197.9
57078.6
50552.8
44218.5
39077
35252.7
32522.6
30730.8
29675.8
28993.9
28227.6
27059.5
25351.3
23173.2
20598.3
17806
15037.5
12260.3
9486.32
6876.99
4655.53
3183.57
2497.87
2020.63
1542.13
1188.19
883.488
606.791
429.145
332.654
228.491
89.2127
15.9826
1.50706
0.00295241
23.6831
756.241
3226.78
7288.47
8571.08
9481.55
10091.9
11349.8
13858.6
19227.8
28745
40471.2
51809.7
61976.7
68647.2
68824.3
66156.1
63808.3
63213.8
64721.6
67557.7
71795.9
77767
85379.2
93650.9
99093.4
96749.5
86917.1
75969.7
67523.1
62155.1
59614.6
59095.8
59938
61257
61961.7
61395.4
59259.3
55396.7
50049
43555.5
36553.9
29277.9
21787.2
14670.4
8995.42
5309.9
3384.51
2439.87
1868.03
1478.06
1123.23
797.949
583.352
461.386
301.818
107.69
18.8455
1.79917
0.00315683
22.0492
592.663
1894.45
4410.35
7107.17
9221.74
10558
13478.3
18054.7
27195.1
44912.7
66874.1
85613.5
102481
112110
111167
110575
113223
115608
117284
120090
125205
131839
137142
138091
132448
120347
104942
89830.8
80194.8
76926.9
77860.8
81156.7
85433.4
89297.2
91627.2
91888.5
89748.9
84679.2
76908
66641.4
54184.4
40241.1
26890
16194.8
8857.26
4875.13
3362.37
3013.78
2728.87
2281.23
1900.45
1444.37
1062.94
808.679
537.721
176.56
23.6069
1.71121
0.00256513
27.5308
587.916
1545.59
3386.59
5137.82
7320.83
9660.01
13196.9
18575.2
26519.7
36036.8
44543.6
55551.8
72637.2
96175.7
112512
116472
120323
124127
126482
129704
133988
138533
140950
139114
132929
122053
107659
92214.7
80298.8
75096
75848.1
79559
84447
89371.3
92770.6
93328
90233.9
83339.4
74768.1
64067.9
50786.5
36363.1
22534.4
12500.5
6718.34
3992.24
3221.66
3642.19
3748.76
3287.04
2616.68
1886.25
1314.23
952
610.028
193.081
24.4175
1.70773
0.00253939
28.3378
1047.91
5600.7
12074.1
17632.7
21261.2
20023.5
17236.8
16196.4
17455.7
19863.5
22980.4
27283.1
34744.5
48487.4
67111.8
78405.2
79265.1
79945.9
83414.7
87078.3
89823.5
91642.1
93367.4
96343.7
100211
98885.9
87449.6
73514.1
63535.2
57229.7
54297
53797.4
54680.8
55804.1
55941.8
54575.5
51736.4
47822.4
43253.3
38101.1
32499
26360.3
18895.6
11446.3
6373.25
3686.73
2593.53
2261.05
1992.94
1674.48
1305.77
985.39
761.131
631.636
384.793
111.223
17.0677
1.56198
0.00291741
29.9553
343.55
2447.7
4253.77
5505.55
7555.35
11659
15684
17047.3
18029.8
20230.7
22452
24898
29861.8
42956.8
67749.2
90782.1
93061.2
85287.2
82627.5
84457
88089.6
92073.4
94085.5
91314.7
82366.6
70497.4
60286.6
52879.8
47839.9
44877
43482.2
43336.2
44049.8
44558.7
43597.9
40604.7
35683.5
30089.6
25056.1
20929.4
17411
13954.1
10344.8
6953.22
4395.5
2776.33
1886.61
1419.83
1114.54
893.191
716.976
583.073
509.048
455.946
246.61
59.601
9.14371
0.856562
0.00232688
28.4162
398.963
2618.77
6443.66
11904.8
16546.6
18719
20948.8
26022.3
34531.7
45335.2
59090.1
80715.5
110135
140074
155102
133400
104742
93367.9
89479.6
87520.4
85414.8
82704.8
79298.4
73854.8
65855.9
57554.8
51001.6
46662.3
44045.3
41985.9
39922.6
37854.9
35337.9
32220.5
28900.4
25374.7
21725.2
18251.3
15082.8
12444.3
10284.1
8303.39
6339.69
4580.47
3209.41
2250.66
1704.18
1471.3
1281.34
1064.2
847.467
661.466
549.474
470.846
240.578
54.7617
7.95608
0.695549
0.00212649
16.6278
458.813
1491.48
3544.02
6287.34
9555.88
14718.3
22914.3
34768
52399.2
77227.4
103407
113030
105445
90611.6
76359.7
60773.2
52671.1
52937.8
55518.8
56982.2
57124.4
55542.8
51964.4
45922.5
38780.7
33934.7
31463.1
31173.6
32520.8
34720
37058
39098.5
40234.7
39713.3
37342.4
33361.8
28494.9
23338.3
18496.5
14100.1
10423.2
7751.8
5910.31
4603.66
3755.19
3375.15
3676.67
3965.73
3456.53
2490.11
1653.25
1097.12
771.258
587.629
293.021
60.5194
5.99594
0.36994
0.0017863
1.73045
54.1699
151.766
363.179
774.249
1496.23
2654.37
4543.99
7639
12822.8
20180.7
26959.7
30016.6
26567
21725
16783
11608.6
8855.17
8907.42
10061.4
11595.9
13030.5
13419.4
12344.7
10080.3
7574.67
5821.82
5120.19
5352.21
6052.59
6746.22
7259.84
7632.35
8017.52
8436.27
8267.02
7761.95
6978.57
6135.67
5283.3
4610.69
4378.88
4522.2
5077.64
5958.64
7200.81
8505.11
8875.16
7648.29
5774.07
4053.8
2738.77
1804.51
1176.41
783.417
325.233
46.5553
2.9072
0.138305
0.00173319
1.31622
6.93778
17.8521
44.2256
96.4028
187.615
332.294
549.788
884.366
1397.58
2122.68
2951.43
3749.81
3491.7
2675.96
1743.45
920.15
527.6
458.007
561.713
828.965
1137.31
1287.02
1164.05
826.004
475.188
276.881
255.427
280.564
309.685
333.02
346.177
352.317
355.834
354.952
349.295
351.846
367.496
404.529
473.218
598.632
814.285
1166.17
1733.9
2619.29
3699.67
4889.3
5850.73
6369.15
6027.3
5250.39
4186.74
2855.17
1700.12
892.459
238.361
20.0953
1.00053
0.0384301
0.0017757
2.5564
2.87181
2.73683
4.38862
8.97264
17.4635
31.5209
52.6075
84.0568
129.888
192.308
259.593
326.176
300.849
203.766
106.86
44.7511
24.4861
23.4506
31.3941
49.3051
73.5864
86.6877
76.8106
51.5623
31.5759
24.9947
26.6351
29.4219
32.5538
35.9194
39.6282
44.0114
49.5744
56.9654
67.1068
81.7747
103.222
135.116
183.162
256.815
373.071
561.432
866.484
1377.02
2241.5
3597.58
4517.95
4415.34
3672.57
2807.89
2153.49
1608.87
1003.97
466.019
114.314
8.58309
0.333142
0.010515
0.00183961
5.68847
8.43244
5.46906
3.18793
2.92862
3.14902
3.97518
5.0565
6.67788
9.03707
12.3623
15.9737
19.7226
17.2215
10.4915
5.24226
3.01801
2.73581
3.13636
3.9399
5.1611
6.58341
7.4282
7.2056
6.47086
6.21923
6.55391
7.2906
8.21317
9.3427
10.7296
12.4724
14.7031
17.6281
21.568
27.0369
34.9655
46.8796
65.3426
94.7904
143.283
225.027
364.438
598.751
976.079
1497.36
2071.03
2373.72
2219.42
1717.99
1238.08
951.301
745.365
495.749
229.245
56.1921
3.37889
0.109157
0.00350162
0.00187235
10.805
30.5877
26.7509
18.3303
16.1425
14.0753
13.3063
11.2636
8.58664
5.5527
3.33855
2.30265
2.1708
1.95131
1.66488
1.51544
1.50406
1.57271
1.68226
1.82335
1.99716
2.1935
2.38436
2.56327
2.75213
2.99381
3.3139
3.69522
4.08714
4.55247
5.17148
6.02455
7.20728
8.87144
11.2543
14.7598
20.1353
28.7537
43.1181
67.9013
111.891
191.304
335.637
594.795
1065.62
1646.05
2002.25
1908.72
1502.08
966.757
548.239
325.023
217.64
154.593
75.0963
14.7702
0.600069
0.0142739
0.00162798
0.00192327
29.1752
117.207
143.395
130.071
131.277
127.7
128.1
119.811
104.672
83.1468
61.4359
46.1905
40.0635
37.0272
34.3306
31.8642
29.5021
27.3438
25.2129
23.169
21.2714
19.6285
18.2424
17.1501
16.2911
15.6805
15.3157
14.6366
13.4402
12.028
10.7414
9.75681
9.14293
8.95907
9.25816
10.1033
11.6294
14.1287
18.1149
24.4688
34.6933
51.3405
78.5847
123.985
179.78
226.125
236.944
206.917
152.737
99.4111
67.0359
50.4321
40.9261
31.3112
14.2031
1.97043
0.0553878
0.00419206
0.00410201
0.00237856
182.289
351.75
722.634
897.321
1062
1178.56
1276.63
1344.85
1381.9
1382.71
1347.76
1285.84
1205.18
1124.64
1045.29
971.015
896.647
821.78
745.359
669.619
595.144
525.567
461.249
404.501
353.782
309.06
268.499
232.232
199.282
169.65
143.499
121.149
102.367
86.9019
74.3655
64.459
56.816
51.1821
47.3391
44.9236
43.5425
42.7165
41.9846
40.5107
35.749
28.0972
19.7987
12.6606
7.36473
3.91092
1.94028
0.90171
0.404648
0.174846
0.0619502
0.0182782
0.0122722
0.0105665
0.0104088
0.0124568
129.965
294.404
625.882
792.249
958.33
1062.86
1157.23
1219.43
1259.4
1280.73
1275.11
1254.27
1206.72
1148.16
1070.67
989.153
902.875
817.862
735.316
656.15
580.977
511.015
446.156
387.586
334.603
287.806
246.096
209.349
176.899
148.695
124.352
103.703
86.4613
72.4648
61.4029
52.9185
46.5461
41.9714
38.9799
37.3658
36.9509
37.4471
38.4557
38.4857
35.1591
28.3808
20.376
13.2464
7.9567
4.47747
2.39447
1.2176
0.59649
0.281505
0.105371
0.022441
0.011782
0.0100671
0.0100759
0.0128851
21.9967
80.782
105.832
96.059
92.6244
84.4042
83.8347
80.6636
80.2334
78.2419
75.6924
70.0444
64.4349
57.0071
50.4348
43.9772
38.1384
33.484
29.54
26.4489
23.8725
21.6574
19.7689
18.075
16.5316
15.1555
13.8592
12.623
11.4208
10.3288
9.41026
8.72099
8.32166
8.28854
8.64957
9.4427
10.7208
12.6359
15.4833
19.7608
26.3549
36.757
53.9288
75.7131
98.2934
114.038
117.069
108.89
95.9655
82.8115
71.2309
61.876
54.0548
43.7836
23.396
3.98793
0.118656
0.00538433
0.00443737
0.00244809
6.71361
17.8231
16.2745
10.6957
8.30595
6.12711
5.57101
4.91416
4.82062
4.63735
4.44053
4.01182
3.61101
3.10513
2.73631
2.42947
2.20658
2.10316
2.08046
2.13628
2.24764
2.39818
2.58294
2.79754
3.03997
3.32967
3.67492
4.0972
4.6152
5.2709
6.1146
7.21691
8.66826
10.6043
13.2163
16.8215
21.9276
29.451
40.8706
58.6412
87.3572
135.214
217.523
360.83
618.39
921.46
1107.48
1067.74
861.89
634.402
450.515
328.111
243.245
184.637
103.496
23.5115
1.05728
0.0208536
0.00176834
0.00190847
2.76814
4.36246
2.75191
1.33146
0.902501
0.630727
0.611429
0.619095
0.722485
0.85365
1.03979
1.27318
1.58728
1.98217
2.47053
3.04257
3.68235
4.3708
5.12261
5.96118
6.89826
7.91594
9.00373
10.1656
11.4167
12.7832
14.2584
15.8624
17.621
19.5962
21.9059
24.9123
29.2159
35.681
45.496
60.4899
83.7335
120.869
182.032
284.529
465.206
798.622
1444.77
2718.01
5155.2
9436.27
12934
13581.6
10956.6
7010.81
3685
1949.25
1169.72
704.332
342.142
87.7779
6.36966
0.159942
0.00433846
0.0018061
1.29412
1.31433
0.716727
0.500049
0.601565
0.840573
1.25598
1.88144
2.84273
4.28086
6.48118
9.74585
14.4659
20.8676
28.9553
38.4335
48.6532
58.4828
67.6077
77.1858
87.8808
96.0836
101.531
104.072
105.541
106.621
108.991
111.206
112.717
113.332
112.463
110.662
110.266
114.861
128.179
154.022
191.594
248.338
341.814
501.93
782.25
1282.71
2210.38
3972.88
7312.12
13826.5
27061.1
35417.8
33084
21898.4
10138.6
4802.4
3070.6
1994.21
988.297
253.553
26.5353
0.88686
0.0263665
0.00178735
0.719833
1.09112
1.35505
2.07065
3.26185
5.17158
8.20263
13.1356
21.3623
34.8792
57.6366
95.296
155.825
247.149
375.043
539.252
728.874
914.358
1061.5
1183.09
1318.5
1403.8
1420.97
1374.63
1293.45
1205.59
1172.96
1164.27
1163.42
1177.2
1184.07
1144.8
1041.79
898.809
754.673
632.301
560.26
562.034
583.298
701.883
1000.7
1547.59
2535.84
4345.36
7571.8
13460.7
27540
45280.2
49343
37806.8
19280.4
9275.73
5451.89
3202.36
1629.2
578.225
83.0234
3.10674
0.104885
0.00176542
0.603169
6.44062
12.6964
21.7885
31.9882
47.1916
71.8592
114.757
189.407
322.04
562.696
996.664
1744.23
2924.16
4594.67
6701.98
9139.93
11722.8
13895
15539.7
17033.5
17811.3
18037.6
17822.4
17231.2
16508.8
16105.5
16343.4
16865.9
18009.3
19717
21419.7
22339.1
21996.2
20481.6
17879.9
15097.5
12745
9914.58
5743.17
3870.36
3703.9
4436.74
6195.1
9328.12
13920.3
20948.3
29671.9
32182.7
27785.4
18824.7
11215
6340.36
3302.59
1601.44
629.016
124.226
8.00901
0.277248
0.00175807
1.81276
71.1934
168.585
294.017
403.147
567.94
866.361
1409.06
2172.99
3477.29
5809.78
9746.2
15822.1
24525.9
35295.7
46864.8
58307.3
70639.3
81798.1
88150.3
91704.5
93347.9
93463.3
92516.2
90343
88573
87691.6
87940
89560.1
93725.9
101535
112349
123964
133502
139610
138907
129791
112210
93554.6
72257.9
52798.4
37603.6
27106.7
21587.8
19273
18685.7
19014.7
19646.4
18932.8
15152.9
10757.4
6545.05
3690.4
2003.53
1093.01
495.704
116.545
10.6887
0.511602
0.00180075
35.5017
1068.39
3450.62
6305.97
7863.26
7927.84
11521.4
16480.5
18863.3
24516.3
33287.3
46987.3
64461.9
83109.2
103514
124494
141483
152753
161402
167465
169729
169438
166701
162358
156277
149302
143386
139060
136360
135733
136856
138914
140624
139835
135217
127254
116433
103788
91546.1
81361.7
70483.3
57996.8
44564.2
32228.3
22619.5
15754.8
11122.3
8725.28
7821.69
6784.1
5090.65
3315.84
2030.36
1224.26
784.096
382.113
89.9702
10.3105
0.689651
0.00195699
74.9215
2612.1
8180.19
19795.9
36790.5
60212.5
79318.5
81640.9
75218.1
69650.8
66865.8
66009.4
67612.1
70290.8
73857.9
78470.9
83706.2
88583.4
92611.1
95697.9
97618.1
98634.6
99291.5
99994.5
100565
99166.9
94704.6
89153.8
85099.9
81776.6
77845.4
73029.7
67412.4
61192.4
54944.2
48936.2
42946.1
37030.5
31319.5
26107.5
21258.3
16813.5
12804.2
9326.99
6579.6
4634.05
3345.92
2584.85
2182.67
1900.38
1504.73
1073.07
737.55
521.213
404.86
240.562
74.6924
11.8158
1.08562
0.00253625
54.79
1641.02
18112.2
35662.4
44082
52018.4
60875.8
71556.4
76963
69840.6
61460.3
58651.9
57600.8
55738.2
52658.4
49695.6
48064.9
47933.6
48684.3
49504.1
49605.4
48702.3
47002.2
44744.9
42126.9
39278.2
36124.5
33138.7
30638.4
28484.1
26371.9
24241.1
22463.6
21478.8
21051.6
20773.3
20386.3
19885.8
18964.1
17199.9
14617.1
11751.1
8998.73
6499.86
4417.42
2874.53
1879.32
1319.47
995.43
777.418
627.379
492.515
390.471
335.467
310.883
196.084
61.3559
10.3641
1.0205
0.00258359
37.6532
607.563
2753.92
3748.65
4749.44
7447.73
12865.7
25990.3
51431.7
76596.5
81243.1
77289
80818.9
83887.2
83102.7
83021.2
84759.6
86181.9
86021.6
83313.2
78465.1
72865.2
66981.1
60686.1
54064.6
47685.4
42076.8
37295.9
33355.1
30535.3
28868.9
28196.2
28252.8
28768.8
29526
30164.5
30480.9
30114.2
28347.8
24753
19775.9
14317.1
9291.23
5545.38
3162.16
1823.31
1162.58
851.822
665.123
551.194
486.647
429.864
384.587
371.005
339.866
187.429
53.5146
9.6452
0.990574
0.00255393
35.2423
1166.26
6069.08
10280.1
12604.9
15973.8
21857.6
31857.1
44339.4
51798.5
54321.8
60890.2
75428.9
91241.9
96788.9
90810.9
84164.7
81815.1
82126.1
82589.9
81748.5
79234.1
75090.3
69341.6
62647.3
55763.7
49275.4
43599.6
38942.6
35605
33618.3
32726.2
32690.6
33349.9
34485.2
35612.2
36263.9
36038
34555
30951
24886.5
17701
11322
6765.16
3839.2
2129.76
1248.48
870.802
684.261
575.215
518.617
460.523
403.895
378.754
357.929
213.535
63.0209
10.9121
1.10764
0.00263482
39.1206
1076.09
4087.27
10926.2
15550.5
19352.4
22097.6
25395.5
30000.6
34553.2
37549.3
41436.2
45935
47832.6
45515.7
43087.7
42888.8
44320.2
46723.8
49366.3
51862.7
54264.9
56267.4
57016.8
54858.9
49699.8
43852.9
38929.4
35132.1
32679.3
31531.7
31494.1
32304.3
33748.8
35517.4
37067.5
37813.6
37223.2
35104.4
31541.1
26495.4
20633.7
14871.1
10029.9
6367.59
3944.96
2528.58
1731.81
1291.7
1044.28
870.993
707.695
552.967
446.901
395.8
287.452
105.497
17.0338
1.57041
0.0029278
74.8967
1642.79
3754.89
6629.63
8839.3
13814.9
19263
25020.1
32013.2
41624
52322.2
61384.9
67465.2
66863.5
62766.6
60810.7
61341
63769.7
67834.8
72443.7
76610.7
80449
84607.6
88951.3
91111.6
88760.9
82767.4
76160.5
70653.5
67496.9
67907.5
70524.4
74391.2
78991.5
83244.2
85755.9
85243.3
80244.4
70243.4
56012.5
40357.5
26928.1
17237.6
10746.1
6350.35
3621.47
2089.47
1294.2
1003.06
1044.85
1014.72
850.467
687.999
558.944
476.667
366.989
155.561
26.0974
2.17881
0.00302411
109.529
819.157
1163.54
1902.95
3128.84
5177.12
9125.98
17264.6
29565.6
44753.8
59822.7
71068.9
76041.1
78235.1
83068.8
90683.9
100293
111322
121811
129327
132360
131317
127435
120634
110211
96914.8
84397.6
76132
73854.7
75886.8
79948.6
85400.7
90949.5
94118.1
93915.6
89385.8
79347.9
64392.4
48293.2
33122.3
20996.7
12825.7
7806.4
4767.01
2898.05
1810.42
1270.71
1178.79
1654.13
2242.8
2216.59
1819.56
1370.68
1009.66
774.222
541.522
194.381
23.2456
1.37018
0.00211578
31.8491
585.779
1379.86
2840.17
5091.33
9098.67
15542.5
26373.7
43821.4
63059.5
81415.5
94827
101396
105464
110764
118438
130782
146471
161227
170489
171821
165894
155705
144075
131252
117638
105010
96697.2
93900.6
95021
99062.3
103597
106201
105574
101777
94216.4
82833
68503.6
52080.8
34151
18801.3
9338.1
4883.43
3079.21
2310.58
2077.83
2282.67
3005.56
3944.22
4159.87
3620.09
2765.12
1990.34
1420.83
1036.21
669.852
218.071
23.9167
1.28822
0.00206405
6.58594
129.218
325.284
704.648
1355.84
2445.69
4323.9
7627.86
13126.6
21523.8
29334.4
33484.8
33765.6
33180.4
34926.3
39795.4
44708.1
49540.5
53246.5
55400.1
56266.8
57003.2
57419.7
56522.5
54064.1
51189.3
49086.5
49459.5
51790.7
54829.2
57908.4
59796.7
59280.9
56172.7
50937.7
43435.2
34829
26327.9
18862.6
12118.1
7424.34
4836.75
3651.48
3147.17
3186.67
3756.49
4739.04
5812.7
5903.46
5153.71
3985.33
2828.92
2008.77
1443.61
997.036
412.257
69.2789
5.22191
0.28202
0.00175448
1.88923
8.30284
18.2504
37.2773
71.5211
130.866
239.088
441.916
819.42
1468.7
2461.67
2802.9
2343.71
1866.09
1953.53
2339.97
2774.31
3291.72
3852.44
4523.69
5390.29
6529.71
7320.38
7450.91
7055.06
6509.78
6218.86
6542.77
7215.67
8069.25
8879.89
9522.61
10032.2
10350.3
9911.14
8771.42
7162.64
5517.21
4149.88
3050.45
2785.4
2993.7
3586.62
4819.76
6687.62
8715.59
11072
12987.9
13259.1
11846.3
9270.12
6574.59
4076.24
2049.08
712.335
183.726
22.8228
1.36432
0.0581386
0.00175112
3.61049
2.8753
2.28669
2.80843
4.27617
6.50449
9.9024
15.0706
23.2651
36.2876
54.2876
72.066
53.9774
38.5153
43.533
52.6239
63.1314
76.1145
91.658
112.316
139.905
175.182
219.78
229.674
207.198
187.934
207.831
246.332
286.734
325.537
363.396
398.802
438.101
491.495
578.181
594.024
535.688
459.999
418.156
433.539
587.738
844.354
1261.29
1929.99
2870.04
4241.14
7138.63
9158.57
8726.09
7069.46
5186.48
3386.49
1914.47
926.1
334.436
85.0726
7.46977
0.346005
0.0120408
0.00180692
5.71139
7.6402
4.5922
2.49841
1.87335
1.44333
1.35571
1.30273
1.40291
1.60493
1.8799
2.02402
1.95756
1.99555
2.28547
2.61039
2.96238
3.37
3.83768
4.40804
5.07108
5.82697
6.60628
7.33126
8.20862
9.43961
11.0083
12.7893
14.666
16.6674
18.8495
21.2511
24.0556
27.5031
31.7965
37.2384
44.9758
56.7432
75.2294
104.989
155.384
242.211
400.24
700.183
1278.18
2388.52
3647.17
3980.58
3320.55
2327.58
1575.29
1086.39
717.363
387.006
155.594
34.8367
2.06537
0.072698
0.00267377
0.00184275
10.6445
28.5912
23.8256
16.0357
12.9269
9.88925
8.43542
6.58603
5.31446
4.17587
3.52523
3.35501
3.42573
3.58008
3.66662
3.58227
3.34695
3.11856
2.90081
2.76319
2.68551
2.68389
2.7467
2.8678
3.02034
3.19379
3.38649
3.61303
3.89816
4.27205
4.76831
5.41552
6.25248
7.33612
8.7579
10.6714
13.3411
17.2191
23.172
32.8971
49.8494
80.7489
140.053
256.354
480.002
898.904
1292.7
1401.04
1148.57
734.068
443.903
308.617
224.181
138.247
58.1071
9.7827
0.394328
0.0108538
0.00168493
0.00192979
30.0438
111.605
136.267
121.927
118.54
109.462
104.885
94.9604
86.0133
75.5377
67.7059
63.2008
60.8651
59.3073
57.2078
53.8414
48.9947
44.1357
39.2346
34.9857
31.1965
28.0869
25.4981
23.3091
21.1502
18.9714
16.7031
14.4036
12.229
10.3178
8.79046
7.68325
6.96623
6.61636
6.61672
6.95179
7.62966
8.6931
10.2843
12.7369
16.7462
23.7223
36.7109
61.9203
112.871
184.858
245.008
246.563
187.964
119.487
80.3645
63.9913
53.9446
34.98
13.7051
1.59461
0.047663
0.00455415
0.00450108
0.00248515
158.991
356.075
727.576
912.905
1090.8
1214
1313.87
1375.83
1402.35
1396.71
1359.03
1304.16
1234.93
1161.36
1084.93
1009.9
933.348
857.812
782.821
710.296
638.137
569.619
504.16
443.877
387.141
334.839
286.534
242.913
203.916
170.014
140.913
116.478
96.2144
79.6589
66.3562
55.9308
47.9466
41.925
37.4677
34.29
32.2034
31.1126
31.1387
32.0716
32.7188
29.3577
22.4942
14.8649
8.58574
4.46036
2.18401
1.04704
0.520553
0.213923
0.0678876
0.0185062
0.0122292
0.0104263
0.0103421
0.0134588
150.456
283.187
611.448
779.151
931.63
1040.02
1127.21
1187.36
1217.63
1215.04
1180.04
1122.1
1048.59
974.541
902.891
836.317
770.471
705.368
639.634
575.713
513.359
455.749
402.819
356.922
316.381
281.363
250.823
223.809
199.005
176.3
155.976
138.428
123.481
110.982
100.678
92.5943
86.7862
83.2587
81.7291
81.3614
80.9462
79.0755
75.0551
68.7768
59.5086
47.1805
34.2873
22.9629
14.1478
7.99158
4.21503
2.06296
0.950611
0.389759
0.121032
0.0203307
0.010123
0.00878023
0.00901059
0.0108504
91.332
204.43
452.356
579.101
691.201
773.934
835.955
877.025
894.11
885.966
853.839
805.587
746.963
689.78
637.794
590.276
544.377
500.164
456.37
415.827
377.875
343.957
313.4
287.421
265.231
246.788
230.972
216.562
202.045
187.137
172.123
157.757
144.35
131.989
120.975
111.986
105.671
101.834
99.0574
97.0579
95.3859
92.9318
89.7024
84.9201
77.159
65.293
50.3884
35.9413
23.8165
14.6822
8.58824
4.75029
2.5096
1.13083
0.340409
0.0347555
0.00821951
0.00691043
0.00738497
0.00890772
74.789
143.875
286.783
355.853
422.561
476.648
514.023
537.817
545.373
536.199
511.921
479.445
445.284
413.464
384.072
358.035
333.08
309.435
286.351
265.346
245.82
228.385
212.708
198.991
186.714
175.938
166.023
155.897
144.7
133.068
122.478
113.55
105.506
98.7428
93.6423
89.0711
85.3855
84.7589
88.6862
99.4932
116.6
133.927
143.617
146.44
147.188
136.623
107.922
75.9241
48.8182
30.0586
18.3035
11.1501
6.89522
3.55808
1.15894
0.106853
0.00792488
0.00524572
0.00581108
0.00714713
64.3266
96.9877
158.9
182.427
213.771
242.128
263.091
277.31
282.544
278.927
267.812
252.863
236.729
221.532
207.101
194.115
181.155
168.316
155.174
142.454
130.35
119.606
110.309
102.709
97.0371
93.7735
93.1739
96.7673
106.654
125.998
162.808
199.569
216.258
228.71
245.613
243.633
226.844
220.675
228.714
272.386
350.485
421.598
445.589
447.326
493.508
539.79
464.699
332.042
195.886
96.8504
49.6705
27.5783
17.8667
10.3922
3.76717
0.409834
0.013682
0.00426868
0.00469732
0.00596689
57.4746
52.1598
69.3068
81.7997
95.7971
110.383
120.951
129.462
133.664
133.286
128.575
121.452
113.39
105.388
97.6306
90.5202
83.9573
78.2906
74.0728
71.978
71.5346
71.7736
73.7034
77.8426
83.3981
91.9789
106.879
132.025
175.569
245.719
329.397
415.645
503.253
599.279
701.7
787.362
844.007
907.174
1012.27
1143.74
1323.72
1437.98
1357
1169.49
971.077
794.165
590.642
375.619
200.703
100.586
59.499
44.9714
33.3894
21.1304
8.68567
1.27033
0.0392651
0.00437412
0.00419304
0.00543933
47.1744
30.2108
41.3223
49.9765
61.9378
70.8299
80.3994
87.4109
92.6968
95.0578
94.5619
91.9998
88.6154
84.9061
81.1095
77.4562
74.1896
71.8662
71.1132
72.141
75.2085
79.4423
84.3045
88.8007
90.9725
91.4389
94.5811
103.435
121.947
152.588
202.629
270.943
350.756
448.224
543.287
641.107
739.868
853.817
974.161
1063.26
1149.38
1187.71
1110.14
1025.41
1000.75
943.91
846.749
693.667
501.203
311.064
178.291
102.948
59.3812
28.3971
9.19356
1.20421
0.0388204
0.00438667
0.00421346
0.00541412
56.3067
55.6013
80.2395
89.8888
106
117.15
130.737
139.773
147.016
150.147
150.754
149.624
147.776
145.035
141.603
137.178
132.169
126.634
121.155
116.176
112.428
110.326
109.656
108.843
106.627
104.464
103.768
106.766
112.602
120.253
131.209
149.718
186.398
245.366
305.974
349.502
364.519
358.059
323.672
271.768
238.604
213.105
172.618
116.994
97.2334
83.1464
77.0874
74.3663
76.6853
83.0843
97.5685
91.02
67.194
38.3218
13.6669
1.91598
0.0451797
0.00469521
0.00459501
0.00582157
45.3534
83.5661
177.695
222.83
270.61
298.913
328.78
345.721
353.807
350.835
340.128
323.025
306.572
290.384
273.589
255.233
236
216.619
198.48
182.746
171.892
167.498
172.702
188.602
216.38
253.83
305.434
381.314
503.09
677.761
952.265
1321.98
1789.29
2329.44
2944.95
3658.34
4285.4
4623.22
4868.79
4993.67
5142.25
5396.58
5442.01
4951.97
3786.15
2683.19
1899.71
1179.77
644.979
326.598
188.934
110.114
57.15
27.5015
8.64721
0.827578
0.0186205
0.00481859
0.00554391
0.00682081
41.8299
101.382
261.356
368.011
487.003
568.265
653.433
718.192
767.683
797.285
810.627
805.499
787.814
768.392
748.432
723.809
695.28
660.44
621.235
578.83
537.275
497.24
461.772
432.714
410.783
398.014
396.452
409.675
442.597
498.857
585.374
737.141
943.674
1151.41
1384.1
1642.23
1882.27
2093.69
2303.2
2553.79
2922.7
3288.63
3438.09
2996.24
2202.8
1382.53
809.881
444.137
223.297
110.497
70.3819
42.9971
23.6422
10.5776
3.24834
0.274789
0.00968108
0.00556582
0.00669921
0.00806046
44.2885
127.612
346.773
468.688
607.268
712.011
815.675
899.734
968.059
1016.78
1047.49
1059.04
1055.73
1043.17
1023.66
997.881
965.423
926.33
881.958
835.425
787.741
740.721
693.913
650.023
610.641
576.934
545.298
513.011
478.926
444.912
409.993
376.421
345.669
319.747
302.712
297.882
305.706
328.926
371.81
441.755
540.616
635.101
672.841
603.782
469.349
330.571
233.164
173.654
120.449
73.3113
46.6783
28.8606
17.3121
8.66184
2.82225
0.268733
0.0103617
0.00611212
0.00727233
0.00895168
54.8766
158.817
417.814
547.932
690.708
799.572
900.788
981.218
1044.2
1087.73
1110.07
1115.17
1103.97
1079.81
1047.14
1006.62
960.516
911.011
859.23
809.464
758.684
710.124
661.025
615.693
574.471
538.956
505.991
474.599
442.731
410.151
376.419
342.434
309.865
280.195
254.221
233.017
217.607
208.406
205.288
207.624
214.401
220.632
219.49
204.15
175.003
139.482
106.906
78.4602
53.3921
34.53
23.0564
17.002
12.6315
7.46149
3.09252
0.497558
0.020448
0.00657128
0.00740095
0.00940351
63.4186
167.65
434.396
576.915
720.934
831.146
926.863
999.927
1053.35
1087.22
1099.44
1094
1070.47
1035.69
991.084
939.823
883.48
825.033
766.521
711.613
658.356
609.523
562.629
519.959
480.954
447.104
416.512
388.288
360.815
334.104
307.926
283.175
260.742
241.765
228.185
214.073
196.453
181.384
171.759
166.17
161.964
155.406
145.255
131.348
112.334
89.552
67.1941
47.704
32.2404
21.3798
14.5303
10.4205
7.53618
4.59362
1.9336
0.274211
0.013504
0.00691499
0.00772188
0.00994964
63.8409
174.672
476.013
629.651
780.373
890.816
983.976
1050.37
1094.72
1119.72
1120.28
1103.3
1064.86
1014.64
953.122
887.545
818.534
749.834
683.385
621.372
562.301
508.418
458.223
413.457
373.303
338.532
307.641
280.075
254.685
231.486
210.261
191.098
174.035
159.573
148.161
139.432
133.026
128.817
125.878
124.149
121.583
116.545
108.484
97.4715
82.8089
65.2981
48.0425
33.3298
22.029
14.1294
8.94663
5.57731
3.45619
1.97394
0.789698
0.0987395
0.0106053
0.00773413