/*--------------------------------*- C++ -*----------------------------------*\
| =========                 |                                                 |
| \\      /  F ield         | OpenFOAM: The Open Source CFD Toolbox           |
|  \\    /   O peration     | Version:  2.1.1                                 |
|   \\  /    A nd           | Web:      www.OpenFOAM.org                      |
|    \\/     M anipulation  |                                                 |
\*---------------------------------------------------------------------------*/
FoamFile
{
    version     2.0;
    format      ascii;
    class       volVectorField;
    location    "0.00125";
    object      fluctuation2;
}
// * * * * * * * * * * * * * * * * * * * * * * * * * * * * * * * * * * * * * //

dimensions      [0 1 -1 0 0 0 0];

internalField   nonuniform List<vector> 
36520
(
(0.341066 0.189906 0.232161)
(0.483216 0.297908 0.283303)
(0.646849 0.404823 0.384585)
(0.706335 0.451829 0.430889)
(0.759701 0.483955 0.465211)
(0.795378 0.50554 0.489208)
(0.827253 0.521927 0.507796)
(0.850972 0.533096 0.522534)
(0.866185 0.539189 0.533097)
(0.869077 0.539738 0.538695)
(0.858504 0.533837 0.53755)
(0.837439 0.522384 0.529554)
(0.808854 0.506022 0.514515)
(0.782606 0.489903 0.497777)
(0.763441 0.476868 0.482667)
(0.749098 0.466037 0.469455)
(0.73522 0.455698 0.457249)
(0.719358 0.444597 0.444852)
(0.700839 0.432353 0.431839)
(0.680018 0.4188 0.417649)
(0.657528 0.404258 0.402513)
(0.635027 0.389576 0.387099)
(0.611921 0.374482 0.371222)
(0.588565 0.359165 0.355167)
(0.56452 0.343439 0.338767)
(0.540339 0.327674 0.322423)
(0.515676 0.311763 0.306064)
(0.490709 0.295844 0.289915)
(0.465249 0.279826 0.273881)
(0.439553 0.263831 0.258108)
(0.41369 0.247901 0.242595)
(0.3881 0.2323 0.227498)
(0.363142 0.217234 0.212862)
(0.33945 0.203051 0.198871)
(0.317591 0.190071 0.185705)
(0.298059 0.178565 0.173635)
(0.281068 0.168659 0.162818)
(0.2667 0.160374 0.153383)
(0.254765 0.153563 0.145252)
(0.245093 0.148125 0.138362)
(0.237801 0.144164 0.132798)
(0.2336 0.142213 0.128946)
(0.234235 0.143485 0.12778)
(0.241322 0.149109 0.130323)
(0.253412 0.15827 0.136055)
(0.264784 0.167038 0.1423)
(0.265967 0.168959 0.144435)
(0.245593 0.15648 0.136236)
(0.2123 0.135767 0.122076)
(0.173577 0.112002 0.105274)
(0.136055 0.0887851 0.0876861)
(0.103923 0.06817 0.0707067)
(0.0743761 0.0497572 0.0530142)
(0.0454313 0.0331068 0.034378)
(0.0235061 0.0218898 0.020443)
(0.0131697 0.0169676 0.0143738)
(0.011193 0.0152708 0.012836)
(0.0109643 0.013935 0.0119752)
(0.0113571 0.0135438 0.0118722)
(0.0127264 0.0148256 0.0131248)
(0.27897 0.151918 0.15259)
(0.319032 0.194688 0.182179)
(0.352098 0.219762 0.209595)
(0.3448 0.218666 0.210343)
(0.345369 0.218874 0.211631)
(0.342402 0.21673 0.210884)
(0.344136 0.216752 0.211756)
(0.33811 0.212017 0.208736)
(0.323478 0.202525 0.200972)
(0.294895 0.185509 0.185604)
(0.258504 0.164187 0.165298)
(0.22603 0.145191 0.146441)
(0.212475 0.137116 0.138021)
(0.209083 0.134523 0.134906)
(0.206686 0.13206 0.131794)
(0.203998 0.129279 0.128529)
(0.200101 0.125969 0.124967)
(0.19535 0.122418 0.121273)
(0.189879 0.118672 0.117407)
(0.184961 0.115353 0.113928)
(0.180468 0.112312 0.110699)
(0.17635 0.109449 0.107611)
(0.172256 0.106595 0.104516)
(0.168232 0.103774 0.101472)
(0.163999 0.100868 0.0983565)
(0.159125 0.0976193 0.0949244)
(0.153169 0.0937887 0.0909576)
(0.145857 0.0892144 0.0863344)
(0.137381 0.0840117 0.0811718)
(0.127947 0.0782914 0.0755855)
(0.117886 0.0722697 0.0697456)
(0.107946 0.0664059 0.0640386)
(0.0992104 0.0613388 0.0590167)
(0.0927866 0.0576972 0.0552337)
(0.0893958 0.0558817 0.0530619)
(0.0889071 0.0557915 0.0524365)
(0.0905294 0.0569628 0.0529075)
(0.0934336 0.0589234 0.0540373)
(0.0971623 0.0614253 0.0555768)
(0.101509 0.0643826 0.0574251)
(0.106674 0.0679565 0.0597064)
(0.113447 0.072677 0.0628499)
(0.123108 0.0793845 0.0675791)
(0.136601 0.0886839 0.0745666)
(0.153484 0.100177 0.0838249)
(0.171528 0.112031 0.0944956)
(0.185058 0.119886 0.103708)
(0.191058 0.121114 0.109424)
(0.194053 0.118799 0.113852)
(0.196093 0.115448 0.117846)
(0.194913 0.111159 0.119435)
(0.183512 0.102357 0.113154)
(0.149594 0.0831681 0.0932301)
(0.102277 0.0585716 0.0654533)
(0.0551568 0.0325815 0.0359723)
(0.0199969 0.0121066 0.0134293)
(0.00580039 0.00476304 0.0054252)
(0.00444618 0.00440069 0.00491757)
(0.00528883 0.00510422 0.00556499)
(0.00948399 0.00968734 0.00988553)
(0.198099 0.102446 0.10177)
(0.175812 0.107067 0.100445)
(0.176172 0.109747 0.105293)
(0.158459 0.100467 0.0970549)
(0.150548 0.0956027 0.0926555)
(0.142408 0.0903844 0.0881422)
(0.13993 0.0884911 0.0866593)
(0.132713 0.0837752 0.0827191)
(0.12097 0.0766833 0.0761627)
(0.102453 0.0660198 0.0657827)
(0.0833757 0.0553895 0.0549198)
(0.0720036 0.0495077 0.0485502)
(0.0731418 0.0509628 0.0496862)
(0.0712603 0.0490046 0.0475832)
(0.0634584 0.0424054 0.0410003)
(0.0596135 0.0389407 0.0376506)
(0.0579509 0.0374533 0.0363309)
(0.0567994 0.0365319 0.035551)
(0.0558889 0.0358987 0.0350336)
(0.0556699 0.0357458 0.0349666)
(0.0557611 0.0357955 0.0350927)
(0.055945 0.0358931 0.0352428)
(0.0561131 0.0359825 0.0353531)
(0.0562911 0.036094 0.0354601)
(0.0565123 0.036265 0.0356065)
(0.0564916 0.0363283 0.0356509)
(0.056061 0.0361904 0.035519)
(0.0551342 0.0358073 0.0351926)
(0.0539398 0.0353147 0.0348109)
(0.0527184 0.0348498 0.0345194)
(0.051803 0.0346068 0.0345004)
(0.0516055 0.0348047 0.0349531)
(0.0524419 0.0355978 0.0359878)
(0.05442 0.0370209 0.0375814)
(0.0574283 0.0390049 0.03959)
(0.061264 0.041448 0.041877)
(0.0658656 0.0443485 0.0444252)
(0.0712096 0.0477182 0.0472643)
(0.0773348 0.051598 0.0504556)
(0.0843983 0.0561068 0.0541199)
(0.0928127 0.0615235 0.0585443)
(0.103341 0.0683515 0.0641883)
(0.117244 0.0773882 0.071773)
(0.136054 0.0895855 0.0822202)
(0.160991 0.105668 0.0962948)
(0.19311 0.125961 0.114432)
(0.23406 0.150979 0.137595)
(0.279253 0.175839 0.162416)
(0.31992 0.194135 0.183338)
(0.352712 0.205462 0.199627)
(0.358931 0.201635 0.202261)
(0.32538 0.177564 0.182448)
(0.263928 0.143035 0.148069)
(0.187981 0.10478 0.108191)
(0.113341 0.0656573 0.0681291)
(0.0484575 0.0280778 0.0298735)
(0.0118757 0.00694178 0.0074197)
(0.00284596 0.00222498 0.00249027)
(0.00309635 0.00294151 0.00320902)
(0.00869327 0.00881909 0.00897073)
(0.141544 0.0701575 0.0710835)
(0.0981454 0.0595119 0.0562598)
(0.0889116 0.0553365 0.0533916)
(0.0742234 0.0474993 0.0460047)
(0.0680408 0.0443647 0.0429753)
(0.0639442 0.0426048 0.0414524)
(0.0653343 0.0442884 0.0432844)
(0.0676134 0.0468836 0.0461802)
(0.0734922 0.0523867 0.0517383)
(0.0849268 0.0621511 0.0612657)
(0.104562 0.0775795 0.0760555)
(0.130507 0.0968407 0.0944333)
(0.163881 0.119821 0.116426)
(0.154907 0.112146 0.108589)
(0.0980418 0.0711979 0.06903)
(0.0533517 0.0386532 0.0382142)
(0.0394286 0.0282341 0.0285597)
(0.0377027 0.0267914 0.0274218)
(0.0390006 0.0276365 0.0285216)
(0.041492 0.0293714 0.0305202)
(0.0446604 0.0315604 0.0329809)
(0.0476298 0.0335396 0.0352051)
(0.0500881 0.0351069 0.0369493)
(0.052357 0.036535 0.0384785)
(0.0549661 0.0382215 0.0402412)
(0.0584561 0.0405375 0.042662)
(0.0623656 0.0431463 0.0453807)
(0.0665373 0.0459254 0.0483093)
(0.0709349 0.0488444 0.0514622)
(0.0755998 0.0519069 0.0548827)
(0.0805242 0.05511 0.0585892)
(0.0856136 0.0583774 0.0625092)
(0.0905093 0.0614573 0.0663403)
(0.0946581 0.0639649 0.0695772)
(0.0974533 0.0655006 0.0716371)
(0.0987812 0.0659911 0.0723571)
(0.0995353 0.0660902 0.0723819)
(0.102432 0.0677035 0.0736965)
(0.107815 0.0710104 0.076541)
(0.114816 0.0753957 0.0802539)
(0.123468 0.0808472 0.0849551)
(0.133757 0.0873639 0.0907096)
(0.146311 0.095335 0.0977844)
(0.162892 0.105851 0.107328)
(0.185485 0.120208 0.120544)
(0.216144 0.139694 0.138279)
(0.258505 0.165952 0.162151)
(0.317988 0.200594 0.194729)
(0.41213 0.253818 0.245641)
(0.506023 0.298121 0.291127)
(0.536041 0.300867 0.298985)
(0.489788 0.263869 0.265677)
(0.403049 0.214867 0.214989)
(0.299029 0.163703 0.160738)
(0.195855 0.111026 0.109571)
(0.0981174 0.0559091 0.0577308)
(0.027622 0.0157614 0.0163947)
(0.00549904 0.00317245 0.00331857)
(0.0025054 0.00226948 0.0024453)
(0.00854497 0.00859295 0.00868109)
(0.106722 0.0521521 0.054826)
(0.0568361 0.0351579 0.0340808)
(0.0499918 0.0333848 0.0325791)
(0.0487752 0.0356498 0.0348117)
(0.0596121 0.0451408 0.0440446)
(0.078161 0.0593781 0.0582608)
(0.104338 0.0781055 0.0772886)
(0.13971 0.102743 0.102574)
(0.187122 0.135959 0.136054)
(0.24946 0.180636 0.179778)
(0.326582 0.237052 0.233149)
(0.412844 0.299488 0.290817)
(0.51007 0.364771 0.351521)
(0.488597 0.347361 0.332656)
(0.332788 0.238955 0.228358)
(0.181755 0.131517 0.127676)
(0.107471 0.0781262 0.078028)
(0.0874098 0.0638399 0.0650258)
(0.0890229 0.064951 0.0668785)
(0.0995913 0.072467 0.0751668)
(0.114903 0.0832174 0.0868803)
(0.12812 0.0920994 0.0969539)
(0.137109 0.0976562 0.103707)
(0.143763 0.101453 0.108481)
(0.150997 0.105713 0.113395)
(0.161077 0.112022 0.120063)
(0.177478 0.122793 0.131038)
(0.198238 0.136535 0.144922)
(0.221273 0.15183 0.160348)
(0.246544 0.168556 0.177276)
(0.274019 0.186722 0.195731)
(0.303157 0.205908 0.215431)
(0.330964 0.224047 0.234468)
(0.353037 0.238137 0.249805)
(0.366851 0.246558 0.259392)
(0.35485 0.23741 0.251139)
(0.313394 0.208466 0.223266)
(0.265767 0.175236 0.191409)
(0.229147 0.149218 0.167076)
(0.203696 0.1309 0.149833)
(0.200527 0.12825 0.146762)
(0.206724 0.132319 0.149478)
(0.215488 0.138352 0.153213)
(0.228045 0.146752 0.158987)
(0.246619 0.1588 0.169024)
(0.270423 0.173944 0.182611)
(0.306049 0.196888 0.203059)
(0.358729 0.230708 0.232952)
(0.433704 0.274561 0.273355)
(0.539606 0.326303 0.324185)
(0.607076 0.348431 0.350694)
(0.605851 0.331673 0.340049)
(0.548103 0.293779 0.298517)
(0.43954 0.239043 0.233525)
(0.307094 0.170472 0.163093)
(0.171582 0.0956778 0.0957553)
(0.0565561 0.0319583 0.0326054)
(0.0126142 0.0070661 0.00722941)
(0.00307663 0.00228504 0.0024151)
(0.00855059 0.00850106 0.00850326)
(0.0882416 0.0443568 0.0485681)
(0.0521322 0.0376769 0.0375964)
(0.0731702 0.0556258 0.0551563)
(0.107914 0.083368 0.0820989)
(0.154285 0.119036 0.116359)
(0.214514 0.163126 0.159665)
(0.290166 0.214972 0.212164)
(0.392183 0.282125 0.282015)
(0.527657 0.371491 0.374454)
(0.703957 0.490604 0.493633)
(0.912652 0.635484 0.631711)
(1.12698 0.78542 0.767536)
(1.32698 0.916339 0.884613)
(1.28042 0.884906 0.84405)
(0.975533 0.686482 0.649298)
(0.630414 0.44959 0.429973)
(0.416205 0.296807 0.291196)
(0.33185 0.238009 0.237447)
(0.324623 0.234577 0.235916)
(0.361268 0.26167 0.264591)
(0.412789 0.298216 0.303405)
(0.451938 0.324795 0.333812)
(0.47522 0.339219 0.352907)
(0.490708 0.347816 0.365743)
(0.50598 0.356324 0.377108)
(0.524911 0.367246 0.389705)
(0.550528 0.382828 0.406422)
(0.603985 0.417462 0.441587)
(0.681081 0.468394 0.492137)
(0.767313 0.525265 0.548584)
(0.860445 0.586552 0.609066)
(0.960563 0.651792 0.672114)
(1.05661 0.713243 0.729572)
(1.12436 0.755012 0.766938)
(1.14285 0.764415 0.772975)
(1.09878 0.733637 0.741017)
(1.00738 0.67241 0.681409)
(0.892816 0.596194 0.608842)
(0.785955 0.52384 0.541821)
(0.676749 0.449032 0.473775)
(0.566329 0.37272 0.403943)
(0.486386 0.316894 0.353295)
(0.420476 0.272252 0.310073)
(0.405997 0.264611 0.298923)
(0.41287 0.270752 0.302351)
(0.421909 0.278194 0.307158)
(0.434593 0.287326 0.312328)
(0.464605 0.305571 0.32724)
(0.523588 0.338308 0.358845)
(0.598057 0.375012 0.395592)
(0.658494 0.399127 0.426986)
(0.672497 0.394082 0.425802)
(0.643485 0.368085 0.390229)
(0.583625 0.3258 0.328522)
(0.46031 0.252585 0.243835)
(0.270944 0.14791 0.144348)
(0.103804 0.0578329 0.0578558)
(0.0264384 0.0147067 0.0148408)
(0.00577932 0.00346959 0.00356009)
(0.00858922 0.00840868 0.00831355)
(0.11498 0.0705333 0.077532)
(0.129699 0.0972963 0.100608)
(0.203417 0.154376 0.156003)
(0.298857 0.228114 0.2273)
(0.412832 0.314181 0.306947)
(0.55602 0.415977 0.404925)
(0.725737 0.527501 0.519991)
(0.950604 0.667265 0.671932)
(1.23867 0.845277 0.868741)
(1.60337 1.07533 1.11475)
(2.00927 1.33789 1.38139)
(2.37236 1.57428 1.60557)
(2.59921 1.7225 1.72627)
(2.5987 1.73251 1.6965)
(2.28416 1.55922 1.49212)
(1.79219 1.25444 1.19354)
(1.42518 0.998773 0.966948)
(1.26111 0.881796 0.865466)
(1.24357 0.871978 0.857867)
(1.28926 0.907112 0.891874)
(1.33615 0.942296 0.927701)
(1.36084 0.960064 0.951637)
(1.36316 0.960864 0.964256)
(1.35403 0.95281 0.970002)
(1.34274 0.943506 0.97118)
(1.3383 0.938061 0.970335)
(1.33809 0.935688 0.968938)
(1.36219 0.950932 0.984463)
(1.42702 0.994696 1.02599)
(1.5422 1.07188 1.09852)
(1.67645 1.15996 1.18196)
(1.81412 1.24929 1.26671)
(1.95118 1.33584 1.34742)
(2.06732 1.40541 1.4099)
(2.13151 1.43972 1.4356)
(2.12677 1.43079 1.41742)
(2.05408 1.37921 1.35956)
(1.9124 1.28556 1.26389)
(1.7505 1.1801 1.16131)
(1.58303 1.06848 1.0578)
(1.40072 0.946295 0.948176)
(1.23703 0.833472 0.851273)
(1.04671 0.702819 0.7365)
(0.840176 0.564246 0.608876)
(0.726057 0.486903 0.537438)
(0.672753 0.447251 0.499379)
(0.642875 0.424743 0.473158)
(0.618613 0.407352 0.454367)
(0.60402 0.404505 0.449311)
(0.600761 0.4102 0.451341)
(0.613781 0.411268 0.449876)
(0.619209 0.402701 0.433548)
(0.605014 0.377491 0.400292)
(0.575411 0.340533 0.353557)
(0.535026 0.296855 0.29939)
(0.391814 0.211501 0.207871)
(0.17514 0.0959871 0.094648)
(0.0509632 0.0281103 0.0280485)
(0.0121703 0.00680233 0.00685632)
(0.00875818 0.00833488 0.00814181)
(0.238845 0.171482 0.182592)
(0.293949 0.225224 0.234513)
(0.445221 0.342143 0.345149)
(0.642074 0.494064 0.493654)
(0.848333 0.660463 0.643435)
(1.12805 0.870737 0.834561)
(1.37043 1.03937 0.996497)
(1.70918 1.24184 1.20921)
(2.1045 1.46685 1.45721)
(2.53571 1.71904 1.72868)
(2.92107 1.94913 1.97534)
(3.2064 2.11782 2.15686)
(3.37274 2.22615 2.2681)
(3.45181 2.30348 2.3262)
(3.42611 2.33111 2.31258)
(3.32142 2.30107 2.24838)
(3.23644 2.24306 2.18841)
(3.21534 2.20408 2.16547)
(3.2178 2.18984 2.15734)
(3.1828 2.15971 2.12243)
(3.09557 2.10111 2.05397)
(2.95089 2.01013 1.95622)
(2.76748 1.89683 1.84787)
(2.60609 1.79762 1.76692)
(2.50293 1.7363 1.72797)
(2.43649 1.69978 1.70706)
(2.41158 1.68961 1.70055)
(2.41654 1.69669 1.7021)
(2.43398 1.71152 1.71022)
(2.4694 1.73727 1.7302)
(2.53537 1.7796 1.76544)
(2.61322 1.82628 1.80451)
(2.68635 1.8668 1.8396)
(2.74381 1.89437 1.86421)
(2.77628 1.9046 1.87165)
(2.77488 1.89391 1.85494)
(2.73089 1.85786 1.80943)
(2.62985 1.78781 1.72786)
(2.47888 1.68873 1.61733)
(2.29907 1.57336 1.49261)
(2.09549 1.44401 1.36055)
(1.89221 1.31195 1.23529)
(1.69703 1.18324 1.12326)
(1.49108 1.0471 1.0093)
(1.3035 0.9216 0.903212)
(1.14839 0.811321 0.805582)
(1.01336 0.706287 0.705718)
(0.923206 0.639265 0.636266)
(0.838112 0.589918 0.588903)
(0.746394 0.542811 0.549629)
(0.683539 0.493463 0.505172)
(0.636828 0.445947 0.451846)
(0.585741 0.39694 0.39645)
(0.541382 0.347103 0.345537)
(0.510732 0.29995 0.301958)
(0.426271 0.231764 0.234286)
(0.244662 0.132235 0.131307)
(0.0864608 0.0470215 0.0467675)
(0.0227533 0.0124203 0.012449)
(0.00941721 0.00841071 0.00812059)
(0.312897 0.246433 0.206333)
(0.451442 0.298048 0.300086)
(0.710767 0.497737 0.493838)
(0.925803 0.668419 0.656734)
(1.08601 0.802515 0.803258)
(1.24294 0.928239 0.932678)
(1.38601 1.03734 1.03726)
(1.57043 1.16651 1.14905)
(1.78382 1.30538 1.26411)
(2.02999 1.44807 1.386)
(2.29313 1.58606 1.52297)
(2.54334 1.71487 1.67573)
(2.72853 1.8228 1.82346)
(2.83819 1.91146 1.95764)
(2.92152 1.99249 2.06202)
(3.03254 2.08214 2.13838)
(3.1731 2.17797 2.20365)
(3.31385 2.26632 2.263)
(3.41237 2.32475 2.29984)
(3.45934 2.34821 2.30722)
(3.46371 2.34219 2.28621)
(3.4363 2.31598 2.24266)
(3.38056 2.27498 2.18314)
(3.2896 2.21822 2.11456)
(3.15811 2.14539 2.04618)
(3.01184 2.07115 1.99043)
(2.88152 2.00902 1.94534)
(2.78482 1.96313 1.90614)
(2.71848 1.92812 1.87004)
(2.66616 1.89564 1.83373)
(2.627 1.86823 1.80472)
(2.60012 1.84616 1.78303)
(2.57956 1.82602 1.76353)
(2.56233 1.80525 1.744)
(2.54568 1.78219 1.72424)
(2.52396 1.75557 1.70138)
(2.49106 1.7236 1.66974)
(2.44084 1.68328 1.62463)
(2.36386 1.62828 1.5584)
(2.25857 1.55803 1.47241)
(2.12298 1.4718 1.36916)
(1.96224 1.37435 1.25627)
(1.79344 1.27634 1.14887)
(1.62347 1.18142 1.04967)
(1.45855 1.0899 0.958645)
(1.31773 1.01129 0.890162)
(1.19841 0.940202 0.834539)
(1.09561 0.863615 0.771091)
(1.03459 0.799134 0.713061)
(0.970738 0.725036 0.648735)
(0.862282 0.626689 0.573338)
(0.746468 0.529327 0.495648)
(0.632918 0.437854 0.415616)
(0.545578 0.359954 0.347989)
(0.492526 0.296854 0.29751)
(0.426635 0.232571 0.241939)
(0.28704 0.152381 0.156649)
(0.127488 0.067919 0.0690125)
(0.0394221 0.0210699 0.0213934)
(0.0116132 0.00903337 0.00871339)
(0.276736 0.223786 0.191233)
(0.407568 0.25348 0.260261)
(0.668348 0.46379 0.453774)
(0.83458 0.60053 0.573541)
(0.974248 0.723264 0.694266)
(1.06216 0.808476 0.773078)
(1.12545 0.872123 0.829847)
(1.22134 0.942178 0.886728)
(1.36402 1.03117 0.960921)
(1.53913 1.13469 1.06858)
(1.73062 1.24487 1.2108)
(1.91359 1.34511 1.35413)
(2.06638 1.43265 1.47914)
(2.18555 1.51588 1.5923)
(2.25337 1.57637 1.67513)
(2.27582 1.60236 1.70041)
(2.29837 1.61569 1.68538)
(2.36088 1.6481 1.68026)
(2.47114 1.71241 1.71709)
(2.59657 1.78911 1.77922)
(2.71392 1.86124 1.84352)
(2.82753 1.92993 1.90363)
(2.95129 2.00364 1.96148)
(3.08867 2.08637 2.01853)
(3.19764 2.15735 2.06133)
(3.2059 2.17846 2.06855)
(3.09387 2.13782 2.03318)
(2.91647 2.05957 1.96907)
(2.74107 1.97377 1.89331)
(2.59842 1.8962 1.81823)
(2.49585 1.83354 1.7529)
(2.42838 1.78567 1.70327)
(2.39227 1.75157 1.67087)
(2.38131 1.72786 1.6536)
(2.38115 1.70821 1.64521)
(2.3729 1.68467 1.63645)
(2.34396 1.65083 1.61779)
(2.28893 1.6027 1.58122)
(2.20741 1.54049 1.52332)
(2.09863 1.4642 1.44296)
(1.96639 1.37568 1.34407)
(1.81549 1.28049 1.23075)
(1.64249 1.1763 1.10447)
(1.44524 1.06114 0.96877)
(1.22969 0.938117 0.830679)
(1.01066 0.814658 0.703999)
(0.833329 0.713503 0.61398)
(0.738905 0.649094 0.565908)
(0.683457 0.588199 0.52077)
(0.636235 0.518037 0.46352)
(0.600859 0.453662 0.410728)
(0.553578 0.394154 0.368321)
(0.49708 0.338604 0.325019)
(0.460329 0.293773 0.292272)
(0.44486 0.25837 0.270275)
(0.404657 0.215617 0.233965)
(0.285018 0.151171 0.157611)
(0.132508 0.0710038 0.0717664)
(0.0426222 0.0229229 0.0230244)
(0.0122731 0.00932875 0.00886768)
(0.239565 0.182657 0.173556)
(0.384856 0.239373 0.253427)
(0.699697 0.494924 0.476504)
(1.00783 0.720113 0.679361)
(1.08693 0.801722 0.746268)
(1.13909 0.867034 0.797155)
(1.17751 0.924568 0.840782)
(1.26056 0.999751 0.903203)
(1.41407 1.10516 1.00106)
(1.67787 1.26865 1.17836)
(2.04013 1.47911 1.44154)
(2.40257 1.67879 1.70061)
(2.69857 1.84486 1.90775)
(2.93185 1.99206 2.07606)
(3.07558 2.10263 2.20405)
(3.10013 2.14543 2.25295)
(3.08688 2.15686 2.23772)
(3.09644 2.16257 2.20006)
(3.14031 2.17753 2.18578)
(3.21449 2.2118 2.21002)
(3.30563 2.2595 2.25952)
(3.41689 2.3216 2.32561)
(3.55359 2.39928 2.40222)
(3.71124 2.48727 2.47884)
(3.86869 2.57361 2.5405)
(3.95907 2.63149 2.56633)
(3.89567 2.62874 2.53925)
(3.68638 2.55978 2.45444)
(3.45137 2.46512 2.34924)
(3.26534 2.38136 2.2626)
(3.1484 2.32362 2.2056)
(3.10194 2.29349 2.18162)
(3.10918 2.28319 2.1844)
(3.15279 2.28532 2.20371)
(3.2083 2.2903 2.22619)
(3.24626 2.28588 2.23944)
(3.24867 2.26519 2.23583)
(3.20927 2.22459 2.20705)
(3.12308 2.16044 2.14468)
(2.99155 2.07267 2.04709)
(2.81826 1.95768 1.91797)
(2.60617 1.82082 1.75836)
(2.34936 1.66095 1.56734)
(2.03396 1.47167 1.34789)
(1.66793 1.25826 1.11019)
(1.301 1.04528 0.88429)
(1.00083 0.86197 0.70779)
(0.816021 0.730362 0.600937)
(0.726462 0.635522 0.540936)
(0.678829 0.553679 0.491995)
(0.644695 0.48519 0.449062)
(0.594222 0.425756 0.40882)
(0.533311 0.372003 0.363837)
(0.491837 0.327916 0.324938)
(0.473014 0.292193 0.29377)
(0.421466 0.238493 0.244612)
(0.289444 0.158399 0.1602)
(0.135736 0.0739906 0.0736561)
(0.0445768 0.0242392 0.0241248)
(0.0126828 0.00952253 0.00897174)
(0.234289 0.1492 0.195897)
(0.334021 0.239499 0.262262)
(0.550832 0.429496 0.404628)
(0.809086 0.625834 0.561826)
(0.978451 0.781194 0.686561)
(1.09997 0.888188 0.781678)
(1.1856 0.960115 0.854012)
(1.3542 1.0618 0.965006)
(1.57934 1.20454 1.1161)
(1.91752 1.43471 1.35936)
(2.41543 1.7422 1.69396)
(2.90707 2.00995 1.99521)
(3.28051 2.20136 2.20851)
(3.59378 2.37605 2.38491)
(3.7886 2.51102 2.50961)
(3.81657 2.57603 2.58488)
(3.83299 2.64049 2.65228)
(3.90804 2.71004 2.69696)
(3.98542 2.75093 2.72374)
(4.04712 2.77207 2.7518)
(4.11683 2.79764 2.7957)
(4.21118 2.83867 2.85715)
(4.32094 2.88807 2.92641)
(4.41033 2.92473 2.98436)
(4.44106 2.93172 3.00848)
(4.38151 2.90377 2.96935)
(4.22019 2.84555 2.85032)
(3.97956 2.75893 2.6718)
(3.70446 2.6399 2.48494)
(3.50732 2.54624 2.36387)
(3.4268 2.50758 2.32341)
(3.43768 2.509 2.33768)
(3.50844 2.53168 2.38512)
(3.60595 2.56272 2.44681)
(3.69642 2.58978 2.50348)
(3.75754 2.60282 2.54102)
(3.77791 2.59633 2.55001)
(3.74582 2.566 2.52454)
(3.65356 2.50229 2.45834)
(3.50012 2.40343 2.34838)
(3.28706 2.26463 2.1947)
(2.99564 2.081 1.98948)
(2.61221 1.84476 1.72369)
(2.16234 1.57091 1.41778)
(1.68853 1.28664 1.10626)
(1.25124 1.01615 0.827959)
(0.938045 0.81013 0.634033)
(0.803549 0.704928 0.553434)
(0.800979 0.663612 0.554288)
(0.805025 0.614974 0.557027)
(0.776898 0.555105 0.535207)
(0.735914 0.517729 0.510987)
(0.667991 0.468703 0.466674)
(0.601972 0.413623 0.412071)
(0.553513 0.360251 0.355394)
(0.479981 0.291614 0.282669)
(0.309733 0.179157 0.172563)
(0.129465 0.0733064 0.0705909)
(0.0383787 0.0214525 0.0208483)
(0.0113711 0.00918765 0.00846945)
(0.251619 0.163624 0.20905)
(0.335911 0.256391 0.251716)
(0.500981 0.403089 0.345345)
(0.713352 0.566202 0.481986)
(0.8468 0.697816 0.604692)
(0.998114 0.828496 0.741642)
(1.13587 0.937168 0.867082)
(1.32411 1.05525 1.02712)
(1.56391 1.20723 1.21807)
(1.86915 1.41194 1.4206)
(2.20204 1.61408 1.59595)
(2.47858 1.75182 1.72624)
(2.77879 1.9036 1.87238)
(3.15805 2.11068 2.06962)
(3.59303 2.3612 2.30542)
(3.87287 2.55654 2.49422)
(3.94392 2.66889 2.63383)
(4.01307 2.76762 2.74788)
(4.10195 2.83433 2.80994)
(4.17026 2.86753 2.85246)
(4.24322 2.89575 2.9017)
(4.32412 2.92435 2.95428)
(4.40407 2.95026 3.00555)
(4.45593 2.95877 3.04017)
(4.45425 2.93924 3.03602)
(4.39246 2.89932 2.97291)
(4.24748 2.84285 2.84267)
(4.01405 2.7629 2.66931)
(3.7277 2.64305 2.4843)
(3.48968 2.52712 2.34465)
(3.37864 2.47033 2.29151)
(3.39316 2.47512 2.31263)
(3.47572 2.50656 2.36816)
(3.58404 2.54467 2.43602)
(3.68948 2.58124 2.50011)
(3.7601 2.60341 2.53976)
(3.77386 2.59746 2.53837)
(3.7184 2.55585 2.49145)
(3.59224 2.47487 2.40016)
(3.42166 2.36763 2.27774)
(3.18845 2.22119 2.11181)
(2.86424 2.01827 1.88525)
(2.44841 1.75922 1.59641)
(1.95476 1.4503 1.25957)
(1.47556 1.15176 0.948096)
(1.0939 0.911807 0.71478)
(0.859608 0.759388 0.576765)
(0.799556 0.709463 0.54547)
(0.879253 0.736606 0.61152)
(0.925308 0.720845 0.654833)
(0.905053 0.667481 0.6439)
(0.840695 0.607042 0.598337)
(0.745637 0.531906 0.530028)
(0.655213 0.455567 0.454616)
(0.588489 0.387681 0.381247)
(0.499866 0.308601 0.295816)
(0.315825 0.185033 0.177241)
(0.12925 0.0736975 0.0709198)
(0.0379428 0.0212755 0.0207027)
(0.0113048 0.0091672 0.00845537)
(0.248755 0.193919 0.19138)
(0.448103 0.28636 0.30941)
(0.819215 0.616691 0.559042)
(1.16337 0.850465 0.791089)
(1.3974 1.02199 0.950942)
(1.54386 1.13762 1.04605)
(1.52487 1.16428 1.0562)
(1.45285 1.14611 1.05623)
(1.44927 1.12539 1.11653)
(1.53663 1.14062 1.22655)
(1.68374 1.19284 1.31263)
(1.86802 1.28387 1.36922)
(2.07602 1.4123 1.43469)
(2.35295 1.5892 1.55256)
(2.75263 1.83217 1.745)
(3.20035 2.10504 1.96944)
(3.45479 2.30286 2.143)
(3.49183 2.39636 2.26549)
(3.51735 2.45089 2.37347)
(3.59646 2.50546 2.46753)
(3.68633 2.55126 2.53779)
(3.76325 2.58065 2.58288)
(3.82382 2.59526 2.60583)
(3.87867 2.60514 2.61278)
(3.94533 2.6236 2.60928)
(4.00987 2.652 2.59399)
(3.96607 2.64619 2.53852)
(3.73036 2.55442 2.41391)
(3.43402 2.42393 2.27196)
(3.20849 2.31863 2.17113)
(3.0632 2.24644 2.11393)
(3.0021 2.2115 2.09834)
(3.00738 2.20383 2.1096)
(3.0531 2.21049 2.13102)
(3.10703 2.21764 2.14612)
(3.13389 2.21106 2.14019)
(3.11674 2.18437 2.10691)
(3.05402 2.13544 2.04493)
(2.9528 2.06548 1.95932)
(2.81869 1.97778 1.85435)
(2.65291 1.87099 1.72837)
(2.45221 1.74236 1.57768)
(2.19964 1.5833 1.39754)
(1.85231 1.36765 1.17041)
(1.4423 1.11239 0.918249)
(1.08506 0.887288 0.706954)
(0.842468 0.728214 0.571547)
(0.736215 0.642994 0.518931)
(0.726404 0.604007 0.52172)
(0.715765 0.566917 0.525879)
(0.683797 0.524102 0.509275)
(0.636023 0.472722 0.467557)
(0.587654 0.42057 0.418789)
(0.553488 0.372741 0.372432)
(0.535926 0.332348 0.332046)
(0.455039 0.261324 0.264352)
(0.284852 0.156904 0.160545)
(0.12753 0.0695554 0.0704625)
(0.0413377 0.0224301 0.0226873)
(0.0121833 0.00935278 0.00881531)
(0.244985 0.210349 0.192083)
(0.260959 0.178181 0.224448)
(0.537566 0.444361 0.468051)
(0.704291 0.570682 0.585581)
(0.825574 0.647967 0.648926)
(0.987165 0.740353 0.715642)
(1.21163 0.885839 0.834362)
(1.37753 1.0221 0.962803)
(1.42286 1.09033 1.04402)
(1.47655 1.12644 1.10442)
(1.61257 1.17192 1.16494)
(1.76094 1.22449 1.21548)
(1.91327 1.29752 1.27223)
(2.13522 1.43453 1.37215)
(2.54456 1.6876 1.56912)
(3.13103 2.0343 1.85687)
(3.59891 2.32703 2.11529)
(3.67776 2.44095 2.2645)
(3.56823 2.44261 2.3319)
(3.54595 2.44575 2.37733)
(3.60379 2.47348 2.42133)
(3.68974 2.50847 2.45964)
(3.77444 2.53837 2.48585)
(3.81421 2.54433 2.48025)
(3.76284 2.50729 2.42468)
(3.59228 2.41485 2.3139)
(3.35019 2.29029 2.17709)
(3.12036 2.17471 2.05624)
(2.94118 2.08301 1.96347)
(2.81771 2.0147 1.89682)
(2.74943 1.9716 1.85824)
(2.72611 1.94973 1.8431)
(2.73956 1.94477 1.84457)
(2.77586 1.9499 1.85442)
(2.80173 1.94924 1.85667)
(2.78178 1.92309 1.83009)
(2.69885 1.86227 1.76353)
(2.54897 1.76623 1.65991)
(2.36132 1.65122 1.53533)
(2.17122 1.53664 1.41026)
(1.99388 1.42898 1.29136)
(1.81989 1.32312 1.16929)
(1.62601 1.20498 1.03553)
(1.39769 1.06281 0.88918)
(1.14824 0.904662 0.73942)
(0.923331 0.758192 0.608138)
(0.752761 0.640649 0.513758)
(0.647979 0.555099 0.460878)
(0.595464 0.492659 0.435328)
(0.561477 0.440982 0.415204)
(0.535813 0.400338 0.391474)
(0.515965 0.365823 0.363657)
(0.503273 0.334218 0.336854)
(0.505404 0.305379 0.317524)
(0.503212 0.27393 0.299289)
(0.40341 0.209615 0.233884)
(0.231765 0.121401 0.131756)
(0.100567 0.0531945 0.0560113)
(0.0321275 0.0170532 0.0177693)
(0.0108332 0.00884329 0.00837667)
(0.249396 0.207776 0.176151)
(0.266276 0.204367 0.209783)
(0.590022 0.453047 0.467919)
(0.891888 0.653361 0.643108)
(1.17698 0.836564 0.815635)
(1.36154 0.974755 0.958946)
(1.4277 1.05777 1.07077)
(1.49776 1.13306 1.18461)
(1.67966 1.24834 1.31648)
(1.9741 1.4071 1.43915)
(2.2972 1.57014 1.55296)
(2.63373 1.75683 1.69497)
(3.06553 2.02209 1.91244)
(3.56929 2.32793 2.16501)
(4.03508 2.58891 2.37575)
(4.29449 2.72508 2.51589)
(4.11444 2.63809 2.5151)
(3.76399 2.49943 2.44637)
(3.60647 2.45203 2.4119)
(3.56466 2.43769 2.39614)
(3.55647 2.426 2.37927)
(3.54577 2.40446 2.3502)
(3.52008 2.37137 2.30847)
(3.46963 2.32694 2.25501)
(3.36342 2.259 2.18189)
(3.19025 2.16332 2.08691)
(2.99804 2.06225 1.98731)
(2.84037 1.97853 1.90035)
(2.73617 1.9188 1.83541)
(2.67831 1.87883 1.7917)
(2.63815 1.84393 1.75858)
(2.59983 1.80727 1.72918)
(2.55973 1.76934 1.69903)
(2.50139 1.72178 1.6576)
(2.41686 1.66002 1.59989)
(2.31394 1.5891 1.5276)
(2.18902 1.50723 1.44017)
(2.042 1.41492 1.34057)
(1.88452 1.31863 1.23584)
(1.72396 1.22273 1.13129)
(1.57325 1.13464 1.03217)
(1.43319 1.05325 0.936485)
(1.28883 0.967366 0.840617)
(1.13049 0.868217 0.740478)
(0.970175 0.762891 0.643296)
(0.826222 0.664619 0.561491)
(0.711122 0.579041 0.504642)
(0.643677 0.512086 0.480362)
(0.627408 0.470493 0.475831)
(0.614934 0.440802 0.460553)
(0.589407 0.410774 0.43181)
(0.557708 0.378684 0.395362)
(0.528423 0.344812 0.356534)
(0.517622 0.312549 0.325783)
(0.507549 0.27569 0.299669)
(0.398334 0.205623 0.227445)
(0.220575 0.115575 0.124352)
(0.0923363 0.0489239 0.051522)
(0.0285026 0.0151501 0.0158647)
(0.0102878 0.00861924 0.00827126)
(0.216468 0.152207 0.160172)
(0.28228 0.22042 0.20684)
(0.483061 0.375138 0.340507)
(0.7121 0.546974 0.508519)
(0.920176 0.710533 0.683913)
(1.10192 0.852139 0.842194)
(1.3239 1.00901 1.00806)
(1.61754 1.20321 1.18427)
(1.97366 1.43128 1.37592)
(2.41195 1.70106 1.61013)
(2.91703 1.98781 1.87809)
(3.36869 2.21566 2.09553)
(3.55697 2.28307 2.16495)
(3.52256 2.23268 2.13316)
(3.36718 2.13667 2.07568)
(3.17608 2.0509 2.04839)
(2.92283 1.94747 1.98783)
(2.79037 1.90019 1.93061)
(2.82283 1.92741 1.93931)
(2.89493 1.96939 1.9757)
(2.94085 1.99139 1.99709)
(2.95702 1.99273 1.99792)
(2.92922 1.96878 1.97176)
(2.84699 1.91929 1.91732)
(2.69692 1.83574 1.8268)
(2.50703 1.72899 1.71784)
(2.36246 1.64432 1.63871)
(2.28488 1.59229 1.59674)
(2.27887 1.58148 1.59637)
(2.32866 1.60605 1.62929)
(2.40542 1.65009 1.67729)
(2.48459 1.6978 1.72425)
(2.55171 1.73924 1.76164)
(2.58759 1.7606 1.7762)
(2.57021 1.74591 1.75254)
(2.49501 1.69491 1.691)
(2.36579 1.61187 1.59769)
(2.19812 1.50566 1.48038)
(2.00292 1.38397 1.35005)
(1.7965 1.25581 1.21746)
(1.58331 1.12075 1.08296)
(1.37809 0.985357 0.960094)
(1.20076 0.866419 0.863324)
(1.05627 0.768249 0.789302)
(0.939755 0.686868 0.732033)
(0.855022 0.623941 0.698999)
(0.817082 0.582857 0.697847)
(0.860805 0.580328 0.731494)
(0.913527 0.589603 0.743165)
(0.883471 0.56843 0.694586)
(0.790222 0.512456 0.604652)
(0.688427 0.446365 0.50817)
(0.607151 0.385258 0.424394)
(0.554894 0.330841 0.359702)
(0.518085 0.281221 0.310663)
(0.396782 0.206752 0.226555)
(0.204007 0.108629 0.11389)
(0.0714969 0.0384784 0.0398203)
(0.0189527 0.010247 0.0106354)
(0.00915404 0.00831902 0.00804561)
(0.111031 0.065813 0.0674942)
(0.107202 0.0830474 0.0760964)
(0.173742 0.135571 0.122544)
(0.261709 0.20344 0.186542)
(0.372024 0.284536 0.264642)
(0.503793 0.375775 0.353136)
(0.653541 0.475775 0.446701)
(0.833766 0.594269 0.552098)
(1.05627 0.73811 0.680887)
(1.33623 0.915116 0.851277)
(1.63912 1.10156 1.04647)
(1.86822 1.23676 1.20078)
(1.9653 1.28557 1.26912)
(1.88004 1.22283 1.23541)
(1.73615 1.13654 1.18318)
(1.56704 1.04415 1.10755)
(1.35828 0.922851 0.974632)
(1.23259 0.844176 0.877191)
(1.25263 0.859077 0.881337)