/*--------------------------------*- C++ -*----------------------------------*\
| =========                 |                                                 |
| \\      /  F ield         | OpenFOAM: The Open Source CFD Toolbox           |
|  \\    /   O peration     | Version:  2.1.1                                 |
|   \\  /    A nd           | Web:      www.OpenFOAM.org                      |
|    \\/     M anipulation  |                                                 |
\*---------------------------------------------------------------------------*/
FoamFile
{
    version     2.0;
    format      ascii;
    class       volVectorField;
    location    "0.00125";
    object      fluctuation1;
}
// * * * * * * * * * * * * * * * * * * * * * * * * * * * * * * * * * * * * * //

dimensions      [0 1 -1 0 0 0 0];

internalField   nonuniform List<vector> 
36520
(
(-2.72765e-05 1.17126e-05 4.75506e-05)
(-3.71827e-05 1.4821e-05 6.89299e-05)
(3.97336e-06 2.97725e-05 0.000108273)
(5.98984e-06 4.53573e-05 0.000143669)
(9.06438e-06 6.7102e-05 0.000182642)
(1.10238e-05 9.17332e-05 0.0002176)
(1.26993e-05 0.000117456 0.000250482)
(1.46487e-05 0.00014565 0.000287016)
(1.7017e-05 0.000177057 0.000333298)
(1.97823e-05 0.000211859 0.000390077)
(2.17675e-05 0.000248758 0.00045528)
(2.28985e-05 0.000282034 0.000515314)
(1.83823e-05 0.000311512 0.000561894)
(7.16634e-06 0.000315632 0.000597311)
(-6.40473e-07 0.000301354 0.000636591)
(1.58979e-06 0.000285913 0.000690215)
(1.1495e-05 0.000285108 0.000765249)
(2.48199e-05 0.000304805 0.000859189)
(3.82089e-05 0.000344357 0.000964926)
(4.99014e-05 0.000398692 0.00107262)
(5.85449e-05 0.000463507 0.00116407)
(6.43293e-05 0.000535586 0.00123484)
(6.85159e-05 0.000610225 0.00126842)
(6.96324e-05 0.000681919 0.00125387)
(6.61559e-05 0.000744026 0.00118155)
(5.90492e-05 0.000791799 0.0010562)
(5.17258e-05 0.000820888 0.000884744)
(4.90591e-05 0.000832154 0.000684193)
(5.70282e-05 0.000833819 0.000474957)
(8.00513e-05 0.00084451 0.000280682)
(0.00011727 0.000888137 0.000121736)
(0.00016117 0.00098324 -1.66587e-06)
(0.00019961 0.00113212 -0.000101719)
(0.000220372 0.00131956 -0.000192377)
(0.000215716 0.00151793 -0.000277387)
(0.000184416 0.00169581 -0.00035055)
(0.000129702 0.00182374 -0.000403199)
(5.94002e-05 0.00187272 -0.000430837)
(-1.71412e-05 0.00182109 -0.000434926)
(-9.6315e-05 0.00165565 -0.000419731)
(-0.000183639 0.00136394 -0.000387363)
(-0.000277769 0.000930215 -0.00034003)
(-0.000337528 0.000380409 -0.000308515)
(-0.00028082 -0.000183813 -0.000782471)
(-0.000314887 -0.00263664 -0.0140037)
(-0.000604563 -0.0104322 -0.0545866)
(-0.000497576 -0.0168557 -0.0991141)
(-0.000173335 -0.0172007 -0.117079)
(-3.06856e-05 -0.0147286 -0.112947)
(3.61843e-05 -0.0119176 -0.0996318)
(4.31537e-05 -0.00904344 -0.0834025)
(5.34673e-05 -0.0063455 -0.0618406)
(0.000153528 -0.00220479 -0.0238325)
(0.000116173 0.000293099 -0.000121496)
(-4.35233e-05 0.000173473 0.000808796)
(-3.35495e-05 2.67368e-05 0.000114492)
(-4.40485e-06 1.90486e-06 8.95307e-06)
(-2.26974e-07 5.35517e-08 2.74621e-07)
(-5.01712e-09 7.62444e-10 4.11391e-09)
(-6.26089e-11 7.40818e-12 4.08696e-11)
(-1.72066e-05 6.03177e-05 9.91679e-05)
(-1.29017e-05 9.79876e-05 0.000122929)
(1.72825e-05 0.00013623 0.000153146)
(2.11699e-05 0.000169487 0.000167738)
(2.24369e-05 0.000203941 0.000178457)
(2.11512e-05 0.00023256 0.000179837)
(2.23934e-05 0.00026153 0.0001783)
(2.70567e-05 0.000290059 0.00017363)
(3.32874e-05 0.000323002 0.000169046)
(3.78553e-05 0.000352064 0.000159791)
(3.72064e-05 0.000372359 0.000148724)
(3.25591e-05 0.000382605 0.000137008)
(2.77814e-05 0.000406138 0.000135428)
(2.45254e-05 0.000418335 0.000129182)
(2.64816e-05 0.000425569 0.000118797)
(3.49503e-05 0.000447927 0.000111885)
(4.71282e-05 0.00048672 0.00010706)
(5.89535e-05 0.000544162 0.000104594)
(6.79434e-05 0.000617579 0.000103995)
(7.14549e-05 0.000701329 0.000104762)
(6.94183e-05 0.000789034 0.000102121)
(6.18077e-05 0.000875181 9.57477e-05)
(4.70283e-05 0.000953165 8.38471e-05)
(2.53857e-05 0.00101748 6.43352e-05)
(-8.30812e-07 0.00105974 3.50656e-05)
(-2.79466e-05 0.00107146 -2.97867e-06)
(-5.14143e-05 0.00104831 -4.96856e-05)
(-6.56104e-05 0.000995605 -9.96771e-05)
(-6.62187e-05 0.000931062 -0.000133123)
(-5.16585e-05 0.000875005 -0.000136833)
(-2.81003e-05 0.00083194 -0.000143006)
(-5.82984e-06 0.000800281 -0.000155084)
(8.66885e-06 0.000771984 -0.000173463)
(1.47059e-05 0.000742523 -0.00019781)
(1.52483e-05 0.000714272 -0.000227579)
(1.27192e-05 0.000690029 -0.00026097)
(7.16492e-06 0.000667582 -0.000293486)
(-2.52385e-06 0.000634129 -0.000318669)
(-1.68408e-05 0.000572869 -0.000330845)
(-3.55859e-05 0.000467436 -0.000325675)
(-6.11391e-05 0.000309806 -0.000299306)
(-0.000105963 7.26764e-05 -0.000406537)
(-0.000353881 -0.000946694 -0.00388554)
(-0.00539421 -0.00814759 -0.0194768)
(-0.0112941 -0.024641 -0.0593298)
(-0.00821282 -0.0303645 -0.086208)
(-0.00529088 -0.0315012 -0.0989119)
(-0.0028742 -0.0305466 -0.105558)
(-0.00123433 -0.0286469 -0.110374)
(-0.000400833 -0.0268943 -0.114542)
(0.000458711 -0.0254444 -0.116215)
(0.00159018 -0.0229796 -0.110161)
(0.00255554 -0.0181168 -0.0905059)
(0.00601203 -0.00948091 -0.0549989)
(0.000167581 0.0013927 0.00552277)
(-0.000418051 0.000186807 0.000497591)
(-2.42591e-05 9.64134e-06 3.15006e-05)
(-1.57049e-06 4.10921e-07 1.40261e-06)
(-6.016e-08 9.41125e-09 3.18564e-08)
(-1.5995e-09 1.94943e-10 6.1946e-10)
(-1.30013e-05 0.000110433 7.44686e-05)
(-6.0661e-06 0.00012838 5.66295e-05)
(1.19746e-05 0.000155152 5.28e-05)
(1.04594e-05 0.000169122 4.15852e-05)
(6.3437e-06 0.000183419 3.0943e-05)
(2.4158e-06 0.000192885 2.01248e-05)
(1.31032e-06 0.000209571 1.12787e-05)
(2.91127e-06 0.000223942 -2.54068e-07)
(4.88656e-06 0.000239756 -1.84641e-05)
(6.07714e-06 0.000247931 -3.81395e-05)
(5.86064e-06 0.000251995 -5.46184e-05)
(5.38945e-06 0.000259822 -7.16854e-05)
(2.87202e-06 0.000295443 -8.42259e-05)
(-1.77689e-06 0.000257046 -8.45938e-05)
(-2.33868e-06 0.000184233 -7.94156e-05)
(-5.95143e-07 0.000178975 -8.85986e-05)
(1.46418e-06 0.000197052 -9.37864e-05)
(3.76427e-06 0.000216416 -9.95442e-05)
(5.76875e-06 0.000231756 -0.000115005)
(6.38452e-06 0.000243588 -0.000148092)
(5.56722e-06 0.000252238 -0.000188209)
(3.85486e-06 0.000258565 -0.000229027)
(7.61608e-07 0.000264204 -0.000253903)
(-4.14929e-06 0.000268389 -0.000255394)
(-1.04209e-05 0.000260372 -0.00026739)
(-1.73414e-05 6.86257e-05 -0.000895453)
(-2.2106e-05 -0.000667777 -0.00338424)
(-1.94812e-05 -0.00141398 -0.0059613)
(-7.85285e-06 -0.00217162 -0.00870498)
(-5.77644e-07 -0.00303841 -0.0119025)
(-3.03792e-07 -0.00392728 -0.015234)
(-3.60762e-07 -0.0047734 -0.0184796)
(-4.0934e-07 -0.00548602 -0.0212936)
(-4.48466e-07 -0.00602959 -0.0234997)
(-4.8094e-07 -0.00644015 -0.0251655)
(-4.96559e-07 -0.00656194 -0.0257426)
(-5.13556e-07 -0.00668311 -0.0262547)
(-5.33264e-07 -0.00683311 -0.0268278)
(-5.57325e-07 -0.00705225 -0.0275948)
(-5.83394e-07 -0.007296 -0.0284432)
(-5.53033e-05 -0.0075758 -0.0296014)
(-0.0014077 -0.0079447 -0.031963)
(-0.00884491 -0.00925404 -0.0388862)
(-0.0472335 -0.0203546 -0.0504433)
(-0.103365 -0.0324379 -0.0575138)
(-0.122112 -0.0477754 -0.0747656)
(-0.107424 -0.0719977 -0.102602)
(-0.0723324 -0.0944265 -0.130268)
(-0.0383032 -0.105057 -0.152568)
(-0.0135471 -0.103673 -0.172168)
(0.00423614 -0.0941744 -0.178822)
(0.0143625 -0.0796943 -0.162832)
(0.0217832 -0.06973 -0.128677)
(0.0387146 -0.0587611 -0.0864638)
(0.0823872 0.00231377 0.00993484)
(-0.00361543 0.00193261 0.00283325)
(-0.000215045 0.00010487 0.000205842)
(-7.95731e-06 2.27877e-06 5.39656e-06)
(-4.22115e-07 8.08918e-08 1.91537e-07)
(-2.34863e-08 3.26534e-09 7.2487e-09)
(-1.89693e-05 9.82504e-05 9.19295e-06)
(-1.31987e-05 0.000105356 -1.05412e-05)
(1.61923e-07 0.000124503 -2.84884e-05)
(-1.02926e-07 0.000142243 -4.9319e-05)
(-1.06713e-06 0.000181026 -5.6504e-05)
(-1.34837e-06 0.000222359 -6.04839e-05)
(-1.84095e-06 0.000273882 -6.78508e-05)
(-4.88473e-06 0.000327111 -0.000101904)
(-9.87881e-06 0.000432902 -0.000163106)
(-1.53209e-05 0.000629237 -0.000238112)
(-2.40608e-05 0.00097606 -0.000331857)
(-1.90164e-05 0.00105771 -0.00164926)
(-2.49627e-06 0.000616518 -0.00469994)
(-7.07508e-06 -0.000921712 -0.00860058)
(-1.39166e-05 -0.00262147 -0.0104529)
(-4.28622e-06 -0.00258392 -0.00919625)
(1.50911e-06 -0.00272376 -0.00971153)
(-6.10774e-08 -0.00340041 -0.0121021)
(-5.27328e-06 -0.00429447 -0.0153051)
(-8.77085e-06 -0.00532197 -0.0189004)
(-8.72415e-06 -0.00642286 -0.0227545)
(-5.53105e-06 -0.00743205 -0.0263649)
(-7.70898e-07 -0.00828182 -0.0294068)
(-4.03386e-07 -0.00901251 -0.031968)
(-5.27433e-05 -0.00969575 -0.0343975)
(-0.000248111 -0.0104581 -0.0371912)
(-0.000404227 -0.0112516 -0.0402333)
(-0.000448547 -0.012126 -0.043522)
(-0.00052533 -0.0130978 -0.047052)
(-0.000586108 -0.0141708 -0.0508325)
(-0.0005814 -0.0152972 -0.0548112)
(-0.000498551 -0.016405 -0.0588643)
(-0.000346375 -0.017392 -0.0627011)
(-0.000175681 -0.0181317 -0.0658618)
(4.73586e-05 -0.0184789 -0.0678065)
(0.000223864 -0.0184639 -0.068394)
(0.000253067 -0.0183667 -0.0682393)
(0.000264507 -0.0187118 -0.0692199)
(0.00029574 -0.0195885 -0.0714915)
(0.00036921 -0.0209817 -0.0742151)
(0.000335279 -0.0233429 -0.0772586)
(-0.000668818 -0.0268461 -0.0806914)
(-0.00652377 -0.0336102 -0.0842457)
(-0.0302672 -0.0481831 -0.0869613)
(-0.0814037 -0.0733465 -0.0755673)
(-0.128503 -0.0984733 -0.0516883)
(-0.172432 -0.110011 -0.0546189)
(-0.196953 -0.13223 -0.0829207)
(-0.176907 -0.199152 -0.109851)
(-0.0822854 -0.261551 -0.131432)
(-0.0099416 -0.252977 -0.161744)
(0.0332404 -0.217499 -0.14934)
(0.047425 -0.173671 -0.12403)
(0.0452882 -0.117345 -0.109388)
(0.0159345 -0.0361599 -0.103159)
(-0.000605192 -0.0162482 -0.0538824)
(-0.00138667 0.00108291 0.00134782)
(-7.6714e-05 2.22714e-05 3.76827e-05)
(-2.64288e-06 6.08683e-07 1.1158e-06)
(-2.43064e-07 3.86981e-08 6.74187e-08)
(-2.05506e-05 0.000103889 -4.48147e-05)
(-1.70046e-05 0.000138635 -4.66649e-05)
(-1.42179e-05 0.000242007 -0.000100373)
(-1.02087e-05 0.000406307 -0.000344166)
(-1.97022e-06 0.000720091 -0.000765934)
(-7.94123e-08 0.001204 -0.00154927)
(-2.54762e-05 0.00196621 -0.00273583)
(-8.30042e-05 0.00331591 -0.00448986)
(-0.00010995 0.00727132 -0.00222591)
(-8.09006e-05 0.0141327 -0.000161123)
(-0.00114316 -0.0186839 -0.10406)
(-0.00152826 -0.0642129 -0.221863)
(-0.00190522 -0.0920625 -0.298429)
(-0.00498676 -0.0757682 -0.271801)
(-0.00589364 -0.0473377 -0.187086)
(-0.00295091 -0.0311735 -0.111116)
(-0.00167969 -0.0201518 -0.0700326)
(-0.00129992 -0.0171861 -0.0595662)
(-0.00123851 -0.018107 -0.0620362)
(-0.00136305 -0.0206446 -0.0702354)
(-0.00164257 -0.0239551 -0.0815713)
(-0.00189107 -0.0266618 -0.0913854)
(-0.00185572 -0.0285004 -0.0980895)
(-0.00151833 -0.0299296 -0.102864)
(-0.00119021 -0.0314744 -0.107666)
(-0.00112611 -0.0335217 -0.114074)
(-0.0014507 -0.0367998 -0.124552)
(-0.00223842 -0.040894 -0.137793)
(-0.00362135 -0.0454322 -0.152507)
(-0.00563138 -0.0503857 -0.168663)
(-0.0076749 -0.0557046 -0.186302)
(-0.00820884 -0.0613224 -0.205171)
(-0.0060072 -0.0667528 -0.223409)
(-0.00143465 -0.0710991 -0.238052)
(0.00317007 -0.0738821 -0.247093)
(0.0051847 -0.0709149 -0.239275)
(0.00469065 -0.0624639 -0.212641)
(0.00373101 -0.0522797 -0.182366)
(0.00313252 -0.0443224 -0.159239)
(0.0024172 -0.0391608 -0.142715)
(0.00166041 -0.0389576 -0.139595)
(0.00101781 -0.040953 -0.141904)
(-0.000192428 -0.043838 -0.145056)
(-0.0045935 -0.0490098 -0.149496)
(-0.0175326 -0.0595063 -0.155945)
(-0.0530231 -0.0765321 -0.159825)
(-0.115791 -0.0988264 -0.157832)
(-0.171482 -0.137013 -0.150714)
(-0.174979 -0.202339 -0.148237)
(-0.096965 -0.297952 -0.118636)
(-0.0227243 -0.330415 -0.110532)
(0.00939413 -0.26997 -0.197468)
(0.0216191 -0.202976 -0.215488)
(0.0174988 -0.110028 -0.207108)
(0.0103871 -0.0538469 -0.154644)
(0.0224666 -0.0296019 -0.0901762)
(0.0538377 0.000411351 0.000326025)
(-0.000581344 0.000215355 0.000264747)
(-1.78091e-05 4.36658e-06 6.52674e-06)
(-1.90704e-06 3.49977e-07 5.11655e-07)
(-2.35776e-05 7.55841e-05 -0.000318692)
(-4.10567e-05 -0.000697798 -0.00362918)
(-0.000211489 -0.00200692 -0.0110544)
(-0.000552677 -0.00017924 -0.0175633)
(-0.00108079 0.0154043 -0.00289362)
(-0.0013851 0.0157215 -0.0453063)
(-0.00103524 -0.00939364 -0.13086)
(0.000486019 -0.0507061 -0.237563)
(0.000450261 -0.0930085 -0.346875)
(-0.00318899 -0.135751 -0.468371)
(-0.00670708 -0.181452 -0.602683)
(-0.00721298 -0.350533 -0.685126)
(-0.00132444 -0.506973 -0.735518)
(0.0024133 -0.394413 -0.753934)
(-0.0101931 -0.178323 -0.622951)
(-0.0195349 -0.117846 -0.411337)
(-0.0122732 -0.0863056 -0.276863)
(-0.0105237 -0.0724794 -0.225028)
(-0.0105379 -0.0743909 -0.222786)
(-0.0115488 -0.0869413 -0.248611)
(-0.0142524 -0.10174 -0.284172)
(-0.0217184 -0.111856 -0.312129)
(-0.0347389 -0.117429 -0.329265)
(-0.0438585 -0.121065 -0.340588)
(-0.0407769 -0.124481 -0.351426)
(-0.0302173 -0.127995 -0.364039)
(-0.0183687 -0.132451 -0.380609)
(-0.0130764 -0.143606 -0.414143)
(-0.0168854 -0.163863 -0.460524)
(-0.0256283 -0.1903 -0.510617)
(-0.0361044 -0.218095 -0.564442)
(-0.0442348 -0.242981 -0.622523)
(-0.0394504 -0.266864 -0.675664)
(-0.0161922 -0.294642 -0.705688)
(0.00500581 -0.309668 -0.706343)
(0.0108991 -0.300752 -0.675493)
(0.0111845 -0.29139 -0.613737)
(0.0111652 -0.269684 -0.542643)
(0.00243067 -0.247553 -0.477198)
(-0.0091294 -0.215813 -0.415129)
(-0.0047774 -0.17971 -0.353636)
(0.00574672 -0.144911 -0.314012)
(0.00739732 -0.103141 -0.286832)
(0.000267876 -0.0897524 -0.28116)
(-0.00894524 -0.0909216 -0.284687)
(-0.0288454 -0.0896028 -0.290005)
(-0.0764776 -0.09097 -0.291099)
(-0.172104 -0.0992364 -0.284767)
(-0.337827 -0.104936 -0.25054)
(-0.321492 -0.268855 -0.175601)
(-0.0813267 -0.367723 -0.157418)
(-0.0199838 -0.292337 -0.285263)
(0.0057977 -0.203533 -0.325125)
(0.0248057 -0.13492 -0.298702)
(0.0607153 -0.0830645 -0.228016)
(0.182439 -0.0332543 -0.101665)
(0.103757 -0.000302342 -0.00101058)
(-0.00289452 0.000894815 -8.91725e-05)
(-0.000119173 3.55924e-05 4.27268e-05)
(-1.18276e-05 2.4922e-06 3.01002e-06)
(-0.00508204 -0.00156721 -0.00847868)
(-0.0122227 -0.00169576 -0.0211003)
(-0.0136148 0.0211715 -0.0168949)
(0.0188281 0.0987481 -0.00294605)
(-0.000395981 -0.0655413 -0.295627)
(-0.00297844 -0.134351 -0.380327)
(-0.00972678 -0.213294 -0.472847)
(-0.0265075 -0.293516 -0.601185)
(-0.0510387 -0.431155 -0.745269)
(-0.0685296 -0.772727 -0.773108)
(-0.0459036 -1.28611 -0.378673)
(-0.0181603 -1.57416 -0.00769901)
(-0.00175144 -1.72033 0.086004)
(0.0170963 -1.73087 0.0719912)
(0.037491 -1.55873 -0.0211346)
(-0.0185639 -0.936275 -0.792345)
(-0.105213 -0.214559 -0.940318)
(-0.0774202 -0.19998 -0.840235)
(-0.0603231 -0.209763 -0.830752)
(-0.0452541 -0.236716 -0.859566)
(-0.0353322 -0.272801 -0.886851)
(-0.0350002 -0.296626 -0.904032)
(-0.0517861 -0.318136 -0.908465)
(-0.0795912 -0.353503 -0.898297)
(-0.0928268 -0.394541 -0.878943)
(-0.101087 -0.459887 -0.841861)
(-0.153987 -0.516531 -0.799573)
(-0.163098 -0.496333 -0.830897)
(-0.092112 -0.43709 -0.918822)
(-0.0585824 -0.35873 -1.03397)
(-0.0762651 -0.301004 -1.13988)
(-0.0849295 -0.363171 -1.21025)
(-0.0662396 -0.866346 -1.02432)
(-0.0190238 -1.14163 -0.82196)
(0.00660535 -0.961238 -1.06862)
(0.00225017 -0.8552 -1.13625)
(0.00211129 -0.472619 -1.27713)
(0.0293181 -0.261293 -1.23724)
(0.0377911 -0.289595 -1.12541)
(0.00784358 -0.380708 -0.988257)
(-0.0456232 -0.294884 -0.900337)
(-0.148493 -0.181727 -0.824394)
(-0.267959 -0.186042 -0.684657)
(-0.27274 -0.346849 -0.4376)
(-0.196891 -0.330476 -0.36671)
(-0.193389 -0.227887 -0.404954)
(-0.358872 -0.0797753 -0.382352)
(-0.515784 0.0927892 -0.228484)
(-0.529842 0.194199 0.00221442)
(-0.585427 0.0844743 0.0403347)
(-0.61296 -0.0122621 0.0189988)
(-0.207956 -0.317844 -0.222865)
(-0.00876556 -0.217972 -0.326765)
(0.0627454 -0.177083 -0.299521)
(0.247565 -0.133876 -0.228502)
(0.381222 -0.0246078 -0.0414661)
(0.175125 -0.000388856 -0.000975906)
(0.0493227 0.000100548 0.000159032)
(-7.61591e-05 0.000261735 0.000253738)
(-5.77352e-05 1.25949e-05 1.2323e-05)
(-0.0163398 0.00268357 -0.000646436)
(0.00194221 0.0328042 0.0145495)
(0.0337419 0.14811 0.0393797)
(-0.00790369 -0.479632 0.117541)
(-0.00534768 -0.641304 0.153564)
(-0.00679961 -0.858237 0.140368)
(-0.0315009 -0.970083 -0.356442)
(-0.0759943 -0.223718 -1.18805)
(-0.081858 -0.247676 -1.4351)
(-0.0580103 -0.410397 -1.6782)
(-0.0340942 -0.849957 -1.77747)
(-0.014842 -1.90552 -0.941179)
(0.000693034 -2.22615 -0.000696105)
(0.013991 -2.27564 0.360424)
(0.0294229 -2.28902 0.436999)
(0.0597897 -2.30059 0.0162318)
(-0.0213928 -0.591392 -2.11072)
(-0.0450265 -0.336097 -2.13972)
(-0.0433163 -0.298087 -2.13681)
(-0.0617094 -0.178806 -2.11442)
(-0.100004 -0.0818227 -2.05092)
(-0.104439 -0.0677132 -1.95347)
(-0.0602607 -0.0494168 -1.84642)
(-0.0183531 -0.0858855 -1.7645)
(-0.0269219 -0.237821 -1.71121)
(-0.0795663 -0.396749 -1.6586)
(-0.135615 -0.474579 -1.62895)
(-0.178292 -0.505783 -1.61956)
(-0.19671 -0.51795 -1.62392)
(-0.171992 -0.505367 -1.65079)
(-0.13468 -0.428888 -1.71068)
(-0.148677 -0.322736 -1.77302)
(-0.276236 -0.244437 -1.81383)
(-0.461272 -0.169515 -1.83001)
(-0.338371 -0.109471 -1.85451)
(-0.0324347 -0.0917201 -1.85258)
(0.112861 -0.0953877 -1.80545)
(0.0991112 -0.101601 -1.7238)
(0.0278097 -0.0965281 -1.61455)
(-0.000742974 -0.0760838 -1.49084)
(0.0102438 -0.0249548 -1.36031)
(0.0286875 0.0298472 -1.23481)
(0.0436907 0.0644786 -1.12119)
(0.0294936 0.142302 -0.999712)
(-0.108397 0.409948 -0.805394)
(-0.355673 0.765346 -0.0956005)
(-0.198678 0.673373 0.161712)
(-0.0457896 0.50851 0.384257)
(-0.0882805 0.348179 0.471314)
(-0.278475 0.276631 0.42612)
(-0.648751 0.0821259 0.13508)
(-0.633495 -0.0383386 0.0249481)
(-0.137161 -0.276682 -0.268682)
(0.182879 -0.243792 -0.216499)
(0.404453 -0.151171 -0.104112)
(0.41979 -0.0343349 -0.0212516)
(0.244575 -0.00278723 -0.00206075)
(0.0861152 0.000240344 0.000167625)
(-0.002277 0.00132173 0.00128966)
(-0.000218429 4.56989e-05 4.9299e-05)
(0.000228666 -0.226897 -0.0805067)
(0.000329943 -0.274446 -0.117028)
(0.000519519 -0.458366 -0.192492)
(0.000676743 -0.615606 -0.255855)
(0.00023289 -0.739029 -0.313124)
(-0.00593696 -0.853387 -0.366892)
(-0.043204 -0.945843 -0.424682)
(-0.0839592 -1.05767 -0.480723)
(-0.0857419 -1.19012 -0.515796)
(-0.0531325 -1.32804 -0.55133)
(-0.0192454 -1.45748 -0.600556)
(0.0028467 -1.574 -0.665123)
(0.0265007 -1.6707 -0.728997)
(0.0401905 -1.74977 -0.787517)
(0.0258873 -1.82707 -0.822404)
(0.00847559 -1.91152 -0.847732)
(0.00412996 -1.99949 -0.873645)
(0.00411146 -2.0805 -0.897409)
(0.00527932 -2.13445 -0.911317)
(0.00542098 -2.1565 -0.91307)
(0.0039602 -2.15103 -0.904639)
(0.00252766 -2.12737 -0.886475)
(0.00219691 -2.09069 -0.860747)
(0.00237767 -2.04054 -0.829215)
(0.00200488 -1.97507 -0.798967)
(-0.00142627 -1.90229 -0.787184)
(-0.0139817 -1.8311 -0.800294)
(-0.0223982 -1.77972 -0.804328)
(-0.0275933 -1.73698 -0.811537)
(-0.0327862 -1.70081 -0.809393)
(-0.0309509 -1.67897 -0.791199)
(-0.0220225 -1.66823 -0.763554)
(-0.0127124 -1.66115 -0.732247)
(-0.00647739 -1.65253 -0.702019)
(-0.00344945 -1.63804 -0.679313)
(-0.00248817 -1.61592 -0.664976)
(-0.00253278 -1.58659 -0.652394)
(-0.00237759 -1.54902 -0.6358)
(-0.00152136 -1.49823 -0.610283)
(-0.000359387 -1.43363 -0.576525)
(0.000569707 -1.35409 -0.536528)
(0.00203365 -1.26418 -0.492839)
(0.00542823 -1.17421 -0.450316)
(0.0101764 -1.08775 -0.409577)
(0.0118373 -1.00407 -0.372801)
(0.00688459 -0.932191 -0.345086)
(0.00185885 -0.867385 -0.322024)
(0.000812493 -0.796919 -0.297139)
(0.00093277 -0.739028 -0.27131)
(-0.0346511 -0.679362 -0.225423)
(-0.851523 -0.0914543 -0.0339318)
(-0.736365 -0.0858218 0.0121285)
(-0.363218 -0.344543 -0.0942889)
(0.233482 -0.30099 -0.119357)
(0.347867 -0.191238 -0.0873185)
(0.404512 -0.0665715 -0.0334236)
(0.286419 -0.00893704 -0.00462966)
(0.12739 0.000332551 0.000176952)
(-0.0136386 0.00573103 0.00364905)
(-0.000907098 0.000188041 0.000123923)
(0.000186778 -0.217881 -0.0436404)
(0.000275068 -0.246758 -0.0595388)
(0.000451052 -0.451429 -0.104063)
(0.00042185 -0.584445 -0.13185)
(0.000338916 -0.703802 -0.159973)
(3.16317e-05 -0.786676 -0.178311)
(-0.00292218 -0.848864 -0.190356)
(-0.0347793 -0.92052 -0.187323)
(-0.0679149 -1.01149 -0.1806)
(-0.0477564 -1.11112 -0.214085)
(-0.0225338 -1.21154 -0.277836)
(-0.00739308 -1.30252 -0.338027)
(0.00446799 -1.38509 -0.377974)
(0.0156828 -1.46676 -0.401903)
(0.0180249 -1.53081 -0.399561)
(0.00672707 -1.55787 -0.397902)
(0.00113139 -1.57053 -0.395671)
(0.000739165 -1.60158 -0.396385)
(0.00105412 -1.66342 -0.407786)
(0.00141957 -1.73733 -0.424975)
(0.00220157 -1.80689 -0.442233)
(0.00383263 -1.87325 -0.457968)
(0.00611429 -1.9446 -0.472651)
(0.00738621 -2.02475 -0.486908)
(0.00552409 -2.09335 -0.498344)
(0.0023201 -2.11348 -0.501454)
(-0.00122183 -2.07371 -0.494188)
(-0.0119315 -1.99764 -0.479159)
(-0.0220991 -1.91253 -0.467673)
(-0.0236866 -1.8341 -0.461209)
(-0.0249043 -1.77647 -0.433556)
(-0.0206013 -1.73293 -0.410632)
(-0.0109676 -1.70022 -0.401521)
(-0.00337492 -1.67636 -0.400718)
(-0.000146417 -1.65659 -0.401416)
(0.000664644 -1.63355 -0.400079)
(0.000712193 -1.60076 -0.395408)
(0.000815015 -1.55416 -0.386197)
(0.00103901 -1.49388 -0.371849)
(0.00103766 -1.41986 -0.352404)
(0.00125086 -1.33384 -0.328961)
(0.00225048 -1.24134 -0.302016)
(0.00356941 -1.14015 -0.271707)
(0.00375207 -1.02827 -0.239227)
(0.00256807 -0.908524 -0.206991)
(0.00107584 -0.788223 -0.177883)
(0.000531856 -0.690095 -0.155976)
(0.00134374 -0.627693 -0.144114)
(0.00324876 -0.568844 -0.132467)
(-0.0132279 -0.500941 -0.117703)
(-0.553692 -0.167307 -0.0500149)
(-0.496659 -0.157279 -0.0697319)
(-0.204317 -0.307926 -0.0206629)
(0.166529 -0.273853 0.00357259)
(0.280987 -0.199914 -0.0131063)
(0.376937 -0.0780601 -0.00825614)
(0.284362 -0.0101849 -0.00118844)
(0.132401 0.000408209 7.68872e-05)
(-0.0141524 0.0070756 0.0020299)
(-0.00106505 0.000226131 6.85658e-05)
(5.75984e-05 -0.179366 -0.0327886)
(9.25691e-05 -0.235016 -0.0481293)
(0.000168365 -0.485817 -0.0909889)
(0.000242611 -0.706713 -0.130443)
(0.000235238 -0.786676 -0.143897)
(-8.67604e-05 -0.850781 -0.153625)
(-0.00721534 -0.910146 -0.147814)
(-0.0502335 -0.993378 -0.0951548)
(-0.0556621 -1.09146 -0.152135)
(-0.0467091 -1.24613 -0.218595)
(-0.032224 -1.44819 -0.292354)
(-0.0146752 -1.63883 -0.368683)
(0.0101288 -1.80177 -0.40989)
(0.0381967 -1.94828 -0.432045)
(0.0502807 -2.06022 -0.438959)
(0.0164334 -2.10333 -0.44395)
(0.000229399 -2.11434 -0.442098)
(-0.00127637 -2.11938 -0.437517)
(-0.00131165 -2.13295 -0.440007)
(-0.000533591 -2.16562 -0.449237)
(0.000280898 -2.21184 -0.461652)
(0.00136923 -2.27206 -0.477903)
(0.00262019 -2.34715 -0.498004)
(0.00270445 -2.43142 -0.522381)
(0.00151729 -2.51348 -0.545939)
(0.00056497 -2.56981 -0.552375)
(-0.000619989 -2.56869 -0.539638)
(-0.0188678 -2.50856 -0.488356)
(-0.235539 -2.44986 -0.205595)
(-0.155318 -2.30604 -0.554076)
(0.0243047 -2.25316 -0.538651)
(0.0101553 -2.25754 -0.384651)
(0.00133592 -2.2439 -0.403524)
(7.19083e-05 -2.23864 -0.443145)
(-1.65797e-05 -2.23883 -0.469295)
(-0.000285822 -2.2314 -0.485986)
(-0.000692428 -2.20739 -0.50184)
(-0.000498582 -2.16753 -0.49667)
(3.14105e-05 -2.106 -0.478382)
(0.000270282 -2.02224 -0.448802)
(0.000544776 -1.90998 -0.420773)
(0.00138567 -1.77598 -0.387835)
(0.002602 -1.6194 -0.348409)
(0.00315902 -1.43427 -0.301907)
(0.00254593 -1.22689 -0.246342)
(0.00080436 -1.02105 -0.189274)
(-0.000818654 -0.844437 -0.142023)
(0.00407139 -0.717342 -0.112917)
(0.0115408 -0.625662 -0.0945159)
(-0.0839373 -0.534124 -0.11443)
(-0.634139 -0.0844403 -0.0210184)
(-0.550631 -0.154116 -0.0415009)
(-0.21072 -0.304852 -0.151034)
(0.207662 -0.243726 -0.168624)
(0.350276 -0.171136 -0.096807)
(0.405528 -0.0621815 -0.0192904)
(0.288894 -0.00972679 -0.000423112)
(0.135157 0.00147889 0.00034691)
(-0.0115461 0.00715796 0.000882208)
(-0.001172 0.000235648 1.6898e-05)
(0.0176879 0.138826 -0.0567113)
(0.00537592 -0.196017 -0.148689)
(-0.00152214 -0.381879 -0.185038)
(-0.000960508 -0.557374 -0.255437)
(-0.00214966 -0.688522 -0.324245)
(-0.0099956 -0.75171 -0.416067)
(-0.0139558 -0.839117 -0.414649)
(-0.0833499 -0.971191 -0.385317)
(-0.282393 -1.0827 -0.446518)
(-0.544016 -1.22788 -0.5879)
(-0.404565 -1.50587 -0.803236)
(-0.0615142 -1.73988 -0.998069)
(0.0301777 -1.8784 -1.15142)
(0.0589919 -2.00607 -1.27745)
(0.074026 -2.09299 -1.38565)
(0.060873 -2.1477 -1.42671)
(-0.0160864 -2.39619 -1.11405)
(-0.0471845 -2.52131 -0.988191)
(-0.0480386 -2.55856 -1.00005)
(-0.0257174 -2.56975 -1.03179)
(-0.00637168 -2.59757 -1.03819)
(-0.0013992 -2.63844 -1.054)
(-0.0499415 -2.67755 -1.09626)
(-0.198025 -2.67455 -1.20016)
(-0.0704999 -2.51991 -1.53672)
(1.47297 -2.20291 -1.65679)
(1.9828 -2.22914 1.15869)
(-0.915001 -1.91235 1.82459)
(-2.58247 -0.909327 1.56221)
(-2.17308 -0.697241 1.73873)
(0.244077 -2.09073 -1.27192)
(0.508552 -1.60453 -1.76354)
(0.423854 -2.10116 -1.29887)
(0.157521 -2.47503 -0.625319)
(-0.445004 -2.5422 -0.370305)
(-1.80638 -2.26991 -0.231557)
(-2.12314 -2.14612 0.074347)
(0.77827 -2.26944 -1.05476)
(1.3561 -1.47347 -1.76497)
(0.991442 -1.76241 -1.45146)
(-0.0212772 -2.25467 -0.20449)
(-0.0812838 -2.02186 0.467545)
(0.15848 -1.82094 0.25522)
(0.282936 -1.55567 -0.0655187)
(0.106697 -1.04586 -0.640502)
(-0.0236438 -0.663584 -0.626818)
(-0.056479 -0.616019 -0.409981)
(0.0655504 -0.675913 -0.150432)
(0.356906 -0.588744 0.0657629)
(-0.793649 0.100223 -0.020997)
(-0.776828 -0.00681989 -0.00289711)
(-0.712425 -0.128415 -0.0183884)
(-0.40691 -0.350452 -0.123353)
(0.304514 -0.276275 -0.224933)
(0.522003 -0.0607839 -0.101861)
(0.479286 -0.00507527 -0.0143813)
(0.309728 -0.000334749 -0.000688828)
(0.129211 0.000214881 0.000123956)
(-0.0145235 0.00348335 7.12367e-05)
(-0.000840672 0.000131035 -7.65284e-06)
(-0.113474 0.130501 0.0685602)
(-0.0963604 -0.212944 0.117555)
(-0.00995596 -0.360614 0.15403)
(-0.00791747 -0.531757 0.165386)
(-0.0205609 -0.697265 0.0176324)
(-0.048333 -0.567194 -0.539313)
(-0.115358 -0.621962 -0.642503)
(-0.634415 -0.896132 -0.227567)
(-1.11117 -0.798396 0.292727)
(-1.15608 -0.990234 0.503426)
(-0.867733 -1.37095 0.560395)
(-0.354585 -1.67515 0.440627)
(-0.0989427 -1.90131 -0.0633435)
(0.156373 -2.03672 -0.533344)
(0.514925 -2.01151 -1.16127)
(1.16887 -1.57443 -1.81521)
(1.92101 -1.75987 -1.50826)
(0.0775152 -2.5226 1.12904)
(-0.000403616 -2.56389 1.19782)
(-0.000379515 -2.61264 1.17564)
(-0.000406949 -2.66842 1.12696)
(-0.00749158 -2.70459 1.12353)
(-0.0514808 -2.73291 1.13164)
(-0.223007 -2.72354 1.17808)
(-0.311953 -2.54278 1.50775)
(1.21056 -1.94502 2.04648)
(3.3288 -1.46932 0.97755)
(0.519415 -2.2401 1.52068)
(-0.705818 -1.26267 2.13033)
(-1.77859 -0.956222 1.81157)
(-2.17987 -1.22559 1.33133)
(-0.272253 -2.1184 1.18141)
(1.74039 -2.10939 0.479693)
(0.904722 -2.42868 0.387678)
(0.184264 -2.54614 0.39118)
(-0.0303929 -2.4577 0.837377)
(-0.548177 -1.87439 1.71811)
(-1.36792 -1.60013 1.71291)
(-0.866258 -1.67503 1.66931)
(1.82711 -1.99446 0.164192)
(1.3678 -1.99591 0.19462)
(0.332384 -1.95724 0.40457)
(-0.0272091 -1.66222 0.52235)
(-0.535511 -1.35349 0.292588)
(-0.913022 -0.760402 -0.403566)
(-0.0155179 -0.343663 -0.661962)
(0.387057 -0.50483 -0.343772)
(0.305546 -0.615431 -0.173707)
(0.392428 -0.659027 -0.00364272)
(-0.908054 0.0707819 -0.10804)
(-0.900931 -0.0288407 -0.0547079)
(-0.772001 -0.205546 -0.122756)
(-0.39745 -0.361919 0.266548)
(0.249243 -0.222622 0.356953)
(0.523034 -0.056902 0.165541)
(0.498345 -0.00353615 0.0228096)
(0.315819 -0.00021207 0.00103848)
(0.129013 0.000230648 -6.83935e-05)
(-0.0139272 0.00348351 -0.000719057)
(-0.000792221 0.000128648 -1.59928e-05)
(-2.67228e-05 -0.190536 0.0355881)
(-4.81723e-05 -0.281343 0.0576609)
(-0.00110256 -0.606661 0.100408)
(-0.00138124 -0.837534 0.137425)
(-0.00143549 -1.00929 0.149469)
(-0.00109317 -1.13022 0.119109)
(0.00127918 -1.16334 0.0424329)
(0.0160728 -0.92774 -0.620059)
(-0.810484 0.927224 -0.101332)
(-1.29518 0.444298 0.455352)
(-1.59937 -0.11118 0.391649)
(-0.967351 -1.05296 0.333139)
(-0.18246 -1.38869 0.228769)
(0.0262028 -1.58437 0.119691)
(0.241767 -1.825 0.017597)
(0.670762 -2.04227 -0.239797)
(0.769848 -2.2449 0.0150183)
(0.0579588 -2.3552 0.416413)
(-0.00280449 -2.40752 0.444539)
(-0.00376292 -2.46074 0.464143)
(-0.0024011 -2.50548 0.478594)
(-0.000671082 -2.53417 0.487985)
(7.347e-05 -2.54828 0.493587)
(0.000970212 -2.55742 0.497758)
(0.00229611 -2.57429 0.503526)
(0.00210865 -2.60165 0.503049)
(-4.04376e-05 -2.59669 0.488686)
(-0.00310801 -2.5083 0.45657)
(-0.0659197 -2.41993 -0.122574)
(-0.352493 -1.61335 -1.54091)
(-0.318527 -2.23232 -0.0867419)
(-0.0309113 -2.09425 0.673799)
(0.00180368 -2.15189 0.455289)
(0.000409848 -2.16944 0.408796)
(-0.000821061 -2.1766 0.410977)
(-0.00108302 -2.16988 0.41112)
(-0.00119276 -2.14384 0.404007)
(-0.00195605 -2.09504 0.395906)
(-0.00249829 -2.02718 0.37558)
(-0.000896668 -1.94208 0.350719)
(0.00134802 -1.83729 0.32655)
(0.00254983 -1.71046 0.300511)
(0.00122128 -1.55438 0.265896)
(-0.00471906 -1.34324 0.220122)
(-0.0100206 -1.09173 0.176048)
(-0.00445037 -0.869218 0.141915)
(0.0109725 -0.716373 0.102373)
(0.0397859 -0.636314 0.069121)
(0.0373884 -0.590857 0.104874)
(-0.41599 -0.451454 0.0881127)
(-0.673402 -0.0896998 -0.0151098)
(-0.432459 -0.299777 -0.172129)
(-0.0819975 -0.354577 0.217503)
(0.181343 -0.207849 0.284053)
(0.33943 -0.1188 0.227903)
(0.430952 -0.0464667 0.0706607)
(0.284159 -0.00961493 0.00524675)
(0.0683057 0.03742 -0.0146363)
(-0.0144236 0.00500578 -0.00162975)
(-0.00095114 0.000207091 -4.87842e-05)
(-4.43748e-05 -0.20525 0.042024)
(-0.00279472 -0.173866 0.0490324)
(-0.0116955 -0.434345 0.0982875)
(-0.0228296 -0.559325 0.114684)
(-0.0233562 -0.634116 0.132185)
(-0.00714721 -0.723567 0.151437)
(0.00790189 -0.865313 0.17849)
(0.0166157 -0.998171 0.206808)
(0.0115395 -1.06462 0.22522)
(-0.0227246 -1.10085 0.233441)
(-0.405263 -1.11528 0.205684)
(-1.23106 -0.767719 0.417845)
(-0.738666 -0.918591 0.752382)
(-0.131389 -1.34259 0.475883)
(0.109005 -1.61732 0.443042)
(0.450726 -1.95683 0.431454)
(1.44164 -2.08426 0.408533)
(1.50819 -2.17939 0.421587)
(0.0173397 -2.39177 0.473158)
(-0.00157666 -2.39235 0.494079)
(0.000733897 -2.41784 0.510682)
(0.00114578 -2.45191 0.519374)