/*--------------------------------*- C++ -*----------------------------------*\
| =========                 |                                                 |
| \\      /  F ield         | OpenFOAM: The Open Source CFD Toolbox           |
|  \\    /   O peration     | Version:  2.1.1                                 |
|   \\  /    A nd           | Web:      www.OpenFOAM.org                      |
|    \\/     M anipulation  |                                                 |
\*---------------------------------------------------------------------------*/
FoamFile
{
    version     2.0;
    format      ascii;
    class       volVectorField;
    location    "0.00125";
    object      gradAlphaUSE;
}
// * * * * * * * * * * * * * * * * * * * * * * * * * * * * * * * * * * * * * //

dimensions      [0 0 0 0 0 0 0];

internalField   nonuniform List<vector> 
36520
(
(-7.99743e-05 6.16759e-05 0.000204817)
(-7.69484e-05 4.97503e-05 0.000243308)
(6.14263e-06 7.35443e-05 0.000281533)
(8.48017e-06 0.000100386 0.000333425)
(1.19315e-05 0.000138653 0.000392602)
(1.38598e-05 0.000181456 0.0004448)
(1.53512e-05 0.000225043 0.000493274)
(1.7214e-05 0.000273216 0.000549277)
(1.96459e-05 0.000328376 0.000625211)
(2.27625e-05 0.000392522 0.000724116)
(2.53551e-05 0.000465981 0.000846953)
(2.73435e-05 0.000539897 0.000973109)
(2.27263e-05 0.00061561 0.00109208)
(9.15701e-06 0.000644274 0.00119996)
(-8.38929e-07 0.000631944 0.0013189)
(2.12227e-06 0.000613499 0.00147025)
(1.56348e-05 0.000625651 0.00167359)
(3.45028e-05 0.000685576 0.00193141)
(5.45188e-05 0.00079647 0.00223446)
(7.33824e-05 0.000951989 0.00256824)
(8.90379e-05 0.00114656 0.00289201)
(0.000101302 0.00137479 0.00318999)
(0.000111969 0.00162952 0.00341688)
(0.000118309 0.00189862 0.00353036)
(0.00011719 0.0021664 0.00348778)
(0.000109282 0.00241642 0.00327583)
(0.000100307 0.00263305 0.00289072)
(9.99759e-05 0.00281281 0.00235997)
(0.000122576 0.00297977 0.00173417)
(0.00018212 0.00320095 0.00108746)
(0.000283474 0.00358263 0.000501807)
(0.00041528 0.00423262 -7.32257e-06)
(0.000549676 0.00521154 -0.000477864)
(0.000649202 0.00649865 -0.000967344)
(0.000679225 0.00798612 -0.0014937)
(0.000618725 0.00949691 -0.00201889)
(0.000461461 0.0108132 -0.00247637)
(0.000222723 0.0116772 -0.00280889)
(-6.72824e-05 0.0118589 -0.0029943)
(-0.000392974 0.0111774 -0.00303358)
(-0.000772237 0.00946099 -0.00291692)
(-0.00118908 0.00654098 -0.002637)
(-0.00144098 0.00265121 -0.00241443)
(-0.00116367 -0.00123274 -0.00600411)
(-0.00124259 -0.0166591 -0.102927)
(-0.00228323 -0.0624541 -0.383601)
(-0.00187082 -0.0997622 -0.686218)
(-0.000705783 -0.109923 -0.859388)
(-0.000144539 -0.108484 -0.925215)
(0.000208462 -0.106405 -0.946407)
(0.000317179 -0.101858 -0.951148)
(0.000514487 -0.0930836 -0.874607)
(0.00206421 -0.0443109 -0.44955)
(0.00255712 0.00885313 -0.00353413)
(-0.00185158 0.00792482 0.0395635)
(-0.00254747 0.00157576 0.00796537)
(-0.000393535 0.000124739 0.000697499)
(-2.07012e-05 3.84297e-06 2.29325e-05)
(-4.41762e-07 5.62945e-08 3.46516e-07)
(-4.91961e-09 4.99687e-10 3.11393e-09)
(-6.16792e-05 0.000397041 0.000649898)
(-4.04402e-05 0.000503305 0.000674773)
(4.90844e-05 0.000619897 0.000730676)
(6.13978e-05 0.000775098 0.000797448)
(6.49652e-05 0.000931775 0.000843247)
(6.17731e-05 0.00107304 0.000852774)
(6.50712e-05 0.00120659 0.00084201)
(8.00233e-05 0.00136809 0.000831819)
(0.000102905 0.00159487 0.000841144)
(0.000128369 0.00189782 0.000860923)
(0.000143929 0.0022679 0.000899731)
(0.000144048 0.00263519 0.000935586)
(0.000130752 0.00296201 0.000981215)
(0.0001173 0.00310975 0.000957573)
(0.000128124 0.00322255 0.000901386)
(0.000171327 0.0034648 0.000870497)
(0.000235522 0.0038638 0.000856707)
(0.000301784 0.0044451 0.000862469)
(0.000357824 0.0052041 0.000885767)
(0.000386324 0.00607984 0.000919551)
(0.000384656 0.00702538 0.000922512)
(0.000350484 0.00799626 0.000889759)
(0.000273014 0.00894196 0.000802242)
(0.000150897 0.00980478 0.000634018)
(-5.06594e-06 0.0105061 0.000356516)
(-0.000175627 0.0109759 -3.13794e-05)
(-0.000335669 0.0111774 -0.00054625)
(-0.000449826 0.0111597 -0.00115455)
(-0.000482009 0.0110825 -0.00164001)
(-0.000403751 0.0111763 -0.00181031)
(-0.000238367 0.0115116 -0.0020504)
(-5.40069e-05 0.0120514 -0.00242173)
(8.73784e-05 0.0125856 -0.00293922)
(0.000158492 0.0128693 -0.00358132)
(0.000170571 0.0127819 -0.00428893)
(0.000143061 0.012368 -0.00497687)
(7.91447e-05 0.0117196 -0.00554715)
(-2.70122e-05 0.0107619 -0.00589721)
(-0.000173327 0.00932627 -0.00595294)
(-0.000350568 0.00726029 -0.0056713)
(-0.000573141 0.00455888 -0.00501296)
(-0.000934035 0.000999992 -0.00646838)
(-0.00287455 -0.0119254 -0.0574961)
(-0.0394886 -0.0918723 -0.261201)
(-0.0735845 -0.245973 -0.707783)
(-0.0478802 -0.271037 -0.912296)
(-0.0285905 -0.262759 -0.953754)
(-0.0150436 -0.252213 -0.96467)
(-0.00636077 -0.241138 -0.96945)
(-0.0020441 -0.232956 -0.971963)
(0.00235342 -0.228901 -0.973043)
(0.00866525 -0.224504 -0.973549)
(0.0170832 -0.217833 -0.970779)
(0.0587819 -0.161869 -0.840277)
(0.00303827 0.042745 0.153528)
(-0.0209057 0.0154301 0.0370528)
(-0.00418231 0.0020242 0.00580636)
(-0.000353223 9.33764e-05 0.000285225)
(-1.13749e-05 1.84382e-06 5.72443e-06)
(-1.68653e-07 2.01235e-08 6.26633e-08)
(-6.56305e-05 0.00107796 0.000731735)
(-3.45033e-05 0.00119907 0.000563786)
(6.79711e-05 0.00141372 0.000501457)
(6.6007e-05 0.00168336 0.000428471)
(4.21373e-05 0.00191856 0.000333958)
(1.6964e-05 0.00213405 0.000228322)
(9.36408e-06 0.00236828 0.00013015)
(2.19366e-05 0.00267313 -3.07146e-06)
(4.03949e-05 0.00312657 -0.00024243)
(5.93162e-05 0.00375541 -0.000579781)
(7.0292e-05 0.00454951 -0.000994511)
(7.48497e-05 0.00524811 -0.00147652)
(3.92665e-05 0.00579723 -0.00169515)
(-2.49352e-05 0.00524533 -0.00177781)
(-3.68538e-05 0.00434455 -0.00193695)
(-9.98335e-06 0.00459608 -0.00235318)
(2.52658e-05 0.00526127 -0.00258145)
(6.62731e-05 0.00592403 -0.00280004)
(0.000103218 0.00645585 -0.00328271)
(0.000114685 0.00681444 -0.00423524)
(9.98407e-05 0.00704663 -0.00536318)
(6.89044e-05 0.00720376 -0.00649853)
(1.35727e-05 0.00734257 -0.00718192)
(-7.37114e-05 0.00743585 -0.0072023)
(-0.000184401 0.00717969 -0.00750958)
(-0.000306973 0.00188904 -0.0251173)
(-0.000394321 -0.0184518 -0.0952799)
(-0.000353341 -0.0394887 -0.169391)
(-0.000145585 -0.0614934 -0.250065)
(-1.09572e-05 -0.0871858 -0.344808)
(-5.86437e-06 -0.113483 -0.441559)
(-6.99076e-06 -0.137148 -0.528698)
(-7.80559e-06 -0.154111 -0.591691)
(-8.24082e-06 -0.16287 -0.625301)
(-8.37462e-06 -0.165111 -0.635652)
(-8.10524e-06 -0.158317 -0.614719)
(-7.79703e-06 -0.150695 -0.590986)
(-7.48866e-06 -0.143197 -0.567612)
(-7.20665e-06 -0.136677 -0.546913)
(-6.9124e-06 -0.130038 -0.525559)
(-0.000595859 -0.123137 -0.505624)
(-0.0136218 -0.116233 -0.497956)
(-0.0754401 -0.119579 -0.541794)
(-0.347168 -0.227209 -0.613515)
(-0.642052 -0.30698 -0.597268)
(-0.632344 -0.379288 -0.653362)
(-0.45896 -0.476874 -0.745681)
(-0.259021 -0.537004 -0.802064)
(-0.119727 -0.541153 -0.832165)
(-0.0384085 -0.504582 -0.862446)
(0.0118021 -0.467055 -0.884114)
(0.0441406 -0.44882 -0.892485)
(0.0825349 -0.487502 -0.869034)
(0.205949 -0.560803 -0.799179)
(0.726896 0.0352401 0.145824)
(-0.0746103 0.0688307 0.0948415)
(-0.0181079 0.015107 0.0277427)
(-0.00279601 0.00102417 0.00216706)
(-0.000136326 2.75001e-05 5.9687e-05)
(-2.70166e-06 3.70258e-07 8.08039e-07)
(-0.000134016 0.00140043 0.000129326)
(-0.000134481 0.00177033 -0.000187366)
(1.82117e-06 0.00224993 -0.000533574)
(-1.38671e-06 0.00299464 -0.00107204)
(-1.56837e-05 0.00408042 -0.0013148)
(-2.10867e-05 0.00521912 -0.00145912)
(-2.81774e-05 0.00618407 -0.00156756)
(-7.22449e-05 0.00697709 -0.00220666)
(-0.00013442 0.00826358 -0.00315251)
(-0.000180401 0.0101243 -0.00388655)
(-0.000230111 0.0125814 -0.00436335)
(-0.000145712 0.0109221 -0.0174648)
(-1.52322e-05 0.00514533 -0.0403685)
(-4.5673e-05 -0.00821888 -0.0792032)
(-0.000141946 -0.0368195 -0.151425)
(-8.03389e-05 -0.0668487 -0.24065)
(3.82745e-05 -0.0964705 -0.340044)
(-1.61998e-06 -0.126922 -0.441331)
(-0.00013521 -0.155391 -0.536615)
(-0.000211386 -0.181196 -0.619277)
(-0.000195344 -0.20351 -0.689929)
(-0.000116126 -0.22159 -0.748896)
(-1.53908e-05 -0.235903 -0.79587)
(-7.70452e-06 -0.246682 -0.830803)
(-0.00095956 -0.253673 -0.854782)
(-0.00424441 -0.257985 -0.871764)
(-0.00648156 -0.260777 -0.886573)
(-0.00674128 -0.264036 -0.900902)
(-0.0074058 -0.268153 -0.914302)
(-0.00775277 -0.273005 -0.926203)
(-0.00722019 -0.277575 -0.935516)
(-0.00582327 -0.281017 -0.941691)
(-0.00382695 -0.282993 -0.945144)
(-0.00185595 -0.283462 -0.946599)
(0.000485962 -0.282118 -0.946529)
(0.00226626 -0.279793 -0.945229)
(0.00254248 -0.277904 -0.942767)
(0.00258226 -0.276379 -0.939255)
(0.00274304 -0.275854 -0.934029)
(0.00321566 -0.278287 -0.924753)
(0.00271552 -0.288729 -0.909404)
(-0.00500023 -0.307291 -0.889558)
(-0.0445885 -0.352548 -0.861546)
(-0.185812 -0.455197 -0.810241)
(-0.43887 -0.610164 -0.626884)
(-0.594525 -0.704922 -0.373796)
(-0.667034 -0.662908 -0.33684)
(-0.619372 -0.659192 -0.425827)
(-0.429249 -0.784624 -0.447201)
(-0.162612 -0.877333 -0.451459)
(-0.0185463 -0.840825 -0.540976)
(0.0678669 -0.824266 -0.562109)
(0.117666 -0.808272 -0.576913)
(0.151451 -0.716816 -0.680533)
(0.0813589 -0.325688 -0.941484)
(-0.00616804 -0.290618 -0.933339)
(-0.0502018 0.0687065 0.0822105)
(-0.0139504 0.00702026 0.0113551)
(-0.00105488 0.000268203 0.000456304)
(-2.84453e-05 4.50348e-06 7.76616e-06)
(-0.000192562 0.00199205 -0.000817399)
(-0.000299188 0.0039432 -0.00136924)
(-0.000284405 0.00724902 -0.00308091)
(-0.000209301 0.0113972 -0.0098865)
(-3.30506e-05 0.0159521 -0.01739)
(-1.01601e-06 0.0202769 -0.026592)
(-0.000244169 0.0251738 -0.0353976)
(-0.000594117 0.0322737 -0.0437717)
(-0.000587586 0.0534818 -0.0163605)
(-0.000324303 0.078239 -0.000896236)
(-0.00350039 -0.0788175 -0.446325)
(-0.00370178 -0.214409 -0.762895)
(-0.00373522 -0.252384 -0.848963)
(-0.0102063 -0.218125 -0.817066)
(-0.0177099 -0.198103 -0.819268)
(-0.0162356 -0.23703 -0.870298)
(-0.0156293 -0.257939 -0.897532)
(-0.0148715 -0.269206 -0.91604)
(-0.0139122 -0.27878 -0.927596)
(-0.0136864 -0.284883 -0.934393)
(-0.0142952 -0.287862 -0.938892)
(-0.0147601 -0.289489 -0.942566)
(-0.0135347 -0.291844 -0.945835)
(-0.0105614 -0.29501 -0.948217)
(-0.00788233 -0.297734 -0.949483)
(-0.00699115 -0.299241 -0.950117)
(-0.00817397 -0.299688 -0.950504)
(-0.0112916 -0.299512 -0.950807)
(-0.016366 -0.299231 -0.951102)
(-0.0228413 -0.298926 -0.951413)
(-0.0280086 -0.29833 -0.951827)
(-0.0270779 -0.297814 -0.952374)
(-0.0181506 -0.297941 -0.952832)
(-0.00406374 -0.298564 -0.952953)
(0.00864129 -0.299654 -0.952585)
(0.0146109 -0.298702 -0.952761)
(0.0149673 -0.299636 -0.952411)
(0.0140387 -0.298338 -0.952756)
(0.0136703 -0.297032 -0.953094)
(0.0118667 -0.299165 -0.952493)
(0.00828021 -0.303763 -0.951169)
(0.00492353 -0.309503 -0.949335)
(-0.000892989 -0.316859 -0.946759)
(-0.0201429 -0.333963 -0.940298)
(-0.0710919 -0.374725 -0.922623)
(-0.196075 -0.43998 -0.875222)
(-0.37834 -0.501943 -0.777271)
(-0.478026 -0.593879 -0.646973)
(-0.403452 -0.736955 -0.542287)
(-0.179696 -0.913116 -0.36595)
(-0.0374324 -0.948292 -0.315179)
(0.0155057 -0.813965 -0.580706)
(0.0394436 -0.690912 -0.721861)
(0.0398117 -0.460286 -0.886876)
(0.0338238 -0.315868 -0.948194)
(0.130938 -0.309391 -0.941736)
(0.951935 0.0128715 0.00999911)
(-0.0460864 0.0304772 0.0366208)
(-0.00578851 0.00191094 0.00270247)
(-0.00022303 4.11686e-05 6.01716e-05)
(-0.000267194 0.001704 -0.00656176)
(-0.000787551 -0.0185206 -0.0965298)
(-0.00289037 -0.0360789 -0.20042)
(-0.00512146 -0.00214999 -0.213929)
(-0.00700515 0.129409 -0.0248681)
(-0.0064569 0.0963767 -0.283759)
(-0.00356777 -0.043697 -0.616789)
(0.00123927 -0.179729 -0.842377)
(0.00085332 -0.250366 -0.926348)
(-0.00453008 -0.276702 -0.948825)
(-0.007349 -0.285534 -0.954049)
(-0.00640025 -0.4463 -0.892632)
(-0.000998091 -0.553259 -0.831458)
(0.00188477 -0.445712 -0.893233)
(-0.0104488 -0.259764 -0.959424)
(-0.0309874 -0.262118 -0.956658)
(-0.0294883 -0.29078 -0.950778)
(-0.0317121 -0.304524 -0.947698)
(-0.0324619 -0.317128 -0.944345)
(-0.0319673 -0.332255 -0.939605)
(-0.0345271 -0.341161 -0.93661)
(-0.048056 -0.344389 -0.935045)
(-0.0731007 -0.346175 -0.933006)
(-0.0893779 -0.348072 -0.931225)
(-0.08059 -0.349347 -0.931897)
(-0.0575665 -0.348527 -0.934141)
(-0.0333657 -0.345982 -0.936486)
(-0.0216502 -0.343998 -0.937852)
(-0.024792 -0.34984 -0.935762)
(-0.0334001 -0.362293 -0.930791)
(-0.0419602 -0.371826 -0.926734)
(-0.0460509 -0.372789 -0.926216)
(-0.0373368 -0.374155 -0.92611)
(-0.0144013 -0.390248 -0.920137)
(0.00438013 -0.405105 -0.913797)
(0.00991932 -0.409946 -0.911576)
(0.0111026 -0.433352 -0.900688)
(0.0125056 -0.452343 -0.89127)
(0.00309263 -0.472574 -0.88073)
(-0.0134901 -0.480618 -0.876216)
(-0.00843572 -0.482159 -0.875459)
(0.0118152 -0.457287 -0.888808)
(0.0175927 -0.378844 -0.925048)
(0.000659799 -0.339187 -0.940575)
(-0.021666 -0.335811 -0.94158)
(-0.0683688 -0.322088 -0.944155)
(-0.175975 -0.316609 -0.93203)
(-0.37043 -0.324757 -0.870207)
(-0.645216 -0.310178 -0.698185)
(-0.537561 -0.716924 -0.443894)
(-0.123504 -0.921318 -0.368672)
(-0.0297158 -0.741817 -0.669943)
(0.00900984 -0.552951 -0.833165)
(0.0425027 -0.414118 -0.90923)
(0.131901 -0.328857 -0.935123)
(0.673344 -0.224828 -0.704304)
(0.999544 -0.00522786 -0.0174672)
(-0.109482 0.0608438 -0.00600862)
(-0.0206206 0.0102584 0.0120016)
(-0.00137703 0.000296385 0.000362061)
(-0.0441992 -0.0222194 -0.109357)
(-0.0942388 -0.0174289 -0.209728)
(-0.0669305 0.137143 -0.108299)
(0.0630006 0.43289 -0.0129611)
(-0.000959183 -0.20861 -0.96312)
(-0.00535671 -0.322977 -0.939254)
(-0.0134026 -0.404348 -0.909338)
(-0.0278849 -0.439878 -0.894711)
(-0.0412045 -0.510075 -0.857872)
(-0.0427409 -0.718597 -0.693524)
(-0.0228459 -0.961298 -0.274123)
(-0.00765496 -0.999925 -0.00479518)
(-0.000673834 -0.998737 0.0498207)
(0.00657878 -0.999052 0.0424352)
(0.0164135 -0.999684 -0.0141642)
(-0.0103582 -0.746367 -0.663859)
(-0.0738245 -0.214823 -0.972459)
(-0.0613904 -0.226787 -0.970848)
(-0.0485079 -0.24056 -0.968392)
(-0.0351009 -0.260955 -0.963775)
(-0.0264432 -0.289507 -0.955967)
(-0.0257195 -0.308965 -0.949975)
(-0.0379898 -0.331094 -0.942141)
(-0.0587809 -0.371011 -0.926078)
(-0.0691325 -0.418165 -0.905025)
(-0.0755338 -0.490252 -0.867599)
(-0.11508 -0.552034 -0.825205)
(-0.119732 -0.521944 -0.844011)
(-0.0645487 -0.439421 -0.895547)
(-0.0379864 -0.334674 -0.941241)
(-0.0454921 -0.259496 -0.964398)
(-0.0468158 -0.290701 -0.955426)
(-0.0339486 -0.648538 -0.760208)
(-0.00920216 -0.812315 -0.58299)
(0.0030989 -0.667656 -0.744374)
(0.00105802 -0.597713 -0.801632)
(0.00102785 -0.342675 -0.939376)
(0.0153305 -0.203251 -0.978917)
(0.0215887 -0.245398 -0.969081)
(0.0049548 -0.356307 -0.934253)
(-0.0325714 -0.311619 -0.949546)
(-0.12004 -0.218037 -0.968425)
(-0.256002 -0.264708 -0.929608)
(-0.324622 -0.614712 -0.718702)
(-0.271179 -0.678732 -0.682331)
(-0.287459 -0.509528 -0.810917)
(-0.55823 -0.18782 -0.808085)
(-0.833774 0.227787 -0.502861)
(-0.877193 0.48009 0.00492847)
(-0.974475 0.205934 0.0893664)
(-0.998663 -0.0298153 0.0422312)
(-0.335841 -0.789281 -0.514049)
(-0.0144882 -0.577424 -0.816316)
(0.109045 -0.520018 -0.847166)
(0.462715 -0.450981 -0.763224)
(0.972969 -0.116348 -0.19948)
(0.999916 -0.00405112 -0.0103109)
(0.96781 0.0035769 0.00566989)
(-0.00625777 0.0384773 0.0370079)
(-0.00659214 0.00151111 0.00151354)
(-0.0684118 0.0156494 -0.00354033)
(0.00660731 0.145652 0.0620414)
(0.0757869 0.432889 0.114095)
(-0.0123096 -0.97079 0.238103)
(-0.00630375 -0.970991 0.238662)
(-0.00602775 -0.985644 0.168194)
(-0.0229861 -0.933338 -0.357695)
(-0.0444625 -0.18015 -0.9825)
(-0.0388967 -0.168849 -0.984827)
(-0.0228774 -0.238736 -0.970799)
(-0.0116718 -0.43607 -0.89983)
(-0.00462887 -0.899753 -0.436366)
(0.000205481 -0.999998 -0.000306911)
(0.00405325 -0.987914 0.154941)
(0.00858784 -0.981943 0.188966)
(0.0180012 -0.999792 0.00721931)
(-0.00660998 -0.263654 -0.964499)
(-0.0140037 -0.152489 -0.988105)
(-0.0134615 -0.136123 -0.990485)
(-0.0193884 -0.0827916 -0.996226)
(-0.0323055 -0.0389426 -0.998517)
(-0.0353924 -0.0336859 -0.998593)
(-0.0217746 -0.0260523 -0.999219)
(-0.00704238 -0.0477774 -0.998628)
(-0.0107562 -0.13697 -0.990298)
(-0.0326561 -0.233412 -0.971612)
(-0.0562348 -0.28088 -0.957894)
(-0.0737801 -0.298099 -0.951507)
(-0.0808184 -0.302625 -0.949534)
(-0.0696496 -0.290897 -0.954103)
(-0.0531206 -0.241002 -0.968983)
(-0.0568944 -0.176717 -0.982549)
(-0.10283 -0.130939 -0.98599)
(-0.168114 -0.0894837 -0.981654)
(-0.121879 -0.0574773 -0.990844)
(-0.0116887 -0.0484291 -0.998729)
(0.0413276 -0.0513426 -0.997801)
(0.037687 -0.0568295 -0.997651)
(0.0112187 -0.0571603 -0.998283)
(-0.000323163 -0.0483575 -0.998812)
(0.00488847 -0.0172816 -0.999822)
(0.0151609 0.0227502 -0.99961)
(0.0257454 0.0544933 -0.998164)
(0.01978 0.135902 -0.990501)
(-0.0831582 0.444822 -0.8917)
(-0.309716 0.943334 -0.118673)
(-0.196059 0.953399 0.229145)
(-0.0495984 0.795459 0.603926)
(-0.105333 0.590215 0.800324)
(-0.373093 0.509628 0.775288)
(-0.949106 0.166428 0.267394)
(-0.994766 -0.0859713 0.0552136)
(-0.234167 -0.697037 -0.677721)
(0.3378 -0.702363 -0.62656)
(0.791907 -0.503987 -0.34479)
(0.984797 -0.148146 -0.090708)
(0.999646 -0.0210779 -0.0156941)
(0.996003 0.00511137 0.00358423)
(-0.100074 0.106417 0.103595)
(-0.0231946 0.00543341 0.00607086)
(0.000730803 -0.920726 -0.390179)
(0.000730864 -0.920811 -0.389981)
(0.000730927 -0.9209 -0.389789)
(0.000730979 -0.920988 -0.389588)
(0.000214445 -0.920891 -0.389817)
(-0.00477656 -0.919362 -0.393375)
(-0.0311714 -0.9118 -0.409428)
(-0.0534625 -0.906698 -0.418366)
(-0.0480664 -0.9117 -0.408032)
(-0.0261738 -0.917104 -0.397786)
(-0.00839264 -0.918929 -0.394333)
(0.00111927 -0.917855 -0.396914)
(0.00971244 -0.916556 -0.399788)
(0.0141606 -0.915408 -0.402279)
(0.00886092 -0.91698 -0.398834)
(0.00279488 -0.918058 -0.396436)
(0.00130155 -0.918053 -0.396454)
(0.00124069 -0.918009 -0.396557)
(0.00154711 -0.91814 -0.396253)
(0.00156706 -0.918359 -0.395744)
(0.00114334 -0.918381 -0.395694)
(0.000735575 -0.918561 -0.395278)
(0.000649866 -0.918994 -0.394271)
(0.000722783 -0.919902 -0.392146)
(0.000634834 -0.920615 -0.390468)
(-0.000473556 -0.918469 -0.395485)
(-0.0048522 -0.91144 -0.41139)
(-0.00804295 -0.906568 -0.421967)
(-0.0101502 -0.900864 -0.433968)
(-0.0122971 -0.897224 -0.441393)
(-0.0117818 -0.898696 -0.438404)
(-0.00846979 -0.903626 -0.428233)
(-0.00492813 -0.909708 -0.415216)
(-0.00252793 -0.915401 -0.402534)
(-0.00135502 -0.919118 -0.393978)
(-0.000985821 -0.920456 -0.390845)
(-0.00101675 -0.92051 -0.390717)
(-0.000974087 -0.920241 -0.391351)
(-0.000643592 -0.920131 -0.39161)
(-0.000159122 -0.920156 -0.391551)
(0.000268353 -0.920021 -0.391868)
(0.00103639 -0.919836 -0.392302)
(0.00302671 -0.919976 -0.391963)
(0.00626832 -0.92071 -0.390197)
(0.0081158 -0.921251 -0.388884)
(0.00522457 -0.921784 -0.387666)
(0.0015511 -0.922551 -0.38587)
(0.000741591 -0.92277 -0.385348)
(0.000901582 -0.924785 -0.380486)
(-0.0356956 -0.937005 -0.347481)
(-0.987522 -0.145932 -0.0591829)
(-0.986465 -0.162134 0.02447)
(-0.573877 -0.786891 -0.226866)
(0.427954 -0.83619 -0.34299)
(0.70629 -0.644215 -0.293497)
(0.948146 -0.286242 -0.138148)
(0.997837 -0.0586491 -0.0295543)
(0.999235 0.00489629 0.00256406)
(-0.345964 0.272 0.170569)
(-0.0781095 0.0208163 0.0142222)
(0.000674931 -0.97361 -0.228206)
(0.000674902 -0.973479 -0.228766)
(0.000674877 -0.973348 -0.229328)
(0.000505464 -0.973216 -0.229888)
(0.000347875 -0.973091 -0.23042)
(2.97807e-05 -0.973036 -0.230651)
(-0.00259646 -0.973331 -0.229387)
(-0.0284763 -0.977013 -0.211251)
(-0.0497904 -0.980914 -0.187945)
(-0.0310281 -0.979233 -0.200345)
(-0.0130207 -0.973229 -0.229466)
(-0.00386346 -0.968334 -0.249626)
(0.00216223 -0.966797 -0.255536)
(0.00717565 -0.967595 -0.252403)
(0.00799907 -0.971103 -0.238526)
(0.00295588 -0.972231 -0.234003)
(0.000492259 -0.972051 -0.234767)
(0.000313088 -0.971775 -0.235907)
(0.000426572 -0.97139 -0.237487)
(0.00054671 -0.971055 -0.238855)
(0.000811212 -0.970801 -0.239885)
(0.00135547 -0.970629 -0.240577)
(0.00207173 -0.970531 -0.240967)
(0.00239139 -0.970467 -0.24122)
(0.00172755 -0.970335 -0.241758)
(0.000723696 -0.970171 -0.242418)
(-0.00039492 -0.97001 -0.243062)
(-0.00409106 -0.96993 -0.243343)
(-0.00806219 -0.968976 -0.247014)
(-0.00911579 -0.967249 -0.253659)
(-0.00997827 -0.968877 -0.247336)
(-0.00848356 -0.970466 -0.241085)
(-0.00458461 -0.970686 -0.240307)
(-0.00141725 -0.970192 -0.242331)
(-6.149e-05 -0.969778 -0.24399)
(0.000280097 -0.969654 -0.24448)
(0.000303842 -0.969671 -0.244413)
(0.000356068 -0.969715 -0.244239)
(0.000470691 -0.969749 -0.244104)
(0.000494448 -0.969719 -0.244224)
(0.000636119 -0.969586 -0.24475)
(0.0012396 -0.969423 -0.245392)
(0.00217317 -0.969265 -0.246008)
(0.00259615 -0.969027 -0.246939)
(0.00208839 -0.968454 -0.249182)
(0.00106449 -0.96755 -0.252675)
(0.000638231 -0.967193 -0.254041)
(0.00181856 -0.967029 -0.25466)
(0.00475343 -0.967096 -0.254367)
(-0.0207909 -0.966998 -0.253932)
(-0.921501 -0.368792 -0.121771)
(-0.89718 -0.399031 -0.189324)
(-0.411034 -0.9094 -0.0635743)
(0.36176 -0.932191 0.0122235)
(0.631631 -0.773751 -0.0484924)
(0.931498 -0.362031 -0.035288)
(0.997695 -0.0673731 -0.00754033)
(0.999193 0.00574912 0.00107135)
(-0.332042 0.30867 0.0881629)
(-0.0867796 0.0242403 0.0077321)
(0.000240429 -0.981984 -0.188922)
(0.000240529 -0.981796 -0.189914)
(0.000240626 -0.981598 -0.190951)
(0.000240727 -0.981393 -0.192008)
(0.000216425 -0.981233 -0.192822)
(-7.61667e-05 -0.981254 -0.192717)
(-0.00612763 -0.984401 -0.175806)
(-0.0398503 -0.993626 -0.105353)
(-0.0393631 -0.987598 -0.151974)
(-0.0278383 -0.982248 -0.185507)
(-0.0157951 -0.979091 -0.202807)
(-0.00610811 -0.976198 -0.216795)
(0.00375341 -0.976639 -0.214855)
(0.0130282 -0.978019 -0.208108)
(0.0163484 -0.97983 -0.19916)
(0.00530086 -0.980378 -0.197052)
(7.43143e-05 -0.980289 -0.197566)
(-0.000412206 -0.980026 -0.198866)
(-0.000417682 -0.979528 -0.201304)
(-0.000165995 -0.979122 -0.203273)
(8.49755e-05 -0.978905 -0.204315)
(0.000400723 -0.978658 -0.205496)
(0.000737336 -0.978275 -0.20731)
(0.00072872 -0.977543 -0.210736)
(0.000392198 -0.976637 -0.214894)
(0.000142703 -0.976561 -0.215239)
(-0.000159148 -0.977156 -0.212519)
(-0.00511824 -0.97999 -0.198968)
(-0.068245 -0.99381 -0.0875155)
(-0.0475657 -0.968369 -0.244884)
(0.00771971 -0.96968 -0.24422)
(0.00327386 -0.984326 -0.176314)
(0.000429668 -0.982788 -0.18473)
(2.28078e-05 -0.979572 -0.20109)
(-5.16775e-06 -0.977528 -0.210806)
(-8.80465e-05 -0.976169 -0.217013)
(-0.000213142 -0.974485 -0.224454)
(-0.000155357 -0.97435 -0.225038)
(1.00576e-05 -0.974806 -0.223055)
(9.03484e-05 -0.975671 -0.21924)
(0.000193302 -0.975638 -0.219384)
(0.00053169 -0.975372 -0.220566)
(0.00110753 -0.974979 -0.222292)
(0.00155314 -0.974591 -0.223985)
(0.0015264 -0.97507 -0.221892)
(0.000618261 -0.976824 -0.21404)
(-0.000817975 -0.97966 -0.200657)
(0.00498932 -0.982173 -0.187902)
(0.0158863 -0.984485 -0.174726)
(-0.12365 -0.96468 -0.232583)
(-0.983626 -0.174036 -0.0468052)
(-0.926642 -0.361981 -0.101514)
(-0.395117 -0.819489 -0.415114)
(0.422218 -0.743258 -0.518942)
(0.740518 -0.585696 -0.329534)
(0.962186 -0.260727 -0.0788614)
(0.998102 -0.0614068 -0.00264116)
(0.99573 0.0199876 0.00470985)
(-0.259016 0.295305 0.0365685)
(-0.0924085 0.0247464 0.00188347)
(0.075496 0.93047 -0.289496)
(0.0160946 -0.818447 -0.566951)
(-0.00276334 -0.889133 -0.457303)
(-0.00118715 -0.890611 -0.454655)
(-0.002197 -0.881371 -0.472274)
(-0.00908712 -0.846341 -0.532274)
(-0.0117711 -0.873976 -0.485531)
(-0.061549 -0.914664 -0.39929)
(-0.178804 -0.898846 -0.400069)
(-0.283709 -0.855839 -0.432483)
(-0.167491 -0.864351 -0.474176)
(-0.0211602 -0.865633 -0.500232)
(0.00919909 -0.853289 -0.521357)
(0.016415 -0.844289 -0.535637)
(0.0195391 -0.833524 -0.552137)
(0.0159496 -0.833726 -0.551945)
(-0.00419682 -0.907479 -0.420036)
(-0.0120737 -0.930359 -0.36641)
(-0.0120536 -0.930071 -0.367159)
(-0.00635451 -0.927018 -0.374949)
(-0.00154772 -0.928484 -0.371354)
(-0.000332258 -0.929464 -0.368898)
(-0.011558 -0.927104 -0.374608)
(-0.0449004 -0.914462 -0.402149)
(-0.0158746 -0.859533 -0.510795)
(0.33618 -0.758638 -0.557964)
(0.469838 -0.783378 0.406511)
(-0.229925 -0.69315 0.682908)
(-0.697125 -0.344455 0.628673)
(-0.619585 -0.273831 0.735547)
(0.071226 -0.833765 -0.547437)
(0.147935 -0.63951 -0.754397)
(0.12081 -0.829948 -0.544572)
(0.0436836 -0.965785 -0.255565)
(-0.120388 -0.981626 -0.147916)
(-0.480736 -0.872096 -0.0911275)
(-0.561988 -0.826596 0.0291556)
(0.20777 -0.884427 -0.417803)
(0.371173 -0.588848 -0.71795)
(0.283259 -0.733289 -0.61807)
(-0.00647301 -0.995598 -0.0931743)
(-0.0271341 -0.971583 0.235009)
(0.060669 -0.987088 0.148067)
(0.130847 -0.990298 -0.0462123)
(0.0631895 -0.812863 -0.578979)
(-0.0188963 -0.653038 -0.757064)
(-0.0602092 -0.760396 -0.646624)
(0.0815761 -0.95884 -0.271816)
(0.445587 -0.887181 0.118644)
(-0.985868 0.162971 -0.0376948)
(-0.99991 -0.0122858 -0.00541307)
(-0.968083 -0.248034 -0.0359861)
(-0.609154 -0.747706 -0.264324)
(0.50586 -0.667939 -0.54586)
(0.943072 -0.168727 -0.286614)
(0.998553 -0.017404 -0.0508767)
(0.999987 -0.00186847 -0.00399175)
(0.998036 0.00293127 0.00175597)
(-0.378427 0.162375 0.00341691)
(-0.0739304 0.0142621 -0.000903582)
(-0.450975 0.797562 0.327961)
(-0.286863 -0.830541 0.467014)
(-0.0198729 -0.894628 0.446017)
(-0.011099 -0.939166 0.343136)
(-0.0242807 -0.99921 0.0291593)
(-0.0484243 -0.684607 -0.727188)
(-0.101559 -0.663661 -0.740994)
(-0.479125 -0.849215 -0.221558)
(-0.710506 -0.661346 0.24032)
(-0.618503 -0.701329 0.354377)
(-0.394059 -0.849365 0.351135)
(-0.143059 -0.956232 0.255253)
(-0.0356064 -0.998793 -0.0338305)
(0.0495156 -0.964955 -0.257701)
(0.143312 -0.851902 -0.50371)
(0.301809 -0.615843 -0.727769)
(0.487082 -0.659401 -0.572649)
(0.0193157 -0.91147 0.410878)
(-9.83962e-05 -0.904582 0.42628)
(-9.10051e-05 -0.911111 0.412148)
(-9.59056e-05 -0.921493 0.388381)
(-0.00173251 -0.924853 0.380306)
(-0.0116894 -0.92633 0.376516)
(-0.0500473 -0.920498 0.387505)
(-0.0700349 -0.865116 0.496621)
(0.2756 -0.670854 0.688376)
(0.783713 -0.516847 0.343884)
(0.129399 -0.810777 0.569691)
(-0.189344 -0.477732 0.857515)
(-0.509672 -0.378384 0.77264)
(-0.645191 -0.496124 0.580983)
(-0.0802356 -0.855878 0.510852)
(0.500727 -0.841547 0.202559)
(0.252431 -0.954419 0.159144)
(0.049943 -0.986402 0.156465)
(-0.00808302 -0.94403 0.329708)
(-0.145256 -0.721622 0.676857)
(-0.36788 -0.626065 0.687516)
(-0.241147 -0.676818 0.695498)
(0.533984 -0.842385 0.0720857)
(0.428986 -0.898574 0.0921578)
(0.116046 -0.969762 0.214598)
(-0.011113 -0.944865 0.327202)
(-0.273952 -0.933243 0.232292)
(-0.618764 -0.660209 -0.42566)
(-0.0141858 -0.376903 -0.926107)
(0.450272 -0.664785 -0.596036)
(0.382145 -0.86746 -0.318454)
(0.446319 -0.89468 -0.00595684)
(-0.981354 0.0981929 -0.164989)
(-0.995446 -0.0432083 -0.0849633)
(-0.91829 -0.338603 -0.205162)
(-0.533034 -0.68042 0.502895)
(0.3804 -0.48867 0.785173)
(0.888775 -0.146776 0.434207)
(0.996957 -0.0114586 0.0771075)
(0.999978 -0.00114612 0.00585911)
(0.998165 0.00312965 -0.000964378)
(-0.367058 0.163734 -0.0347325)
(-0.0700783 0.0140335 -0.00189143)
(-0.000107426 -0.982555 0.185955)
(-0.000107503 -0.982478 0.186358)
(-0.00134587 -0.983736 0.179607)
(-0.00118728 -0.984795 0.173716)
(-0.00102726 -0.987569 0.15718)
(-0.00070808 -0.993496 0.113865)
(0.000838877 -0.999192 0.0401752)
(0.0110629 -0.809468 -0.58705)
(-0.559235 0.823911 -0.0907562)
(-0.84287 0.389522 0.371247)
(-0.949887 -0.093206 0.29837)
(-0.517847 -0.820144 0.243307)
(-0.0878897 -0.983285 0.159455)
(0.0111361 -0.996962 0.0770925)
(0.0878311 -0.996084 0.0100842)
(0.20959 -0.970179 -0.121759)
(0.222835 -0.974831 0.00700809)
(0.0165984 -0.982822 0.183807)
(-0.000797331 -0.982303 0.187295)
(-0.00104628 -0.982149 0.188101)
(-0.000651352 -0.982056 0.188587)
(-0.000178325 -0.98199 0.188931)
(1.92138e-05 -0.981897 0.189417)
(0.00025014 -0.981685 0.190509)
(0.000581982 -0.981203 0.192975)
(0.000525866 -0.981015 0.193928)
(-1.01959e-05 -0.981295 0.192508)
(-0.000833167 -0.981948 0.189142)
(-0.0191961 -0.998348 -0.0539506)
(-0.109863 -0.695819 -0.70973)
(-0.103985 -0.993713 -0.0410335)
(-0.0102966 -0.946981 0.321111)
(0.000599752 -0.976432 0.215818)
(0.00013424 -0.981427 0.191831)
(-0.000264259 -0.981493 0.191498)
(-0.000345582 -0.981376 0.192095)
(-0.000382693 -0.981443 0.191753)
(-0.000640483 -0.981079 0.193603)
(-0.000846075 -0.981455 0.19169)
(-0.000318116 -0.981951 0.189133)
(0.000508129 -0.981989 0.188935)
(0.00103981 -0.981691 0.190476)
(0.000555221 -0.981733 0.19026)
(-0.00254766 -0.982152 0.188072)
(-0.00694768 -0.981424 0.191722)
(-0.00410151 -0.979635 0.200741)
(0.0130242 -0.98374 0.179116)
(0.0540411 -0.989611 0.133199)
(0.0514705 -0.978229 0.201016)
(-0.581183 -0.796332 0.167553)
(-0.984798 -0.17115 -0.0296692)
(-0.679942 -0.634151 -0.368145)
(-0.139534 -0.843086 0.519361)
(0.327637 -0.557623 0.762699)
(0.633351 -0.357456 0.686361)
(0.947066 -0.177813 0.267298)
(0.997568 -0.061279 0.0326809)
(0.535605 0.537989 -0.207717)
(-0.34892 0.223173 -0.0718352)
(-0.0780694 0.0221422 -0.00553403)
(-0.000181132 -0.975761 0.218781)
(-0.0107094 -0.975783 0.218457)
(-0.0217564 -0.977459 0.209993)
(-0.032415 -0.980098 0.195846)
(-0.0282909 -0.978625 0.203698)
(-0.00724013 -0.977327 0.211611)
(0.0065217 -0.976828 0.213924)
(0.012062 -0.976584 0.214798)
(0.00811007 -0.976421 0.215724)
(-0.0153903 -0.977285 0.211369)
(-0.251315 -0.951664 0.176562)
(-0.699093 -0.626969 0.343769)
(-0.386075 -0.70796 0.591387)
(-0.0615343 -0.935913 0.346816)
(0.0428385 -0.958354 0.282351)
(0.143955 -0.961919 0.232356)
(0.400578 -0.895676 0.193133)
(0.410084 -0.892843 0.186172)
(0.00485946 -0.979184 0.202906)
(-0.000444637 -0.978164 0.207829)
(0.000203646 -0.977505 0.210909)
(0.00031053 -0.977451 0.211159)
(0.000567944 -0.97735 0.211626)
(0.00117762 -0.977129 0.212643)
(0.00110083 -0.977418 0.211308)
(0.000142308 -0.979431 0.201773)
(-0.00533844 -0.99153 0.129747)
(-0.186576 -0.881339 -0.434049)
(-0.384835 -0.0232495 -0.922667)
(-0.227678 0.18004 -0.956912)
(0.53428 0.75474 -0.380363)
(0.680106 -0.380481 0.626551)