/*--------------------------------*- C++ -*----------------------------------*\
| =========                 |                                                 |
| \\      /  F ield         | OpenFOAM: The Open Source CFD Toolbox           |
|  \\    /   O peration     | Version:  2.1.1                                 |
|   \\  /    A nd           | Web:      www.OpenFOAM.org                      |
|    \\/     M anipulation  |                                                 |
\*---------------------------------------------------------------------------*/
FoamFile
{
    version     2.0;
    format      ascii;
    class       volVectorField;
    location    "0.00125";
    object      grad1Alpha;
}
// * * * * * * * * * * * * * * * * * * * * * * * * * * * * * * * * * * * * * //

dimensions      [0 -1 0 0 0 0 0];

internalField   nonuniform List<vector> 
36520
(
(2.1733e-09 -1.67604e-09 -5.5659e-09)
(2.09113e-09 -1.352e-09 -6.61209e-09)
(-1.66936e-10 -1.99869e-09 -7.65113e-09)
(-2.30476e-10 -2.72831e-09 -9.06189e-09)
(-3.24299e-10 -3.76861e-09 -1.06709e-08)
(-3.76735e-10 -4.9323e-09 -1.20905e-08)
(-4.173e-10 -6.11745e-09 -1.34089e-08)
(-4.6797e-10 -7.42749e-09 -1.49323e-08)
(-5.34133e-10 -8.92787e-09 -1.69982e-08)
(-6.18937e-10 -1.06731e-08 -1.96895e-08)
(-6.89533e-10 -1.26724e-08 -2.30329e-08)
(-7.43715e-10 -1.46847e-08 -2.64676e-08)
(-6.18221e-10 -1.67463e-08 -2.97078e-08)
(-2.49124e-10 -1.7528e-08 -3.26458e-08)
(2.2826e-11 -1.71943e-08 -3.58855e-08)
(-5.77514e-11 -1.66946e-08 -4.00085e-08)
(-4.25538e-10 -1.70286e-08 -4.55508e-08)
(-9.39323e-10 -1.86645e-08 -5.25816e-08)
(-1.48473e-09 -2.16906e-08 -6.08518e-08)
(-1.99919e-09 -2.59354e-08 -6.99676e-08)
(-2.4266e-09 -3.1248e-08 -7.88175e-08)
(-2.76184e-09 -3.74816e-08 -8.69703e-08)
(-3.05361e-09 -4.44402e-08 -9.31852e-08)
(-3.22724e-09 -5.17909e-08 -9.63015e-08)
(-3.19703e-09 -5.91012e-08 -9.51495e-08)
(-2.98119e-09 -6.59196e-08 -8.9364e-08)
(-2.73591e-09 -7.18176e-08 -7.88455e-08)
(-2.72623e-09 -7.67023e-08 -6.43539e-08)
(-3.34176e-09 -8.1237e-08 -4.72784e-08)
(-4.96477e-09 -8.72613e-08 -2.96452e-08)
(-7.72967e-09 -9.76901e-08 -1.36831e-08)
(-1.13308e-08 -1.15486e-07 1.99795e-10)
(-1.5013e-08 -1.4234e-07 1.30516e-08)
(-1.77552e-08 -1.77734e-07 2.64562e-08)
(-1.86054e-08 -2.18756e-07 4.09155e-08)
(-1.69751e-08 -2.60554e-07 5.53896e-08)
(-1.26781e-08 -2.97079e-07 6.80353e-08)
(-6.12468e-09 -3.21111e-07 7.72419e-08)
(1.85061e-09 -3.26181e-07 8.23586e-08)
(1.08018e-08 -3.07236e-07 8.33848e-08)
(2.11911e-08 -2.59621e-07 8.0044e-08)
(3.25385e-08 -1.7899e-07 7.21601e-08)
(3.93015e-08 -7.23096e-08 6.58515e-08)
(3.1814e-08 3.37024e-08 1.64148e-07)
(3.76896e-08 5.05296e-07 3.12192e-06)
(1.01469e-07 2.77553e-06 1.70477e-05)
(1.65797e-07 8.84123e-06 6.08148e-05)
(1.43517e-07 2.23521e-05 0.000174751)
(5.73726e-08 4.30613e-05 0.00036725)
(-1.18909e-07 6.06946e-05 0.000539841)
(-1.98494e-07 6.37438e-05 0.00059524)
(-1.16045e-07 2.09954e-05 0.000197272)
(-1.0229e-07 2.19578e-06 2.22769e-05)
(-7.01664e-08 -2.42926e-07 9.6975e-08)
(5.24225e-08 -2.2437e-07 -1.12013e-06)
(6.98057e-08 -4.31788e-08 -2.18267e-07)
(1.07005e-08 -3.39175e-09 -1.89655e-08)
(5.62443e-10 -1.04412e-10 -6.23067e-10)
(1.20021e-11 -1.52945e-12 -9.4144e-12)
(1.33659e-13 -1.35759e-14 -8.46015e-14)
(1.67703e-09 -1.07953e-08 -1.76704e-08)
(1.09964e-09 -1.36857e-08 -1.83482e-08)
(-1.33484e-09 -1.6858e-08 -1.98706e-08)
(-1.66996e-09 -2.10819e-08 -2.16898e-08)
(-1.76725e-09 -2.53471e-08 -2.29388e-08)
(-1.6806e-09 -2.91932e-08 -2.32006e-08)
(-1.77051e-09 -3.28299e-08 -2.29101e-08)
(-2.17762e-09 -3.7229e-08 -2.26358e-08)
(-2.80085e-09 -4.34091e-08 -2.28942e-08)
(-3.49492e-09 -5.16693e-08 -2.34391e-08)
(-3.91996e-09 -6.17669e-08 -2.45044e-08)
(-3.92458e-09 -7.17958e-08 -2.54901e-08)
(-3.56349e-09 -8.07261e-08 -2.67419e-08)
(-3.19731e-09 -8.47641e-08 -2.6101e-08)
(-3.49268e-09 -8.78467e-08 -2.45718e-08)
(-4.67144e-09 -9.44722e-08 -2.37352e-08)
(-6.4243e-09 -1.05393e-07 -2.33683e-08)
(-8.23648e-09 -1.21318e-07 -2.3539e-08)
(-9.77335e-09 -1.42141e-07 -2.41932e-08)
(-1.0561e-08 -1.66206e-07 -2.51379e-08)
(-1.05253e-08 -1.92235e-07 -2.52426e-08)
(-9.59951e-09 -2.19012e-07 -2.43699e-08)
(-7.48467e-09 -2.45144e-07 -2.19935e-08)
(-4.14037e-09 -2.69027e-07 -1.73964e-08)
(1.39097e-10 -2.88471e-07 -9.78899e-09)
(4.82451e-09 -3.01512e-07 8.62002e-10)
(9.22297e-09 -3.07115e-07 1.5009e-08)
(1.236e-08 -3.06638e-07 3.17238e-08)
(1.32441e-08 -3.04513e-07 4.50623e-08)
(1.10951e-08 -3.07124e-07 4.97475e-08)
(6.55278e-09 -3.16457e-07 5.6366e-08)
(1.48556e-09 -3.31495e-07 6.66143e-08)
(-2.40505e-09 -3.46412e-07 8.09006e-08)
(-4.36432e-09 -3.54377e-07 9.86175e-08)
(-4.69753e-09 -3.52013e-07 1.18118e-07)
(-3.93931e-09 -3.40564e-07 1.37042e-07)
(-2.17851e-09 -3.2259e-07 1.52689e-07)
(7.43005e-10 -2.96021e-07 1.6221e-07)
(4.76176e-09 -2.56218e-07 1.63544e-07)
(9.61311e-09 -1.99088e-07 1.55516e-07)
(1.56781e-08 -1.24707e-07 1.37128e-07)
(2.55455e-08 -2.73493e-08 1.76907e-07)
(8.29762e-08 3.44237e-07 1.65967e-06)
(1.48943e-06 3.46524e-06 9.85197e-06)
(8.09098e-06 2.7046e-05 7.78242e-05)
(2.76248e-05 0.000156377 0.000526355)
(7.54186e-05 0.00069313 0.0025159)
(0.000146433 0.00245502 0.00939002)
(0.000174567 0.00661789 0.0266059)
(0.00010937 0.0124644 0.0520054)
(-0.000162609 0.0158159 0.0672324)
(-0.000272936 0.00707139 0.0306647)
(-9.40613e-05 0.0011994 0.00534517)
(-1.12263e-05 3.09142e-05 0.000160478)
(-9.81986e-08 -1.38154e-06 -4.96212e-06)
(5.94905e-07 -4.39089e-07 -1.05439e-06)
(1.14479e-07 -5.5407e-08 -1.58933e-07)
(9.60109e-09 -2.5381e-09 -7.7528e-09)
(3.09046e-10 -5.00949e-11 -1.55528e-10)
(4.58208e-12 -5.4673e-13 -1.70248e-12)
(1.78543e-09 -2.93252e-08 -1.99063e-08)
(9.38657e-10 -3.26203e-08 -1.53377e-08)
(-1.84947e-09 -3.84667e-08 -1.36444e-08)
(-1.79645e-09 -4.58144e-08 -1.16613e-08)
(-1.14705e-09 -5.22265e-08 -9.09092e-09)
(-4.61881e-10 -5.81041e-08 -6.21657e-09)
(-2.55015e-10 -6.44961e-08 -3.54441e-09)
(-5.97588e-10 -7.28203e-08 8.36714e-11)
(-1.10093e-09 -8.52122e-08 6.60724e-09)
(-1.61769e-09 -1.02419e-07 1.5812e-08)
(-1.91868e-09 -1.24183e-07 2.71461e-08)
(-2.04472e-09 -1.43366e-07 4.03351e-08)
(-1.0733e-09 -1.58461e-07 4.63351e-08)
(6.81232e-10 -1.43303e-07 4.85698e-08)
(1.00606e-09 -1.186e-07 5.2876e-08)
(2.72643e-10 -1.25518e-07 6.42647e-08)
(-6.90488e-10 -1.43785e-07 7.05482e-08)
(-1.81243e-09 -1.6201e-07 7.65754e-08)
(-2.82477e-09 -1.76677e-07 8.98377e-08)
(-3.14106e-09 -1.86637e-07 1.15997e-07)
(-2.73678e-09 -1.93159e-07 1.47013e-07)
(-1.89039e-09 -1.97635e-07 1.78287e-07)
(-3.72581e-10 -2.01559e-07 1.97149e-07)
(2.02359e-09 -2.04136e-07 1.97724e-07)
(5.06255e-09 -1.97111e-07 2.06168e-07)
(8.55559e-09 -5.26491e-08 7.00038e-07)
(1.18647e-08 5.55194e-07 2.86687e-06)
(1.16211e-08 1.29875e-06 5.57114e-06)
(5.32721e-09 2.25014e-06 9.15029e-06)
(4.62011e-10 3.67621e-06 1.45389e-05)
(2.92833e-10 5.66666e-06 2.20489e-05)
(4.1853e-10 8.21092e-06 3.16526e-05)
(5.45767e-10 1.07755e-05 4.13711e-05)
(6.32758e-10 1.25057e-05 4.80127e-05)
(6.62855e-10 1.30686e-05 5.03121e-05)
(6.02946e-10 1.17772e-05 4.57287e-05)
(5.43023e-10 1.04951e-05 4.11591e-05)
(4.90727e-10 9.38363e-06 3.71953e-05)
(4.48798e-10 8.51161e-06 3.40593e-05)
(4.09516e-10 7.70392e-06 3.11361e-05)
(3.37549e-08 6.97559e-06 2.86431e-05)
(7.57636e-07 6.46479e-06 2.7696e-05)
(4.65756e-06 7.38267e-06 3.34496e-05)
(3.6367e-05 2.38009e-05 6.42678e-05)
(0.000245975 0.000117606 0.000228818)
(0.00116009 0.000695837 0.00119865)
(0.00421537 0.0043799 0.00684878)
(0.0114516 0.0237415 0.03546)
(0.0202509 0.0915315 0.140754)
(0.0193018 0.253573 0.433414)
(-0.0101421 0.40136 0.759757)
(-0.0294046 0.298985 0.594536)
(-0.0144923 0.0856004 0.152594)
(-0.00254147 0.00692046 0.00986209)
(-7.661e-05 -3.71407e-06 -1.53688e-05)
(2.3541e-06 -2.17175e-06 -2.99244e-06)
(5.10559e-07 -4.25948e-07 -7.82215e-07)
(7.62448e-08 -2.79284e-08 -5.90939e-08)
(3.70438e-09 -7.47256e-10 -1.62187e-09)
(7.3401e-11 -1.00595e-11 -2.19535e-11)
(3.64621e-09 -3.81017e-08 -3.5186e-09)
(3.66021e-09 -4.81837e-08 5.0996e-09)
(-4.95935e-11 -6.12693e-08 1.45301e-08)
(3.77953e-11 -8.16202e-08 2.9219e-08)
(4.27942e-10 -1.11337e-07 3.58753e-08)
(5.7602e-10 -1.4257e-07 3.98584e-08)
(7.70461e-10 -1.69092e-07 4.2862e-08)
(1.97727e-09 -1.90956e-07 6.03942e-08)
(3.68461e-09 -2.26515e-07 8.64141e-08)
(4.95501e-09 -2.78081e-07 1.06751e-07)
(6.3362e-09 -3.46435e-07 1.20147e-07)
(4.04207e-09 -3.02982e-07 4.84476e-07)
(4.31396e-10 -1.45722e-07 1.14329e-06)
(1.34824e-09 2.42616e-07 2.33803e-06)
(4.56842e-09 1.18501e-06 4.8735e-06)
(2.90935e-09 2.42083e-06 8.71479e-06)
(-1.60837e-09 4.05388e-06 1.42893e-05)
(8.13873e-11 6.37652e-06 2.21724e-05)
(8.32352e-09 9.56585e-06 3.3034e-05)
(1.61888e-08 1.38766e-05 4.74265e-05)
(1.89084e-08 1.96989e-05 6.67819e-05)
(1.44058e-08 2.74889e-05 9.29028e-05)
(2.46109e-09 3.77224e-05 0.000127265)
(1.56974e-09 5.02596e-05 0.00016927)
(2.40564e-07 6.35964e-05 0.000214296)
(1.26924e-06 7.71475e-05 0.000260691)
(2.32172e-06 9.34113e-05 0.000317573)
(2.99371e-06 0.000117255 0.000400079)
(4.26667e-06 0.00015449 0.000526752)
(6.12865e-06 0.000215813 0.000732173)
(8.12402e-06 0.000312323 0.00105263)
(9.16875e-06 0.000442461 0.00148269)
(7.76443e-06 0.00057416 0.00191759)
(4.2487e-06 0.00064891 0.00216698)
(-1.07147e-06 0.000622024 0.00208694)
(-4.32768e-06 0.000534298 0.00180503)
(-4.03409e-06 0.000440943 0.00149586)
(-3.35315e-06 0.000358887 0.00121965)
(-2.85717e-06 0.000287333 0.000972894)
(-2.54887e-06 0.000220582 0.000732998)
(-1.60884e-06 0.000171061 0.000538786)
(2.30848e-06 0.000141868 0.000410686)
(1.78031e-05 0.000140764 0.000343994)
(9.66087e-05 0.000236669 0.000421267)
(0.000560282 0.000778963 0.000800308)
(0.00325482 0.0038592 0.0020464)
(0.0167874 0.0166835 0.00847732)
(0.0653251 0.069525 0.044912)
(0.192877 0.352559 0.200943)
(0.298208 1.60891 0.827912)
(0.0762035 3.4548 2.22277)
(-0.29318 3.56076 2.42826)
(-0.281774 1.93557 1.38153)
(-0.0738606 0.349581 0.331887)
(-0.00482182 0.0193023 0.0557981)
(7.4671e-06 0.000351826 0.00112991)
(1.54695e-06 -2.11717e-06 -2.53329e-06)
(3.86478e-07 -1.94487e-07 -3.14578e-07)
(2.86935e-08 -7.29536e-09 -1.24118e-08)
(7.72847e-10 -1.22357e-10 -2.11003e-10)
(5.24299e-09 -5.42387e-08 2.22558e-08)
(8.16271e-09 -1.07582e-07 3.73569e-08)
(7.78831e-09 -1.98511e-07 8.43695e-08)
(5.77358e-09 -3.14391e-07 2.72719e-07)
(9.19646e-10 -4.43874e-07 4.83882e-07)
(2.85587e-11 -5.69958e-07 7.47468e-07)
(6.935e-09 -7.14997e-07 1.00538e-06)
(1.70698e-08 -9.27268e-07 1.25762e-06)
(1.69097e-08 -1.53912e-06 4.70829e-07)
(9.55885e-09 -2.30609e-06 2.64166e-08)
(1.73937e-07 3.91651e-06 2.21782e-05)
(4.84597e-07 2.80681e-05 9.98699e-05)
(8.87786e-07 5.99867e-05 0.000201782)
(1.79758e-06 3.84173e-05 0.000143906)
(3.06595e-06 3.42958e-05 0.000141832)
(4.50772e-06 6.58099e-05 0.000241633)
(6.43296e-06 0.000106167 0.000369422)
(8.95747e-06 0.000162149 0.000551752)
(1.20695e-05 0.000241854 0.00080473)
(1.61336e-05 0.00033582 0.00110146)
(2.17392e-05 0.00043776 0.0014278)
(2.89119e-05 0.000567047 0.00184628)
(3.65124e-05 0.000787306 0.00255158)
(4.16193e-05 0.00116255 0.00373665)
(4.37138e-05 0.00165117 0.00526564)
(4.93404e-05 0.00211191 0.0067055)
(6.65608e-05 0.00244037 0.00773998)
(9.99091e-05 0.00265011 0.00841283)
(0.000158638 0.00290048 0.00921915)
(0.000251223 0.00328778 0.0104642)
(0.000358575 0.00381931 0.0121856)
(0.000413301 0.00454566 0.0145365)
(0.000327032 0.0053682 0.0171678)
(8.10033e-05 0.00595134 0.0189954)
(-0.000172812 0.0059926 0.0190502)
(-0.000282229 0.0057698 0.0184038)
(-0.000279493 0.00559528 0.0177849)
(-0.000249614 0.00530458 0.0169404)
(-0.000232099 0.0050431 0.0161819)
(-0.000206711 0.00521128 0.0165919)
(-0.000153062 0.00561514 0.0175826)
(-9.07307e-05 0.00570351 0.0174943)
(1.49325e-05 0.00529851 0.0158317)
(0.000280177 0.00464523 0.013079)
(0.00117165 0.00617578 0.0152056)
(0.00543664 0.0121995 0.0242676)
(0.0269367 0.0357369 0.0553395)
(0.115814 0.143883 0.156746)
(0.45547 0.831973 0.612206)
(1.10367 5.60824 2.24762)
(0.825789 20.9201 6.95311)
(-0.48954 25.6982 18.3338)
(-1.1401 19.9705 20.865)
(-0.71028 8.21195 15.8227)
(-0.170395 1.59126 4.77674)
(-0.0267598 0.0632304 0.192463)
(-0.000539644 -7.29674e-06 -5.66842e-06)
(1.341e-06 -8.86812e-07 -1.06557e-06)
(1.58322e-07 -5.22664e-08 -7.39156e-08)
(6.06087e-09 -1.11876e-09 -1.63517e-09)
(7.30891e-09 -4.66119e-08 1.79493e-07)
(2.37292e-08 5.58031e-07 2.90848e-06)
(9.86111e-08 1.23091e-06 6.83775e-06)
(1.77028e-07 7.43162e-08 7.39462e-06)
(2.19254e-07 -4.05038e-06 7.78349e-07)
(2.50518e-07 -3.73928e-06 1.10094e-05)
(2.53978e-07 3.11064e-06 4.39072e-05)
(-2.42817e-07 3.52153e-05 0.000165052)
(-5.73646e-07 0.000168309 0.000622739)
(1.05725e-05 0.000645777 0.0022144)
(4.85526e-05 0.00188643 0.00630311)
(8.72002e-05 0.00608061 0.0121617)
(2.10015e-05 0.0116415 0.0174953)
(-2.94776e-05 0.00697088 0.01397)
(4.74888e-05 0.00118061 0.00436051)
(0.000110797 0.000937213 0.00342057)
(0.000150783 0.00148685 0.00486163)
(0.000211567 0.00203162 0.00632254)
(0.000267255 0.00261088 0.00777468)
(0.000302856 0.00314776 0.00890176)
(0.000361832 0.00357525 0.00981536)
(0.000545855 0.00391181 0.0106209)
(0.000918515 0.0043497 0.0117233)
(0.0013193 0.00513788 0.0137458)
(0.00144388 0.00625905 0.0166963)
(0.0012046 0.00729306 0.0195473)
(0.00083237 0.00863117 0.0233624)
(0.000721503 0.0114639 0.0312543)
(0.00100006 0.0141118 0.0377468)
(0.00144513 0.0156754 0.0402727)
(0.0019827 0.0175695 0.04379)
(0.00242561 0.0196357 0.048786)
(0.00217285 0.0217743 0.0538959)
(0.000923706 0.0250307 0.059018)
(-0.000281466 0.026032 0.0587204)
(-0.000615486 0.0254368 0.0565626)
(-0.000715095 0.0279114 0.0580117)
(-0.000784245 0.028367 0.0558927)
(-0.00017146 0.0262001 0.0488289)
(0.000684441 0.0243849 0.0444562)
(0.000448325 0.0256248 0.0465272)
(-0.00083369 0.0322666 0.0627152)
(-0.0021022 0.0452691 0.110536)
(-0.000132307 0.068016 0.18861)
(0.00623854 0.0966941 0.27112)
(0.0236171 0.111261 0.326145)
(0.085438 0.153717 0.452511)
(0.368471 0.32304 0.865604)
(1.48454 0.713672 1.60642)
(4.45151 5.93681 3.67586)
(8.78941 65.5674 26.2373)
(6.15699 153.701 138.809)
(-2.49327 153.017 230.56)
(-8.6902 84.6715 185.903)
(-7.79186 19.4268 55.2411)
(-2.32485 0.776262 2.43175)
(-0.0936257 0.000489685 0.00163613)
(3.40094e-06 -1.89006e-06 1.86652e-07)
(5.75174e-07 -2.86139e-07 -3.34762e-07)
(3.74665e-08 -8.06412e-09 -9.85108e-09)
(1.36463e-06 6.86013e-07 3.37635e-06)
(3.32767e-06 6.15431e-07 7.40573e-06)
(2.23702e-06 -4.58374e-06 3.61968e-06)
(-3.04369e-06 -2.09138e-05 6.26178e-07)
(1.79152e-06 0.000389631 0.00179887)
(2.15524e-05 0.00129948 0.00377903)
(7.70693e-05 0.00232513 0.00522898)
(0.000289756 0.00457084 0.00929707)
(0.00102587 0.0126994 0.0213585)
(0.002842 0.0477822 0.046115)
(0.00515025 0.21671 0.0617969)
(0.00604359 0.789441 0.0037858)
(0.000881557 1.30662 -0.065179)
(-0.00709155 1.07692 -0.0457427)
(-0.00549798 0.334862 0.00474454)
(0.000265361 0.0191208 0.017007)
(0.00147182 0.00428286 0.0193877)
(0.00147917 0.00546432 0.0233921)
(0.00131995 0.00654587 0.0263509)
(0.00105447 0.00783942 0.028953)
(0.000889618 0.00973976 0.0321612)
(0.000979186 0.0117628 0.0361672)
(0.00158365 0.0138021 0.0392744)
(0.00250358 0.015802 0.0394432)
(0.00291516 0.0176331 0.0381628)
(0.00336318 0.0218287 0.0386302)
(0.0059414 0.0285006 0.042604)
(0.00735674 0.0320699 0.0518588)
(0.00474615 0.0323098 0.0658479)
(0.00334854 0.0295019 0.0829713)
(0.00466684 0.0266206 0.0989335)
(0.00550975 0.0342126 0.112444)
(0.00560807 0.107134 0.125581)
(0.0027417 0.242022 0.173697)
(-0.00126069 0.271614 0.302824)
(-0.000466158 0.263348 0.353194)
(-0.000383822 0.127962 0.350784)
(-0.00475358 0.0630228 0.303536)
(-0.006005 0.0682586 0.269554)
(-0.00140386 0.100954 0.264704)
(0.00911039 0.0871616 0.265593)
(0.0319818 0.0580909 0.258015)
(0.0629724 0.065114 0.228669)
(0.0809966 0.153377 0.179324)
(0.0701911 0.175681 0.176612)
(0.0963256 0.170739 0.271733)
(0.299749 0.100852 0.433911)
(0.700518 -0.191381 0.422492)
(2.16464 -1.18471 -0.0121619)
(17.5317 -3.70494 -1.60778)
(76.0574 2.27071 -3.21629)
(103.419 243.052 158.297)
(16.3061 649.877 918.745)
(-94.1236 448.862 731.245)
(-93.7921 91.4135 154.705)
(-27.7751 3.32136 5.69449)
(-1.21635 0.00492798 0.0125427)
(-0.000817438 -3.02114e-06 -4.78894e-06)
(1.79674e-07 -1.10476e-06 -1.06257e-06)
(1.8035e-07 -4.13414e-08 -4.1408e-08)
(1.99914e-06 -4.57307e-07 1.03456e-07)
(-2.13312e-07 -4.70226e-06 -2.00296e-06)
(-3.77142e-06 -2.1542e-05 -5.67775e-06)
(0.000927117 0.0731165 -0.0179331)
(0.00194164 0.299078 -0.0735112)
(0.00182287 0.298072 -0.0508643)
(0.00307141 0.124713 0.0477952)
(0.00916137 0.0371194 0.202441)
(0.0227516 0.0987637 0.576047)
(0.0398261 0.415604 1.69002)
(0.0489168 1.82758 3.77121)
(0.0374415 7.27783 3.52963)
(-0.00324533 15.7938 0.0048473)
(-0.0630599 15.3698 -2.41055)
(-0.0724906 8.28865 -1.59508)
(-0.0248092 1.37791 -0.00994961)
(0.00193507 0.0771844 0.282356)
(0.00382576 0.0416595 0.269948)
(0.00319208 0.0322785 0.234871)
(0.00346897 0.0148131 0.178245)
(0.00435415 0.00524871 0.134581)
(0.00452353 0.00430543 0.127631)
(0.00289309 0.00346146 0.132762)
(0.000932106 0.00632365 0.132175)
(0.00135046 0.0171968 0.124334)
(0.00419446 0.0299802 0.124797)
(0.00799046 0.0399105 0.136108)
(0.0122416 0.0494605 0.157874)
(0.0161997 0.0606598 0.19033)
(0.0175202 0.0731745 0.240002)
(0.0171479 0.0777982 0.312798)
(0.0234853 0.0729467 0.405584)
(0.0532993 0.0678692 0.511065)
(0.107484 0.0572117 0.627624)
(0.0941881 0.0444183 0.765721)
(0.0107597 0.0445801 0.919353)
(-0.0449109 0.0557942 1.08431)
(-0.0474688 0.0715798 1.25659)
(-0.0159405 0.0812184 1.41845)
(0.000497023 0.0743737 1.53617)
(-0.00785735 0.0277772 1.60704)
(-0.0246741 -0.0370256 1.62685)
(-0.0387498 -0.0820186 1.50235)
(-0.0226847 -0.155859 1.13596)
(0.0511073 -0.273378 0.54802)
(0.146444 -0.446039 0.0561124)
(0.126167 -0.613526 -0.147458)
(0.046264 -0.741983 -0.563325)
(0.179623 -1.00649 -1.36479)
(2.03876 -2.78485 -4.23654)
(107.555 -18.8599 -30.3017)
(530.084 45.8118 -29.4219)
(308.111 917.144 891.728)
(-444.946 925.144 825.298)
(-413.129 262.924 179.873)
(-87.5964 13.1774 8.06836)
(-3.20607 0.0676012 0.0503343)
(-0.0068032 -3.49132e-05 -2.44821e-05)
(3.312e-06 -3.52193e-06 -3.42856e-06)
(6.46051e-07 -1.51339e-07 -1.69095e-07)
(-0.00174087 2.1933 0.929459)
(-0.00194515 2.45068 1.03791)
(-0.00490221 6.17632 2.61425)
(-0.0168078 21.1768 8.958)
(-0.00481693 20.6853 8.7562)
(0.0349179 6.72077 2.87567)
(0.0945109 2.76455 1.24137)
(0.263645 4.47129 2.06313)
(0.798367 15.143 6.77728)
(1.81005 63.4224 27.5089)
(1.68913 184.947 79.3649)
(-0.288387 236.491 102.267)
(-2.13052 201.055 87.6973)
(-1.88675 121.968 53.5994)
(-0.655517 67.8368 29.5051)
(-0.157413 51.7069 22.3281)
(-0.0717359 50.599 21.8508)
(-0.0699852 51.7833 22.3691)
(-0.0932568 55.3436 23.8853)
(-0.101149 59.2772 25.5441)
(-0.0737372 59.2289 25.5194)
(-0.0449557 56.1391 24.158)
(-0.0348045 49.218 21.1157)
(-0.0303155 38.5832 16.4477)
(-0.0163761 23.7481 10.0725)
(0.0048116 9.33217 4.01836)
(0.0216064 4.05857 1.83189)
(0.0339827 3.83039 1.78287)
(0.0460125 4.08374 1.96724)
(0.064296 4.69117 2.30784)
(0.0846995 6.46072 3.15168)
(0.0986314 10.5228 4.98681)
(0.102748 18.9667 8.65694)
(0.0991224 35.8937 15.7837)
(0.0937863 63.6157 27.2687)
(0.0953871 89.0624 37.8178)
(0.105673 95.6703 40.6079)
(0.101329 95.7277 40.7101)
(0.0671221 95.9632 40.8422)
(0.0165541 95.7278 40.7347)
(-0.0271687 93.145 39.6736)
(-0.098237 87.189 37.1854)
(-0.259619 78.9117 33.621)
(-0.480213 70.5352 29.8928)
(-0.554306 62.9211 26.5606)
(-0.327277 57.7424 24.2842)
(-0.0890356 52.956 22.1496)
(-0.0360938 44.9119 18.7552)
(-0.0287553 29.4954 12.1353)
(0.515149 13.5226 5.01474)
(64.1531 9.48031 3.84474)
(676.602 111.205 -16.7836)
(560.662 768.77 221.641)
(-525.227 1026.26 420.951)
(-618.481 564.123 257.008)
(-152.401 46.0094 22.2055)
(-7.04937 0.414336 0.208791)
(-0.036225 -0.000177503 -9.2954e-05)
(1.78014e-05 -1.39956e-05 -8.77654e-06)
(2.31189e-06 -6.16121e-07 -4.20949e-07)
(-0.00856581 12.3565 2.89625)
(-0.00961809 13.8731 3.26017)
(-0.0140679 20.2896 4.78037)
(-0.0240289 46.2651 10.9285)
(-0.0269066 75.2644 17.822)
(-0.00200889 65.6371 15.5588)
(0.0766389 28.7295 6.77074)
(0.219512 7.5314 1.62845)
(0.450222 8.86977 1.69946)
(0.825826 26.0627 5.33225)
(1.31316 98.1523 23.1421)
(0.89112 223.35 57.5771)
(-0.566556 253.324 66.9566)
(-1.64774 222.189 57.9593)
(-1.27386 154.649 37.9856)
(-0.352633 115.986 27.9163)
(-0.0581809 114.888 27.7475)
(-0.0398417 123.662 30.02)
(-0.0651617 148.386 36.2778)
(-0.0929196 165.042 40.5961)
(-0.137043 164.003 40.5252)
(-0.217051 155.426 38.5234)
(-0.306699 143.677 35.6727)
(-0.322328 130.806 32.5132)
(-0.198594 111.547 27.7917)
(-0.0604881 81.0891 20.2619)
(0.018052 44.3398 11.1105)
(0.0803589 19.0519 4.77987)
(0.114461 13.7568 3.50691)
(0.134148 14.234 3.73283)
(0.169193 16.4284 4.19387)
(0.20613 23.58 5.85778)
(0.200535 42.4586 10.5112)
(0.126598 86.6636 21.6466)
(0.00982632 154.974 38.9905)
(-0.0541391 187.421 47.2549)
(-0.0580871 185.377 46.7258)
(-0.0656743 178.857 45.0482)
(-0.0864083 178.024 44.8119)
(-0.091734 179.91 45.3104)
(-0.122916 187.352 47.2927)
(-0.248598 194.415 49.2126)
(-0.426011 190.007 48.2253)
(-0.443901 165.688 42.2227)
(-0.275147 127.595 32.8299)
(-0.125111 113.717 29.6971)
(-0.0755723 114.524 30.0808)
(-0.204718 108.86 28.6674)
(-0.377715 76.8469 20.2124)
(0.693358 32.2485 8.46842)
(75.4208 30.184 9.96644)
(586.002 260.631 123.659)
(437.669 968.329 67.694)
(-462.252 1191.14 -15.6191)
(-507.756 622.004 38.9821)
(-125.327 48.709 4.74777)
(-6.18878 0.41792 0.0467732)
(-0.0343488 -0.000197635 -3.68294e-05)
(1.67632e-05 -1.55832e-05 -4.45091e-06)
(2.59211e-06 -7.24056e-07 -2.30958e-07)
(-0.000808921 3.30387 0.635626)
(-0.00145756 5.94951 1.15084)
(-0.0057555 23.4787 4.56733)
(-0.0163395 66.6128 13.0327)
(-0.0151014 68.4672 13.4545)
(0.00271451 34.9709 6.86824)
(0.0324221 5.20859 0.930212)
(0.10949 2.73003 0.289461)
(0.475221 11.923 1.83474)
(1.95594 69.0137 13.0339)
(4.46707 276.901 57.3567)
(3.23205 516.546 114.715)
(-1.95884 509.69 112.129)
(-4.94947 371.554 79.0612)
(-3.20125 191.865 38.9985)
(-0.566897 104.846 21.0736)
(-0.00734278 96.8595 19.5209)
(0.0443873 105.532 21.4144)
(0.0568024 133.21 27.3762)
(0.0264562 156.052 32.3974)
(-0.0135919 156.577 32.6803)
(-0.0613665 149.871 31.4695)
(-0.104178 138.22 29.2907)
(-0.0937786 125.799 27.1195)
(-0.0439584 109.464 24.0858)
(-0.0119273 81.6223 17.99)
(0.00705881 43.3405 9.42599)
(0.0625019 11.9673 2.42972)
(0.142562 2.07605 0.182818)
(0.0846473 1.7233 0.435793)
(-0.0250224 3.14309 0.791608)
(-0.0303329 9.11997 1.63358)
(-0.0107679 24.6297 4.62953)
(-0.00132787 57.0306 11.7075)
(0.000565679 107.003 23.0755)
(0.012935 143.409 31.8814)
(0.0321587 147.03 33.8655)
(0.0229484 143.925 33.2413)
(-0.00142886 138.489 31.689)
(-0.0127001 137.148 30.818)
(-0.0272096 137.333 30.8809)
(-0.0739837 135.721 30.6913)
(-0.142879 125.779 28.6772)
(-0.159701 100.212 23.0311)
(-0.0992487 63.4005 14.4278)
(-0.0206897 32.6888 7.16271)
(0.0149756 17.9357 3.67365)
(-0.058282 11.4731 2.19494)
(-0.118179 7.32368 1.29981)
(0.881846 6.87989 1.65873)
(95.5672 16.909 4.5475)
(655.459 256.047 71.8056)
(425.533 882.573 447.069)
(-553.877 975.027 680.763)
(-517.921 409.638 230.477)
(-102.798 27.8556 8.4254)
(-3.54465 0.21808 0.00937978)
(-0.00666642 -0.000133817 -3.15325e-05)
(1.16221e-05 -1.32503e-05 -1.64083e-06)
(2.77627e-06 -7.43466e-07 -5.65858e-08)
(-9.06996e-05 -0.00111785 0.000347796)
(-0.000103254 0.00525071 0.00363724)
(0.000484594 0.155923 0.080195)
(0.000642479 0.481993 0.246057)
(0.000870659 0.349283 0.18716)
(0.00159733 0.148769 0.0935628)
(0.00222752 0.165388 0.09188)
(0.0197903 0.294099 0.128387)
(0.195812 0.984345 0.438124)
(1.85381 5.59223 2.82594)
(6.7256 34.7079 19.0405)
(4.4713 182.915 105.703)
(-3.87882 359.791 219.831)
(-6.02159 309.714 196.49)
(-3.04138 129.743 85.9434)
(-0.318331 16.6399 11.016)
(0.0068749 1.48656 0.68807)
(0.0213637 1.64622 0.648341)
(0.0379715 2.92993 1.15663)
(0.030535 4.45455 1.80173)
(0.0080383 4.82222 1.92868)
(0.00166743 4.66451 1.85131)
(0.0498502 3.99864 1.6157)
(0.132411 2.69675 1.18594)
(0.0220587 1.19438 0.709783)
(-0.142483 0.321534 0.236482)
(-0.0794917 0.132539 -0.0687774)
(0.0397389 0.1198 -0.11803)
(0.275536 0.136144 -0.248481)
(0.330594 0.146109 -0.392468)
(-0.0509804 0.596771 0.391831)
(-0.286313 1.23771 1.46006)
(-0.200024 1.37414 0.901643)
(-0.0642599 1.4207 0.375944)
(0.175711 1.43272 0.21589)
(0.695834 1.2623 0.131901)
(0.526676 0.774658 -0.0273236)
(-0.183833 0.782533 0.369669)
(-0.550432 0.873234 1.06469)
(-0.380054 0.983868 0.829275)
(0.00569294 0.875617 0.0819457)
(0.0244512 0.875518 -0.211773)
(-0.0633621 1.03091 -0.154639)
(-0.131539 0.995537 0.0464568)
(-0.0777948 1.00074 0.712802)
(0.0272011 0.940042 1.08979)
(0.0651887 0.823282 0.700102)
(-0.0503409 0.591703 0.167739)
(-0.0846081 0.168458 -0.0225281)
(0.646176 -0.106817 0.0247066)
(82.534 1.01409 0.446803)
(770.465 197.402 28.6402)
(703.74 863.805 305.367)
(-572.54 755.983 617.812)
(-779.104 139.391 236.782)
(-198.714 3.46344 10.1246)
(-7.28797 0.0136175 0.0290922)
(-0.0138493 -4.06759e-05 -2.43668e-05)
(1.74796e-05 -7.50014e-06 -1.57828e-07)
(2.17216e-06 -4.19036e-07 2.65483e-08)
(0.000456515 -0.000807359 -0.000331989)
(0.00158531 0.00458987 -0.00258089)
(0.00342114 0.154011 -0.076782)
(0.00586876 0.496599 -0.181438)
(0.00949297 0.39066 -0.0114004)
(0.0157247 0.22231 0.236138)
(0.0330019 0.215658 0.240788)
(0.140876 0.249693 0.0651443)
(0.78392 0.72968 -0.265152)
(3.983 4.51637 -2.28209)
(14.9357 32.1928 -13.3088)
(27.7912 185.761 -49.5863)
(13.9765 392.053 13.2794)
(-18.4091 358.755 95.8092)
(-28.0029 166.46 98.4238)
(-13.441 27.4265 32.4111)
(-1.68627 2.28283 1.9825)
(-0.0353199 1.66668 -0.751314)
(0.000320973 2.95079 -1.39054)
(0.00045193 4.52457 -2.04672)
(0.000514616 4.94461 -2.084)
(0.00898397 4.79585 -1.97209)
(0.0519932 4.12023 -1.67471)
(0.153117 2.81621 -1.18555)
(0.10065 1.2433 -0.713716)
(-0.108721 0.264645 -0.271557)
(-0.104795 0.0691105 -0.0459827)
(-0.00521398 0.0326692 -0.0229549)
(0.0174886 0.0441253 -0.0792036)
(0.317958 0.236054 -0.48201)
(0.723206 0.556114 -0.651234)
(0.0665455 0.709844 -0.423688)
(-0.657398 1.10486 -0.265937)
(-0.377018 1.42547 -0.23769)
(-0.0756993 1.4951 -0.237156)
(0.0126972 1.48293 -0.517922)
(0.295677 1.4689 -1.37778)
(0.697676 1.18732 -1.30386)
(0.269874 0.757446 -0.778351)
(-0.547376 0.863511 -0.0738935)
(-0.550752 1.15363 -0.118316)
(-0.150455 1.25731 -0.278229)
(0.0135719 1.15394 -0.399603)
(0.310981 1.05939 -0.263689)
(0.49155 0.524474 0.338146)
(0.0111195 0.295433 0.725924)
(-0.42734 0.630929 0.565681)
(-0.319724 0.725765 0.266436)
(-0.077738 0.155832 0.00103754)
(0.653622 -0.0654005 0.109889)
(78.6849 3.41539 6.71591)
(740.062 272.885 165.343)
(658.549 840.64 -621.313)
(-548.347 704.418 -1131.83)
(-729.93 120.543 -356.604)
(-192.393 2.21129 -14.8802)
(-7.32426 0.00839469 -0.0429145)
(-0.0148238 -4.64786e-05 1.4322e-05)
(1.67161e-05 -7.45656e-06 1.58175e-06)
(2.05054e-06 -4.10631e-07 5.53447e-08)
(0.000816313 7.46625 -1.41304)
(0.000812335 7.42401 -1.40819)
(0.0255018 18.64 -3.40322)
(0.0729222 60.4858 -10.6696)
(0.115418 110.959 -17.6601)
(0.0750516 105.304 -12.0689)
(-0.0417554 49.7352 -1.99974)
(-0.050101 3.66587 2.65859)
(0.159957 -0.235662 0.0259589)
(2.56598 -1.18584 -1.1302)
(20.7709 2.03811 -6.52437)
(78.1605 123.787 -36.7231)
(81.1192 907.539 -147.171)
(-14.815 1326.31 -102.56)
(-85.396 968.468 -9.80467)
(-64.7063 299.521 37.5904)
(-16.5079 72.2167 -0.519169)
(-1.07258 63.5097 -11.8776)
(0.0667144 82.1915 -15.6714)
(0.132457 124.338 -23.8131)
(0.0982127 148.077 -28.4357)
(0.0270484 148.948 -28.657)
(-0.00289808 148.103 -28.5703)
(-0.0365728 143.531 -27.8541)
(-0.0757737 127.752 -25.1253)
(-0.0516095 96.2787 -19.0325)
(0.000567915 54.6584 -10.7227)
(0.0154259 18.1805 -3.5019)
(0.0455943 2.37127 0.128143)
(0.122475 0.775701 0.791209)
(0.147478 1.40934 0.0581962)
(0.0599765 5.51607 -1.87044)
(-0.0105853 17.2336 -3.80909)
(-0.00542454 39.6588 -7.75176)
(0.0191338 71.0653 -13.8655)
(0.033674 95.6264 -18.718)
(0.039312 100.818 -19.6977)
(0.0657244 100.675 -19.867)
(0.086601 100.458 -19.6206)
(0.0323642 99.9008 -19.2418)
(-0.051499 99.5249 -19.1486)
(-0.103107 97.344 -18.8875)
(-0.0504813 89.2602 -17.2986)
(0.181641 70.0245 -13.409)
(0.305067 43.0935 -8.41835)
(0.0917517 21.9146 -4.49062)
(-0.154591 11.6765 -2.12601)
(-0.369561 6.76746 -0.91088)
(-0.244183 4.64084 -0.953646)
(3.84826 5.27285 -1.10944)
(178.628 31.0441 5.38157)
(545.395 508.665 295.296)
(168.398 1017.49 -626.799)
(-491.296 836.163 -1143.68)
(-345.498 194.995 -374.414)
(-57.9225 10.875 -16.3479)
(-1.52874 0.093908 -0.0500824)
(-6.83346e-05 -6.86388e-05 2.65014e-05)
(1.63548e-05 -1.04607e-05 3.3671e-06)
(2.30884e-06 -6.54837e-07 1.63665e-07)
(0.000375836 2.02463 -0.453954)
(0.0671942 6.12237 -1.37067)
(0.398432 17.9005 -3.84566)
(1.59297 48.1649 -9.62445)
(3.4497 119.33 -24.8383)
(1.99393 269.156 -58.2775)
(-2.10825 315.777 -69.1547)
(-3.37079 272.913 -60.0266)
(-1.39716 168.212 -37.1637)
(0.953172 60.5264 -13.0908)
(7.29206 27.6131 -5.12305)
(34.8145 31.2227 -17.1195)
(83.5313 153.175 -127.953)
(54.5327 829.421 -307.353)
(-45.5548 1019.12 -300.254)
(-83.9073 560.677 -135.434)
(-45.0914 100.823 -21.7403)
(-6.2058 13.5114 -2.81734)
(-0.0660369 13.3065 -2.75736)
(0.0109122 24.0059 -5.10049)
(-0.00824598 39.5809 -8.54011)
(-0.0140996 44.3811 -9.58765)
(-0.0254023 43.7138 -9.46538)
(-0.0491097 40.7488 -8.86776)
(-0.0383926 34.0885 -7.36959)
(-0.00333986 22.9864 -4.73545)
(0.0490771 9.11529 -1.19278)
(0.302765 1.43019 0.704351)
(0.438478 0.0264903 1.05128)
(0.180477 -0.142716 0.758532)
(-0.122245 -0.172687 0.0870283)
(-0.300081 0.167878 -0.276451)
(-0.250489 1.48213 -0.543266)
(-0.108444 4.49604 -0.933639)
(-0.0338363 8.27108 0.487497)
(0.0463379 9.34844 1.1356)
(0.240657 8.89901 -0.342237)
(0.714447 7.92923 -1.49652)
(0.524364 5.9347 -1.03741)
(-0.38257 3.33015 -0.592493)
(-0.606348 2.12802 -0.655396)
(-0.209336 2.22487 -0.605496)
(0.0691547 3.46566 -0.253154)
(0.187307 6.59401 -0.676399)
(0.168652 8.4357 -1.33472)
(0.0100821 8.08918 -1.64557)
(-0.141107 7.34997 -1.80186)
(-0.369381 6.18346 -1.68197)
(-0.207088 5.0288 -1.2076)
(7.02187 2.74079 -1.36924)