/*--------------------------------*- C++ -*----------------------------------*\
| =========                 |                                                 |
| \\      /  F ield         | OpenFOAM: The Open Source CFD Toolbox           |
|  \\    /   O peration     | Version:  2.1.1                                 |
|   \\  /    A nd           | Web:      www.OpenFOAM.org                      |
|    \\/     M anipulation  |                                                 |
\*---------------------------------------------------------------------------*/
FoamFile
{
    version     2.0;
    format      ascii;
    class       volScalarField;
    location    "0.00125";
    object      k;
}
// * * * * * * * * * * * * * * * * * * * * * * * * * * * * * * * * * * * * * //

dimensions      [0 2 -2 0 0 0 0];

internalField   nonuniform List<scalar> 
36520
(
0.103145
0.201254
0.3651
0.444362
0.513889
0.56376
0.607306
0.640693
0.662597
0.668401
0.655486
0.627308
0.587514
0.55013
0.521607
0.499363
0.478643
0.456518
0.432295
0.406124
0.378892
0.352438
0.326245
0.300776
0.275698
0.251647
0.228397
0.206185
0.184885
0.164717
0.145723
0.12817
0.112186
0.0980031
0.0857388
0.0754367
0.0669774
0.0601875
0.0547923
0.0505777
0.0474841
0.0457103
0.0458907
0.0487269
0.053889
0.0591309
0.0600736
0.0516811
0.0392032
0.026878
0.0170413
0.0102233
0.00540904
0.00217095
0.000724808
0.000333972
0.000261622
0.000228902
0.000226684
0.00027701
0.0620935
0.0864372
0.108099
0.105473
0.105987
0.104341
0.105126
0.10142
0.0930221
0.0779128
0.0605526
0.0468073
0.041498
0.0400059
0.0387643
0.037424
0.0357627
0.0339275
0.0319607
0.0302482
0.0287185
0.0273292
0.0259791
0.0246838
0.0233721
0.0219305
0.0202652
0.0183436
0.0162602
0.0141065
0.0119923
0.0100815
0.00854406
0.00749454
0.00696497
0.00688338
0.00711977
0.00756091
0.00815118
0.00887347
0.00978112
0.0110511
0.0130122
0.0160425
0.0203097
0.0254512
0.0296872
0.0315727
0.032366
0.0328343
0.032306
0.0284788
0.0189935
0.00908767
0.00269892
0.000363396
4.2882e-05
3.16585e-05
4.2497e-05
0.000140757
0.0300477
0.0262312
0.0270838
0.0223113
0.0201948
0.0181092
0.0174605
0.0157367
0.0131574
0.00959133
0.00651784
0.00499633
0.00520783
0.00487182
0.00375311
0.00324386
0.0030405
0.00291231
0.00281982
0.00279978
0.00281106
0.00283011
0.00284663
0.00286444
0.00288831
0.00289102
0.00285709
0.00278023
0.00268422
0.00259267
0.00253573
0.00254811
0.00265624
0.00287223
0.00319338
0.00361245
0.00413933
0.00479088
0.0055944
0.0066
0.00791339
0.00973575
0.0124432
0.0166482
0.0231783
0.0331262
0.0482553
0.0676405
0.0868251
0.103236
0.105199
0.0853442
0.0560207
0.0290106
0.0108993
0.00201446
0.000122137
9.62572e-06
1.42688e-05
0.000116912
0.0150049
0.00816967
0.00690903
0.00494086
0.00422233
0.00381117
0.00405179
0.00445113
0.00541116
0.0074144
0.0113681
0.0176639
0.0273845
0.0241822
0.00972324
0.0029004
0.00158372
0.00144561
0.00154915
0.00175787
0.00203918
0.00231645
0.00255328
0.00277833
0.00305075
0.00344022
0.00390524
0.00443507
0.00503294
0.00571088
0.00647698
0.0073225
0.00818498
0.00894632
0.00945967
0.00967405
0.00975716
0.0102536
0.0112625
0.012654
0.014499
0.0168759
0.0200287
0.0246287
0.0316927
0.0426769
0.0603289
0.0896367
0.147307
0.214845
0.233627
0.190052
0.127418
0.0710267
0.0313458
0.00804285
0.000640091
2.56584e-05
8.70355e-06
0.000111108
0.00855767
0.00281396
0.00233756
0.00243089
0.00376561
0.00651461
0.0114802
0.0202983
0.036005
0.0635896
0.108604
0.172354
0.258398
0.235023
0.109997
0.0333165
0.011871
0.00797218
0.00830822
0.01041
0.013838
0.0171486
0.0195453
0.0213643
0.0234169
0.0264549
0.0318738
0.0394714
0.0488627
0.0603109
0.0741311
0.0903563
0.107355
0.121873
0.131327
0.122677
0.0957607
0.0689884
0.0513444
0.0405384
0.0390992
0.0412934
0.0445253
0.0494088
0.0573035
0.0683659
0.086832
0.11809
0.169103
0.251372
0.306466
0.296348
0.237918
0.152436
0.0749833
0.0238819
0.00264152
0.000130656
1.02599e-05
0.000108843
0.00605648
0.0027754
0.00574517
0.0126679
0.0257563
0.0490597
0.0877114
0.156467
0.278322
0.489961
0.817916
1.23805
1.69154
1.56747
0.922255
0.392214
0.173058
0.111577
0.108031
0.134497
0.175691
0.210585
0.232724
0.247769
0.262597
0.281135
0.307409
0.367036
0.462732
0.582809
0.727685
0.899625
1.07871
1.21121
1.24396
1.14732
0.965633
0.761628
0.592852
0.442041
0.311409
0.230905
0.173533
0.162104
0.167592
0.174873
0.184488
0.208159
0.258684
0.3274
0.387617
0.39443
0.350919
0.277346
0.16757
0.0580623
0.00873362
0.000567762
2.90564e-05
0.000106798
0.0121033
0.0182051
0.0447736
0.0965083
0.181678
0.32308
0.537671
0.900192
1.50175
2.48491
3.86769
5.34215
6.35146
6.31648
4.93749
3.10506
1.98184
1.5585
1.52138
1.64024
1.76693
1.83962
1.85563
1.84108
1.81817
1.80628
1.80242
1.8645
2.03922
2.36702
2.7765
3.22816
3.70355
4.1184
4.33854
4.28968
3.98492
3.45368
2.90277
2.38329
1.87826
1.4748
1.06599
0.6975
0.526536
0.451005
0.408787
0.377534
0.365172
0.366443
0.374128
0.366775
0.334388
0.286032
0.232005
0.12073
0.0244229
0.00208707
0.000120699
0.000106233
0.0598963
0.096064
0.217206
0.450027
0.784945
1.36359
1.97569
2.96283
4.352
6.18663
8.11687
9.7091
10.7377
11.3161
11.2602
10.691
10.1475
9.94282
9.90186
9.64963
9.108
8.2876
7.33575
6.57259
6.13264
5.86989
5.78121
5.80779
5.88922
6.05481
6.35593
6.71023
7.04278
7.29622
7.41914
7.36382
7.09174
6.54894
5.80619
4.99454
4.16368
3.41381
2.77083
2.16921
1.68213
1.313
1.01189
0.832902
0.698621
0.576919
0.482965
0.404291
0.328913
0.266485
0.220998
0.145156
0.0472935
0.00593684
0.000413475
0.000112684
0.100604
0.191342
0.498404
0.867598
1.23434
1.6382
2.0365
2.57365
3.242
4.06937
5.04673
6.10873
7.04625
7.77068
8.37861
9.05214
9.83409
10.6195
11.169
11.4022
11.3549
11.1007
10.6849
10.1067
9.38159
8.66131
8.06184
7.62124
7.30243
7.03221
6.82423
6.67407
6.54926
6.43301
6.31484
6.17354
5.98209
5.71527
5.33386
4.84829
4.2739
3.65873
3.0827
2.56661
2.11713
1.77576
1.50831
1.27038
1.10873
0.944433
0.732493
0.541534
0.382519
0.27416
0.209608
0.147321
0.0650755
0.0128144
0.00122786
0.000146195
0.0816167
0.14905
0.433851
0.693055
0.977138
1.18973
1.35794
1.58283
1.92361
2.39916
3.00538
3.65242
4.25514
4.80498
5.18433
5.31918
5.36673
5.55664
5.99365
6.55435
7.11407
7.67169
8.28605
8.98363
9.56407
9.65118
9.13807
8.31245
7.49693
6.82665
6.33189
5.99338
5.79137
5.69527
5.64729
5.57337
5.41831
5.15405
4.78313
4.31513
3.78286
3.22521
2.65064
2.07662
1.54111
1.09036
0.790247
0.643778
0.542146
0.444004
0.367769
0.298733
0.233689
0.191814
0.168852
0.132489
0.0644647
0.0138752
0.00143612
0.000158145
0.0604383
0.134819
0.480791
0.997906
1.19054
1.34236
1.47413
1.70214
2.11155
2.90664
4.21398
5.74136
7.16265
8.43706
9.36904
9.64474
9.59412
9.55244
9.69039
10.0546
10.569
11.2367
12.0776
13.0522
14.0222
14.5925
14.2671
13.0831
11.7539
10.7263
10.0881
9.8208
9.8258
10.0096
10.2473
10.3893
10.3419
10.0596
9.51039
8.71796
7.72685
6.59967
5.36742
4.05981
2.79887
1.78359
1.12281
0.780222
0.612123
0.504714
0.426349
0.350751
0.277592
0.227509
0.19771
0.147174
0.067266
0.0146621
0.00157832
0.000166012
0.0577638
0.118855
0.325803
0.680969
1.0195
1.30492
1.5284
1.94626
2.59547
3.79157
5.86954
8.23592
10.2426
12.1243
13.4784
13.9419
14.3493
14.9453
15.435
15.818
16.2955
16.9777
17.7877
18.4557
18.6845
18.2233
17.0157
15.2936
13.4335
12.1862
11.7146
11.7887
12.2037
12.7786
13.3189
13.6753
13.7581
13.4944
12.8267
11.7711
10.375
8.6312
6.59893
4.57679
2.86519
1.64184
0.969118
0.724452
0.694591
0.668268
0.59908
0.53536
0.44184
0.351629
0.281231
0.197661
0.0789047
0.0135591
0.00118389
0.000142724
0.0668934
0.120967
0.266363
0.530882
0.784836
1.11634
1.46015
1.9609
2.69346
3.7527
5.00065
6.09607
7.4256
9.35581
11.9001
13.8781
14.8073
15.6576
16.3776
16.8752
17.4051
17.9888
18.5666
18.9261
18.8485
18.269
17.1018
15.4357
13.5266
12.0308
11.3844
11.494
11.9858
12.6275
13.2628
13.6832
13.7161
13.2831
12.395
11.2508
9.77984
7.91572
5.81905
3.75549
2.20135
1.26946
0.824127
0.720082
0.844816
0.902309
0.839629
0.716638
0.559914
0.421761
0.320982
0.216304
0.0826986
0.0135832
0.00116045
0.000141665
0.0680548
0.189266
0.681975
1.35127
1.95075
2.38595
2.39816
2.26998
2.30677
2.58334
2.99043
3.50629
4.18139
5.23618
6.98942
9.27608
10.9156
11.5339
12.006
12.6503
13.2692
13.7465
14.0737
14.3287
14.6286
14.9205
14.588
13.1338
11.4149
10.1921
9.44919
9.15318
9.17582
9.37447
9.5887
9.64524
9.46231
9.03446
8.41207
7.64761
6.7629
5.76912
4.64918
3.33569
2.08042
1.23221
0.783357
0.612372
0.582339
0.555131
0.500811
0.423301
0.3488
0.291995
0.253963
0.172616
0.065767
0.0130334
0.00136331
0.000156808
0.0705801
0.0751126
0.352753
0.582305
0.761269
1.01738
1.47446
1.93464
2.15167
2.33441
2.66543
3.03885
3.48137
4.24992
5.89247
8.69485
11.4208
12.3061
12.0682
12.1036
12.4841
12.9782
13.4346
13.5867
13.1623
12.0451
10.6045
9.34706
8.42234
7.79821
7.44982
7.31508
7.34488
7.47318
7.54824
7.39291
6.93095
6.18607
5.32979
4.53214
3.84258
3.21496
2.5841
1.93688
1.3418
0.898613
0.620514
0.47021
0.393401
0.341058
0.300309
0.266146
0.239228
0.224755
0.208917
0.13069
0.0429064
0.00804034
0.000819369
0.000132866
0.0681993
0.0783388
0.386163
0.817967
1.37519
1.86176
2.15189
2.4652
3.05635
3.97407
5.07709
6.44795
8.57189
11.4232
14.3142
16.0992
15.1069
13.1998
12.4182
12.1953
12.0975
11.9387
11.6717
11.269
10.5882
9.60641
8.59526
7.79679
7.26858
6.95678
6.72627
6.5077
6.28475
5.98457
5.57828
5.10657
4.56882
3.98445
3.40876
2.87347
2.41395
2.02019
1.65176
1.29006
0.968536
0.719817
0.547823
0.453649
0.42071
0.39228
0.351298
0.305375
0.262621
0.235877
0.211707
0.126341
0.0387373
0.00678703
0.000646808
0.000124271
0.0478402
0.0855248
0.245011
0.53243
0.909659
1.32483
1.8935
2.73333
3.91852
5.65181
7.99381
10.3242
11.2757
10.9718
10.1058
9.24478
8.14352
7.56209
7.72208
8.08127
8.30129
8.35333
8.17214
7.73256
6.99024
6.11279
5.48519
5.15282
5.12137
5.32831
5.66108
6.01436
6.31978
6.4751
6.36278
5.97864
5.37385
4.64514
3.87483
3.14333
2.46788
1.89593
1.46892
1.16446
0.9454
0.804482
0.747168
0.806425
0.867229
0.793042
0.626333
0.465705
0.348584
0.273374
0.222004
0.125755
0.0331949
0.00408903
0.000288659
0.000108867
0.0106073
0.0120899
0.0317912
0.0723386
0.144699
0.25986
0.426509
0.676566
1.06206
1.67382
2.49763
3.23086
3.56289
3.27806
2.85291
2.38627
1.82324
1.50069
1.54192
1.72876
1.96639
2.18158
2.23446
2.0682
1.72541
1.33986
1.06225
0.947332
0.982167
1.09158
1.19742
1.27333
1.32609
1.38046
1.43932
1.40743
1.32387
1.19653
1.05901
0.919474
0.809936
0.768674
0.782868
0.86322
0.995823
1.18117
1.38545
1.47264
1.34131
1.10099
0.853264
0.640973
0.469354
0.340061
0.244706
0.117996
0.022369
0.00182618
0.000103187
0.00010591
0.00881783
0.00213312
0.00423421
0.00973236
0.0203121
0.037609
0.0632339
0.0994128
0.152198
0.229217
0.331624
0.439537
0.532689
0.500144
0.401443
0.281817
0.165274
0.105075
0.0962104
0.11781
0.167739
0.22228
0.246642
0.22328
0.163415
0.101311
0.0658009
0.0621635
0.0670649
0.0727495
0.0774734
0.0806164
0.08288
0.0850423
0.0865955
0.0873901
0.0896953
0.0943231
0.102683
0.116544
0.140183
0.178774
0.238864
0.330938
0.466854
0.628779
0.806562
0.950596
1.03476
1.00542
0.919635
0.786083
0.591871
0.398759
0.239151
0.0823627
0.0101078
0.000632274
3.18507e-05
0.00010741
0.0137107
0.00251388
0.00143704
0.00134774
0.00221801
0.00389607
0.00655837
0.0103185
0.0156349
0.0229735
0.0324106
0.0423713
0.0518919
0.0483444
0.034586
0.0202572
0.0104381
0.0071682
0.00738371
0.00944313
0.0135331
0.0187327
0.0215472
0.0199412
0.015501
0.0120406
0.0110991
0.011855
0.0129161
0.0141239
0.0154442
0.0168877
0.0185071
0.0204046
0.022717
0.0256399
0.0295761
0.0349541
0.042438
0.0530264
0.068358
0.0912453
0.126152
0.178991
0.261339
0.390502
0.575483
0.693789
0.686392
0.608725
0.517485
0.439419
0.357915
0.248199
0.133852
0.0424009
0.00432864
0.000211029
1.2737e-05
0.000109918
0.0233461
0.007892
0.0046715
0.00255416
0.00201188
0.00174863
0.00176187
0.00176934
0.00186847
0.00210296
0.00256673
0.00315528
0.00382011
0.00354854
0.00263104
0.00190959
0.00165595
0.00175099
0.0020057
0.00237319
0.00284684
0.00336904
0.00376069
0.00391838
0.00394125
0.00403907
0.0042661
0.00462669
0.00505327
0.00555227
0.00613558
0.00683037
0.00766782
0.00869747
0.0099929
0.0116703
0.0139417
0.0171237
0.0217126
0.0285217
0.0389676
0.0553577
0.0813032
0.121527
0.181116
0.256628
0.331259
0.367725
0.350476
0.294934
0.242056
0.208629
0.178294
0.130143
0.0695305
0.0206745
0.00173581
7.09758e-05
8.98296e-06
0.000111204
0.0357998
0.0253867
0.0201327
0.0135014
0.0114082
0.00968038
0.00885929
0.00743737
0.00577167
0.00394571
0.00255972
0.00184446
0.00171678
0.00168908
0.00166701
0.0016797
0.00173224
0.00181973
0.00192659
0.0020479
0.00218411
0.00233321
0.00248442
0.00263627
0.00279175
0.0029699
0.00318677
0.00341075
0.00358874
0.00376213
0.00398304
0.00428823
0.00470737
0.00528723
0.00608611
0.00719107
0.00876205
0.0110863
0.0146533
0.0203
0.029474
0.0445817
0.069563
0.110304
0.177717
0.252715
0.291732
0.273019
0.219247
0.15268
0.100001
0.0698021
0.0532841
0.0404722
0.0217748
0.00549975
0.000315917
1.18813e-05
1.10631e-05
0.000113148
0.0694629
0.085208
0.0913847
0.0797769
0.0769345
0.0727142
0.0708461
0.0656172
0.0580291
0.0482347
0.0386799
0.0319256
0.0290106
0.0274923
0.026206
0.0250663
0.0239806
0.0229823
0.0219421
0.0208929
0.0198741
0.0189618
0.018165
0.017516
0.0169798
0.0165718
0.0162868
0.0157398
0.014773
0.013588
0.0124417
0.0114691
0.0107246
0.0102584
0.0101053
0.0102753
0.0107877
0.011711
0.0131225
0.0151126
0.0178688
0.0216843
0.0270728
0.0348706
0.0430399
0.0485572
0.0481472
0.0418259
0.0322403
0.0228209
0.0164086
0.0123867
0.00991621
0.00781216
0.00408589
0.000773962
5.01822e-05
2.58558e-05
3.59445e-05
0.00013029
0.147829
0.22914
0.370438
0.428079
0.47901
0.513502
0.541726
0.561104
0.571727
0.572385
0.563131
0.546088
0.523178
0.499535
0.475606
0.452652
0.429193
0.404997
0.37956
0.353458
0.32678
0.3008
0.275723
0.252603
0.231015
0.211127
0.192262
0.174567
0.157681
0.14168
0.12676
0.113266
0.101263
0.090809
0.0818652
0.0744331
0.0684356
0.0638446
0.0606237
0.0585686
0.0574009
0.0567297
0.0561534
0.0549173
0.0506056
0.0431489
0.0342203
0.0254458
0.0177659
0.0116734
0.00732882
0.00440297
0.00258047
0.00147756
0.000747694
0.000326857
0.000245878
0.000222253
0.000219871
0.00024809
0.118326
0.204133
0.33759
0.395189
0.448717
0.480838
0.508949
0.527104
0.538669
0.544875
0.543453
0.537701
0.524227
0.507313
0.484416
0.45956
0.432468
0.404909
0.377208
0.349638
0.322408
0.295983
0.270383
0.246175
0.223203
0.201887
0.1819
0.16334
0.146028
0.130098
0.115514
0.102372
0.0907057
0.0806461
0.0722225
0.065409
0.060047
0.0560473
0.0533588
0.0518924
0.0515405
0.0520566
0.0530598
0.0531866
0.0501566
0.0435181
0.0349219
0.0262366
0.0187035
0.0127685
0.00842681
0.0053769
0.0033445
0.0020326
0.00107102
0.000381265
0.000240159
0.000215677
0.000215654
0.000254336
0.0575254
0.0651425
0.0743816
0.0654829
0.061339
0.0557114
0.0542987
0.0518968
0.050965
0.0494304
0.0477844
0.044812
0.0419738
0.0383105
0.03507
0.031852
0.0289161
0.0265504
0.0245037
0.0228485
0.0214116
0.0201104
0.0189312
0.0178042
0.0167159
0.0156982
0.0147035
0.0137219
0.0127284
0.0117758
0.0109101
0.0101745
0.00962669
0.00934669
0.00935783
0.00967533
0.0102805
0.0111875
0.0124522
0.0141444
0.0163807
0.0193284
0.0233418
0.0274802
0.0307705
0.0320907
0.0309151
0.0279772
0.0244615
0.0210268
0.0178785
0.0150833
0.0125267
0.00989996
0.00575702
0.00129646
7.4971e-05
2.67941e-05
3.66724e-05
0.00013282
0.026081
0.0168664
0.0140122
0.00923118
0.00713204
0.00538108
0.00484581
0.00429242
0.00415496
0.00397956
0.00381692
0.00351934
0.00324946
0.00291091
0.00266224
0.00245039
0.00229205
0.00221568
0.00219288
0.00222179
0.00228377
0.00236333
0.0024551
0.00255517
0.0026592
0.00277881
0.00291547
0.00307882
0.00327032
0.00350756
0.00380936
0.00419986
0.00470689
0.00536978
0.00623457
0.00737075
0.00888451
0.0109663
0.0138956
0.0180858
0.0242855
0.0337202
0.048536
0.0720563
0.110735
0.152793
0.177455
0.172184
0.145448
0.115229
0.0892355
0.0701881
0.0551931
0.0427167
0.0255501
0.00735679
0.000472131
1.42565e-05
1.07448e-05
0.000112556
0.0144603
0.00474779
0.00280285
0.00139636
0.000947286
0.000665573
0.000616989
0.000590948
0.000642242
0.000703956
0.000791489
0.000891786
0.00102357
0.00118339
0.00138253
0.00161664
0.00188026
0.0021699
0.00248741
0.00283432
0.0032117
0.00361278
0.00403086
0.00446593
0.00491835
0.00540017
0.00591427
0.00647488
0.00709294
0.0077905
0.00859932
0.00960604
0.0109392
0.0127691
0.0153139
0.0188995
0.0240619
0.0317474
0.0435268
0.0618188
0.0917112
0.142741
0.234034
0.399802
0.690856
1.15662
1.50572
1.5439
1.26104
0.861383
0.515546
0.318201
0.218265
0.149164
0.0848898
0.027394
0.00274453
9.0018e-05
8.79407e-06
0.000108521
0.00871351
0.00153319
0.000714646
0.000395347
0.000381542
0.000448041
0.000595991
0.000808042
0.00111862
0.00155326
0.00218168
0.00306664
0.00429605
0.00591213
0.00791038
0.0102243
0.0127331
0.0152183
0.0176351
0.0201831
0.0229501
0.0252029
0.0268515
0.0278283
0.0284607
0.0288981
0.0295078
0.0300824
0.0305582
0.0309168
0.0310911
0.0312481
0.0318457
0.0334903
0.036772
0.0422509
0.0496355
0.0601559
0.0766762
0.103524
0.147868
0.222239
0.351511
0.580824
0.982887
1.70236
3.03518
3.75841
3.45741
2.3825
1.25527
0.714846
0.524915
0.379622
0.217979
0.0743501
0.0108751
0.000485389
2.1518e-05
0.000107823
0.00589497
0.000703005
0.000526665
0.000657344
0.0009686
0.00146291
0.00222464
0.00339421
0.00525368
0.00819479
0.0129928
0.0207201
0.0328797
0.0509295
0.0758275
0.107311
0.143195
0.178009
0.205978
0.229493
0.25494
0.271213
0.275433
0.268328
0.254636
0.238818
0.231112
0.226867
0.224202
0.224121
0.222766
0.213788
0.19501
0.170709
0.146914
0.126904
0.115232
0.115322
0.119591
0.138874
0.183917
0.262125
0.395852
0.626295
1.01083
1.67344
3.1111
4.72708
4.94807
3.86351
2.19694
1.24077
0.843629
0.571099
0.341257
0.14986
0.0294323
0.00156875
6.72496e-05
0.000107053
0.00524226
0.00158395
0.00272708
0.00446638
0.00660755
0.00990393
0.015252
0.0240092
0.0387657
0.0643053
0.109554
0.189042
0.32211
0.526479
0.807586
1.15252
1.54324
1.94829
2.28488
2.53819
2.76091
2.88037
2.92161
2.89965
2.82264
2.71952
2.6475
2.65221
2.69949
2.83557
3.04533
3.24551
3.33228
3.2454
2.9956
2.5952
2.16451
1.78511
1.3702
0.827796
0.582976
0.553715
0.64129
0.851772
1.21262
1.73363
2.52388
3.48175
3.77503
3.34837
2.44521
1.62802
1.04824
0.631109
0.360109
0.171566
0.0436947
0.00367074
0.000161403
0.000107017
0.0109394
0.0128103
0.0274925
0.0466832
0.0670154
0.0989834
0.153868
0.24834
0.382194
0.600786
0.969342
1.56045
2.42938
3.61669
5.03105
6.49979
7.93573
9.45546
10.8017
11.5872
12.0515
12.2924
12.3609
12.3033
12.0956
11.8876
11.7175
11.6244
11.6836
12.0368
12.7848
13.8328
14.94
15.8172
16.3078
16.0751
14.9752
13.0143
10.8728
8.44867
6.22935
4.45354
3.23488
2.60304
2.34398
2.30398
2.42223
2.62404
2.66338
2.28192
1.75691
1.19753
0.766301
0.477671
0.300536
0.161634
0.0479617
0.00559124
0.000327425
0.000109391
0.0792593
0.158727
0.435026
0.740656
0.941122
1.06632
1.54442
2.14478
2.53895
3.31989
4.40684
5.99984
7.93362
9.96575
12.1469
14.3374
16.1534
17.4749
18.5508
19.3539
19.7719
19.9071
19.7811
19.4852
19.0195
18.4573
17.9588
17.5498
17.2565
17.1802
17.3134
17.5732
17.8218
17.8316
17.4359
16.6422
15.473
14.0087
12.4996
11.1294
9.62822
7.92203
6.12875
4.50628
3.248
2.35879
1.77859
1.50057
1.42809
1.31016
1.05869
0.761065
0.520065
0.355462
0.256789
0.149889
0.0468077
0.00691149
0.000544977
0.000116801
0.130248
0.360243
0.967418
2.14094
3.75337
5.86039
7.64386
8.14258
7.96975
7.7781
7.75769
7.89486
8.23681
8.66132
9.17149
9.79872
10.5075
11.1999
11.8172
12.3306
12.6997
12.9386
13.0962
13.2166
13.299
13.1864
12.7794
12.2654
11.9008
11.606
11.2446
10.7853
10.2257
9.57019
8.86828
8.13936
7.35316
6.51444
5.65031
4.8117
3.99305
3.21302
2.49312
1.85963
1.35416
0.995408
0.761247
0.628505
0.564789
0.515625
0.436642
0.344553
0.268541
0.218897
0.192113
0.135417
0.054296
0.010419
0.00105387
0.000141616
0.105627
0.236306
1.80721
3.34154
4.27399
5.2126
6.22025
7.37759
8.22695
8.05551
7.62436
7.57558
7.65196
7.61793
7.42525
7.21716
7.14662
7.24499
7.44058
7.63134
7.71436
7.65179
7.46596
7.18392
6.83125
6.43166
5.98997
5.57938
5.24811
4.97777
4.72936
4.49019
4.30292
4.22139
4.20875
4.19874
4.14146
4.03233
3.8247
3.45858
2.94666
2.38366
1.84214
1.35335
0.949995
0.653048
0.46171
0.354327
0.292985
0.251517
0.223319
0.198071
0.180785
0.175939
0.176315
0.128456
0.0509966
0.0100634
0.00105562
0.000143545
0.0822402
0.143343
0.403631
0.543491
0.691268
1.0203
1.64611
3.0249
5.52416
8.13257
9.1659
9.30632
9.95131
10.4915
10.6403
10.8053
11.1024
11.3649
11.4717
11.3093
10.8987
10.359
9.72917
8.99737
8.18471
7.37534
6.65141
6.03612
5.54012
5.20182
5.02651
4.99034
5.05539
5.18268
5.33593
5.45566
5.49988
5.4028
5.0542
4.40142
3.52536
2.57643
1.71421
1.07318
0.659177
0.420636
0.299878
0.242836
0.20867
0.189973
0.184295
0.181428
0.181557
0.189722
0.185353
0.121542
0.045366
0.00940923
0.00101755
0.000142393
0.0787694
0.188403
0.72745
1.1735
1.46345
1.85059
2.49867
3.58976
5.00381
6.07867
6.70893
7.61764
9.22242
10.9159
11.7043
11.4458
11.0359
10.9775
11.1531
11.3239
11.3427
11.1568
10.7531
10.1186
9.31807
8.45251
7.62118
6.90033
6.32721
5.94078
5.74323
5.6977
5.76797
5.92682
6.1359
6.31853
6.39425
6.29241
5.95125
5.2636
4.22182
3.03399
1.99325
1.24347
0.75035
0.455854
0.302067
0.237122
0.205362
0.190075
0.187814
0.18569
0.183018
0.18759
0.187315
0.129321
0.0495638
0.0101256
0.00109376
0.000145682
0.0842836
0.176135
0.582806
1.31967
1.82743
2.27345
2.64138
3.11523
3.79263
4.50032
4.98924
5.53819
6.15975
6.55715
6.5468
6.50207
6.66754
7.00896
7.46922
7.96209
8.43027
8.85252
9.17578
9.29317
9.01176
8.32986
7.55058
6.88735
6.36977
6.04635
5.92605
5.97675
6.14993
6.40631
6.69248
6.92053
6.9982
6.84205
6.41968
5.74025
4.81504
3.75969
2.73457
1.8747
1.22163
0.791355
0.54418
0.410262
0.340515
0.303949
0.278464
0.252022
0.223082
0.202544
0.192549
0.152763
0.069089
0.0137426
0.00140763
0.00015732
0.130196
0.307042
0.61792
1.00009
1.31381
1.92553
2.5704
3.25883
4.12609
5.28279
6.54067
7.64978
8.53936
8.88165
8.89598
9.06573
9.43946
9.98775
10.7022
11.4549
12.114
12.6843
13.2246
13.7071
13.8856
13.5319
12.7506
11.8927
11.1732
10.757
10.8027
11.1329
11.5983
12.1144
12.5404
12.6952
12.4242
11.5784
10.1294
8.18332
6.06921
4.20971
2.80502
1.81589
1.12637
0.693242
0.452424
0.333009
0.302812
0.339384
0.347217
0.312106
0.27129
0.235268
0.208377
0.166529
0.0815385
0.0166477
0.00159924
0.000161106
0.167554
0.201466
0.267973
0.408647
0.630495
0.973675
1.58369
2.69978
4.29369
6.19535
8.09547
9.61228
10.5097
11.158
12.0297
13.1075
14.3878
15.8441
17.2427
18.2889
18.7936
18.806
18.4575
17.7413
16.574
15.0041
13.4083
12.232
11.7982
11.9231
12.3559
13.0203
13.694
14.0517
13.9554
13.2621
11.8264
9.72048
7.41897
5.20447
3.40128
2.1552
1.3684
0.881093
0.577385
0.402677
0.325433
0.339487
0.481877
0.643277
0.653838
0.567748
0.456309
0.356517
0.281167
0.199655
0.0805341
0.0116794
0.000813169
0.000123891
0.0736527
0.140598
0.303965
0.578338
0.967763
1.615
2.57319
4.06568
6.28027
8.59971
10.7873
12.4435
13.3819
14.0473
14.7762
15.7287
17.2074
19.043
20.7762
21.9606
22.364
22.034
21.2145
20.1525
18.844
17.3073
15.7338
14.6223
14.2125
14.3086
14.7742
15.3076
15.606
15.5099
15.0075
14.0062
12.4785
10.4984
8.1345
5.47356
3.14407
1.66035
0.93609
0.636263
0.511297
0.487324
0.554978
0.728864
0.940012
1.00893
0.927208
0.766139
0.596998
0.454653
0.342687
0.22663
0.0838508
0.0112104
0.000721929
0.000121405
0.0257906
0.0338032
0.0788694
0.162054
0.299888
0.525151
0.89397
1.49814
2.42346
3.71453
4.86628
5.49523
5.6129
5.63922
5.96905
6.6968
7.47633
8.26296
8.88329
9.27191
9.46908
9.61207
9.6743
9.53384
9.17304
8.75443
8.44829
8.50069
8.81229
9.20343
9.5896
9.79273
9.64102
9.09876
8.23239
7.04308
5.69561
4.36238
3.17231
2.09925
1.34841
0.926604
0.730589
0.649529
0.659319
0.759647
0.936993
1.135
1.18292
1.08057
0.895756
0.699416
0.541961
0.415749
0.300373
0.142816
0.0314659
0.00307248
0.000198694
0.000107186
0.0112123
0.00291427
0.00539668
0.0105417
0.0194339
0.0343904
0.0604805
0.106795
0.187641
0.317294
0.497418
0.55536
0.482859
0.415356
0.447957
0.53539
0.635307
0.750481
0.870637
1.00706
1.17322
1.37709
1.51053
1.52661
1.45718
1.36955
1.33117
1.39953
1.51951
1.66002
1.78514
1.87083
1.92365
1.9362
1.8233
1.60311
1.31349
1.02401
0.781905
0.586683
0.528633
0.545774
0.624638
0.796086
1.04784
1.3288
1.67561
1.97363
2.04361
1.87161
1.52837
1.1512
0.778053
0.450638
0.20032
0.0690184
0.0114656
0.000877793
4.71876e-05
0.000106466
0.0172534
0.00253337
0.00134931
0.00114135
0.00145295
0.00200307
0.00286436
0.00412183
0.00602884
0.00894127
0.0128782
0.016637
0.0134075
0.0108077
0.0125458
0.0152359
0.018311
0.0219647
0.0261752
0.0315437
0.038414
0.046809
0.0568041
0.0592613
0.0553643
0.0525755
0.0581766
0.0675687
0.0769554
0.0856385
0.0937785
0.100909
0.108307
0.117959
0.133085
0.134716
0.123042
0.108594
0.100343
0.10226
0.12859
0.170388
0.235133
0.333412
0.465341
0.65305
1.02998
1.29416
1.26039
1.07444
0.84698
0.608246
0.39063
0.22254
0.101796
0.0328309
0.00398458
0.000232731
1.4272e-05
0.000108602
0.0233969
0.00744838
0.00421366
0.00227269
0.00162414
0.00117861
0.00101868
0.00088805
0.000863008
0.000892375
0.000983378
0.00108806
0.00118162
0.0013047
0.00147966
0.00165278
0.00182786
0.00202375
0.00224274
0.0025029
0.00279862
0.00313516
0.00349585
0.00387087
0.00430539
0.00484841
0.00549346
0.00621222
0.00696844
0.00777306
0.00863671
0.00955994
0.0105876
0.0117813
0.0131939
0.0148977
0.0171158
0.02016
0.0245082
0.030939
0.0410282
0.0570761
0.0840597
0.131133
0.214017
0.359271
0.51439
0.560865
0.492989
0.38258
0.292676
0.225213
0.164495
0.101313
0.0474326
0.0134332
0.00113553
4.9797e-05
8.52708e-06
0.000110004
0.0354337
0.0244821
0.0188258
0.0126198
0.00999565
0.00770785
0.00658503
0.00532884
0.00450246
0.00379393
0.00340749
0.00333769
0.00342516
0.00355702
0.00363283
0.00357978
0.00341368
0.00324469
0.00307127
0.00294735
0.00285874
0.00282187
0.00282853
0.00287297
0.00292884
0.00298572
0.0030399
0.00309919
0.00318078
0.00330147
0.00348294
0.00373623
0.00407003
0.00449769
0.00504196
0.00573699
0.00663737
0.00782523
0.00945826
0.0118366
0.0155494
0.0216392
0.0322083
0.0509113
0.0833703
0.137918
0.186143
0.198777
0.169784
0.12235
0.0878095
0.0697908
0.0549994
0.0359272
0.0168913
0.00378186
0.000218598
1.00255e-05
1.14679e-05
0.000113401
0.0708145
0.0827267
0.0887973
0.0770528
0.072346
0.0659817
0.0624183
0.0570334
0.0525871
0.0478287
0.0444379
0.0425233
0.041519
0.0407512
0.0396964
0.0379939
0.0355545
0.0330831
0.0305326
0.0282407
0.0261119
0.02428
0.0226665
0.0212151
0.019718
0.0181574
0.0164895
0.0147475
0.0130406
0.0114759
0.0101632
0.00914871
0.00842302
0.00798281
0.00782476
0.00792758
0.00826729
0.00880738
0.0095255
0.0104387
0.0116275
0.0132969
0.0159603
0.0204493
0.0283131
0.0377766
0.044603
0.04335
0.0345456
0.0245445
0.0182269
0.0149726
0.0127412
0.00854154
0.00388165
0.000637519
4.72286e-05
2.7119e-05
3.77587e-05
0.000134139
0.133602
0.228695
0.368387
0.428693
0.482778
0.518553
0.54674
0.563985
0.571463
0.570212
0.560182
0.545225
0.525923
0.50484
0.482404
0.459876
0.436333
0.412476
0.388096
0.363759
0.338703
0.314014
0.289484
0.265937
0.242784
0.220422
0.198714
0.178038
0.158476
0.140425
0.123942
0.109194
0.0961525
0.0847938
0.0750778
0.0669972
0.0604618
0.0552903
0.051305
0.048376
0.0464216
0.0454168
0.0455167
0.0465155
0.0472317
0.0440423
0.0369411
0.0280769
0.0195052
0.0126187
0.00784267
0.00480357
0.00301364
0.00167634
0.000787948
0.000326153
0.000242754
0.000217945
0.00021658
0.000258356
0.132582
0.202221
0.337909
0.397248
0.447537
0.481662
0.508335
0.526509
0.535784
0.535449
0.525535
0.508519
0.486252
0.463055
0.439892
0.41787
0.395603
0.373026
0.349542
0.325905
0.301958
0.278927
0.256877
0.236956
0.218648
0.202198
0.187305
0.173637
0.160602
0.148186
0.136608
0.126194
0.116964
0.10895
0.102109
0.0965775
0.092508
0.0900024
0.0889236
0.0886974
0.0884531
0.0871669
0.0842945
0.079624
0.0723689
0.0620593
0.0502358
0.03852
0.0279439
0.0191351
0.0125166
0.00778846
0.00465432
0.00257837
0.00120136
0.000365102
0.000220534
0.000200016
0.000203387
0.000230461
0.0987579
0.169032
0.287156
0.338656
0.381076
0.410951
0.432729
0.447018
0.45313
0.450752
0.44016
0.423715
0.403125
0.38213
0.362537
0.344212
0.326101
0.308218
0.28999
0.272557
0.255709
0.240157
0.225692
0.213012
0.201876
0.19239
0.184085
0.17637
0.16843
0.160075
0.151427
0.142905
0.134706
0.126906
0.119744
0.113739
0.109431
0.106777
0.104848
0.103473
0.102354
0.100702
0.0984879
0.0950909
0.0893263
0.080025
0.0674129
0.0538792
0.0409922
0.0297312
0.0208256
0.014053
0.0092004
0.00544396
0.00249502
0.000557872
0.000200421
0.000176805
0.000184749
0.000209665
0.0908385
0.140577
0.222715
0.257249
0.288483
0.312619
0.328839
0.339095
0.342526
0.338981
0.328982
0.315036
0.299905
0.285395
0.271602
0.259112
0.246889
0.235047
0.223184
0.212114
0.201553
0.191879
0.182958
0.174962
0.167648
0.161103
0.154981
0.148621
0.141433
0.133767
0.126586
0.120373
0.11464
0.109719
0.105947
0.102499
0.0996738
0.09922
0.102329
0.11061
0.123161
0.13533
0.142032
0.14415
0.144879
0.138085
0.118128
0.0934875
0.0695865
0.0503113
0.0361448
0.0259654
0.0188511
0.0122287
0.00591542
0.00125834
0.000210446
0.000154321
0.000165073
0.000189871
0.0854555
0.112451
0.156299
0.17138
0.190492
0.207021
0.218885
0.22685
0.229874
0.228076
0.222102
0.213819
0.20463
0.19574
0.187085
0.17912
0.171008
0.162791
0.15417
0.145598
0.137202
0.129526
0.122703
0.11699
0.112643
0.110107
0.109625
0.112391
0.119921
0.134098
0.15918
0.182434
0.192663
0.200324
0.210434
0.20955
0.20003
0.196583
0.20141
0.22612
0.267305
0.302625
0.314427
0.315696
0.337414
0.358619
0.325203
0.260402
0.18357
0.11485
0.0733973
0.0493548
0.0368488
0.0258714
0.013436
0.00319555
0.000329038
0.000140258
0.000148682
0.000174788
0.0801265
0.0751499
0.0908238
0.101435
0.112694
0.123877
0.131696
0.137882
0.140954
0.140793
0.137532
0.132445
0.12652
0.120472
0.11445
0.108787
0.103428
0.0986835
0.0950691
0.093234
0.0928359
0.0930603
0.0947699
0.0983659
0.103085
0.110086
0.121616
0.139882
0.169012
0.211309
0.256883
0.300042
0.341004
0.38337
0.426216
0.460631
0.482947
0.507287
0.545819
0.591878
0.652297
0.68949
0.664041
0.602741
0.534259
0.468288
0.385358
0.285768
0.188443
0.118824
0.0830338
0.0686854