/*--------------------------------*- C++ -*----------------------------------*\
| =========                 |                                                 |
| \\      /  F ield         | OpenFOAM: The Open Source CFD Toolbox           |
|  \\    /   O peration     | Version:  2.1.1                                 |
|   \\  /    A nd           | Web:      www.OpenFOAM.org                      |
|    \\/     M anipulation  |                                                 |
\*---------------------------------------------------------------------------*/
FoamFile
{
    version     2.0;
    format      ascii;
    class       volScalarField;
    location    "0.00125";
    object      Lzero;
}
// * * * * * * * * * * * * * * * * * * * * * * * * * * * * * * * * * * * * * //

dimensions      [0 1 0 0 0 0 0];

internalField   nonuniform List<scalar> 
36520
(
9.2529e-05
9.24382e-05
9.25715e-05
9.26187e-05
9.26304e-05
9.26299e-05
9.26354e-05
9.26868e-05
9.28019e-05
9.29723e-05
9.31632e-05
9.33334e-05
9.34317e-05
9.32779e-05
9.31048e-05
9.30029e-05
9.29796e-05
9.30001e-05
9.30329e-05
9.30648e-05
9.30794e-05
9.30863e-05
9.3093e-05
9.31046e-05
9.31146e-05
9.313e-05
9.31529e-05
9.31843e-05
9.32238e-05
9.32699e-05
9.33201e-05
9.33698e-05
9.34143e-05
9.34505e-05
9.34757e-05
9.34914e-05
9.34993e-05
9.35031e-05
9.35071e-05
9.35205e-05
9.35596e-05
9.36494e-05
9.38106e-05
9.4028e-05
9.42442e-05
9.44057e-05
9.47381e-05
9.50819e-05
9.53333e-05
9.556e-05
9.57439e-05
9.5823e-05
9.63663e-05
9.77698e-05
9.8528e-05
9.50039e-05
9.33347e-05
9.31648e-05
9.30327e-05
9.31384e-05
0.000194762
6.47659e-05
6.18108e-05
5.70906e-05
5.39824e-05
5.13626e-05
4.94356e-05
4.73355e-05
4.51757e-05
4.28812e-05
4.13329e-05
4.13957e-05
4.15937e-05
4.15766e-05
4.20829e-05
4.26211e-05
4.30218e-05
4.32551e-05
4.3301e-05
4.31935e-05
4.297e-05
4.26871e-05
4.23115e-05
4.18367e-05
4.12757e-05
4.06866e-05
4.0031e-05
3.9263e-05
3.83704e-05
3.73347e-05
3.61646e-05
3.49168e-05
3.37065e-05
3.2671e-05
3.19663e-05
3.16636e-05
3.1665e-05
3.17855e-05
3.18648e-05
3.17388e-05
3.13269e-05
3.07371e-05
3.0214e-05
2.98694e-05
2.94349e-05
2.82169e-05
2.57957e-05
2.27061e-05
2.02255e-05
1.86386e-05
1.76018e-05
1.61051e-05
1.30652e-05
9.50878e-06
6.0004e-06
2.97262e-06
3.15707e-06
1.15108e-05
1.67064e-05
0.000194244
0.000194931
4.09675e-05
3.65341e-05
3.13764e-05
2.82531e-05
2.5607e-05
2.3857e-05
2.17717e-05
1.93e-05
1.57988e-05
1.13318e-05
7.59399e-06
6.05879e-06
6.59885e-06
1.07807e-05
1.71159e-05
1.90762e-05
1.93853e-05
1.9233e-05
1.89593e-05
1.86101e-05
1.82701e-05
1.79327e-05
1.7585e-05
1.72141e-05
1.67696e-05
1.62201e-05
1.55096e-05
1.46638e-05
1.37239e-05
1.27915e-05
1.20199e-05
1.15455e-05
1.14218e-05
1.16084e-05
1.20004e-05
1.25141e-05
1.30731e-05
1.36649e-05
1.42835e-05
1.49487e-05
1.57243e-05
1.67005e-05
1.79273e-05
1.93664e-05
2.09111e-05
2.25559e-05
2.43889e-05
2.62317e-05
2.79372e-05
2.84886e-05
2.69735e-05
2.33385e-05
1.74191e-05
1.19468e-05
6.38664e-06
2.19573e-06
1.57223e-06
8.38325e-06
0.000194427
0.000194975
2.56507e-05
2.04218e-05
1.5095e-05
1.14098e-05
8.34436e-06
6.6687e-06
5.3161e-06
4.54245e-06
4.33563e-06
4.72755e-06
5.42067e-06
6.37634e-06
6.08785e-06
4.51055e-06
3.85858e-06
5.7778e-06
7.64625e-06
8.27914e-06
8.53334e-06
8.68933e-06
8.93199e-06
9.27127e-06
9.62244e-06
9.90557e-06
1.00919e-05
1.02564e-05
1.04354e-05
1.06385e-05
1.08754e-05
1.11509e-05
1.14638e-05
1.18033e-05
1.21616e-05
1.25568e-05
1.31131e-05
1.39328e-05
1.47236e-05
1.5311e-05
1.58589e-05
1.64464e-05
1.7151e-05
1.80332e-05
1.92046e-05
2.07567e-05
2.274e-05
2.52406e-05
2.84597e-05
3.28024e-05
3.72728e-05
3.89938e-05
3.71999e-05
3.37333e-05
2.84551e-05
2.05272e-05
1.23468e-05
4.73115e-06
1.18734e-06
4.49137e-06
0.000194465
0.000195087
1.13103e-05
6.19581e-06
3.94891e-06
3.92591e-06
4.56765e-06
5.59675e-06
6.94169e-06
8.70901e-06
1.09673e-05
1.35995e-05
1.61662e-05
1.85815e-05
1.76765e-05
1.33198e-05
8.75496e-06
6.9054e-06
7.39226e-06
8.58208e-06
9.91804e-06
1.12744e-05
1.25328e-05
1.36652e-05
1.47566e-05
1.58405e-05
1.68974e-05
1.80169e-05
1.92418e-05
2.05346e-05
2.18972e-05
2.33166e-05
2.47152e-05
2.586e-05
2.64374e-05
2.62589e-05
2.47567e-05
2.22681e-05
2.0161e-05
1.92872e-05
1.9792e-05
2.0556e-05
2.11271e-05
2.17674e-05
2.26303e-05
2.39697e-05
2.58981e-05
2.86278e-05
3.22949e-05
3.70824e-05
4.32614e-05
4.68889e-05
4.6905e-05
4.41098e-05
3.90754e-05
3.18124e-05
2.09096e-05
9.29863e-06
2.53628e-06
1.64166e-06
0.000194494
0.000195571
4.00304e-06
4.7909e-06
6.57201e-06
8.89047e-06
1.16612e-05
1.47217e-05
1.85275e-05
2.32745e-05
2.90952e-05
3.54005e-05
4.09033e-05
4.43176e-05
4.2526e-05
3.55332e-05
2.66878e-05
2.07253e-05
1.91826e-05
2.08881e-05
2.4284e-05
2.79079e-05
3.08409e-05
3.30855e-05
3.5132e-05
3.73507e-05
3.97079e-05
4.21669e-05
4.54466e-05
4.93646e-05
5.34715e-05
5.77106e-05
6.19599e-05
6.54354e-05
6.69181e-05
6.56117e-05
6.16002e-05
5.59457e-05
4.98213e-05
4.42777e-05
3.90278e-05
3.44068e-05
3.16095e-05
3.01488e-05
3.00817e-05
3.0834e-05
3.22079e-05
3.47517e-05
3.8777e-05
4.38845e-05
4.93032e-05
5.32377e-05
5.46772e-05
5.3686e-05
4.99648e-05
4.26633e-05
3.14521e-05
1.62301e-05
5.1953e-06
1.53395e-06
0.00019466
0.000195917
8.47896e-06
1.25127e-05
1.74704e-05
2.25483e-05
2.81183e-05
3.3732e-05
4.04175e-05
4.84332e-05
5.80991e-05
6.80826e-05
7.61475e-05
7.99037e-05
7.93574e-05
7.48165e-05
6.69361e-05
6.07374e-05
6.00101e-05
6.25796e-05
6.58387e-05
6.91194e-05
7.1899e-05
7.39707e-05
7.53954e-05
7.67523e-05
7.82965e-05
7.96362e-05
8.19793e-05
8.56242e-05
9.04945e-05
9.58199e-05
0.000101146
0.000105869
0.000108953
0.000109295
0.000106685
0.000101407
9.40147e-05
8.61323e-05
7.81546e-05
7.0126e-05
6.29505e-05
5.52291e-05
4.80538e-05
4.51199e-05
4.44722e-05
4.52243e-05
4.73991e-05
5.08958e-05
5.44372e-05
5.71476e-05
5.82961e-05
5.75725e-05
5.52294e-05
5.06822e-05
4.14626e-05
2.5293e-05
9.66672e-06
2.70215e-06
0.000195484
0.000194589
1.9004e-05
2.60118e-05
3.46797e-05
4.22772e-05
5.00465e-05
5.69862e-05
6.49942e-05
7.37671e-05
8.40957e-05
9.40892e-05
0.000101812
0.00010685
0.000111147
0.000114504
0.000116546
0.000118044
0.000119761
0.000121234
0.000121574
0.000121119
0.000120222
0.000119386
0.000118712
0.000117857
0.000117227
0.000116985
0.000117179
0.000117873
0.000119294
0.000121576
0.000124299
0.000126909
0.000128863
0.00012969
0.000129025
0.000126515
0.000121917
0.000115627
0.000108141
9.99652e-05
9.17735e-05
8.37189e-05
7.60507e-05
6.95761e-05
6.39751e-05
5.92133e-05
5.71234e-05
5.67678e-05
5.74198e-05
5.80819e-05
5.80551e-05
5.7298e-05
5.62463e-05
5.4274e-05
4.84963e-05
3.52937e-05
1.62526e-05
5.00286e-06
0.000198703
0.000194908
2.23081e-05
3.11445e-05
3.86641e-05
4.59698e-05
5.23621e-05
5.75643e-05
6.31349e-05
6.92426e-05
7.61794e-05
8.349e-05
9.03542e-05
9.61039e-05
0.000101324
0.000106355
0.00011119
0.000115825
0.000120044
0.000123368
0.000125697
0.000127324
0.0001286
0.000129738
0.000130745
0.000131417
0.000131151
0.000129759
0.000127805
0.000125975
0.000124745
0.000124398
0.000124772
0.000125549
0.000126421
0.000127115
0.000127267
0.000126496
0.000124501
0.000121083
0.000116233
0.000110248
0.000103535
9.65362e-05
8.94297e-05
8.2481e-05
7.6397e-05
7.15858e-05
6.8064e-05
6.66587e-05
6.53773e-05
6.25048e-05
5.91149e-05
5.61598e-05
5.53825e-05
5.69397e-05
5.71144e-05
4.97738e-05
2.77835e-05
9.70608e-06
0.000207218
0.000194622
2.04277e-05
2.95935e-05
3.56369e-05
4.31911e-05
4.79835e-05
5.2074e-05
5.68962e-05
6.3281e-05
7.14383e-05
8.0851e-05
8.9759e-05
9.69202e-05
0.000102825
0.000107578
0.000110931
0.000113578
0.000116753
0.000121055
0.000126218
0.000131748
0.000137636
0.000143633
0.000148758
0.000151742
0.000152153
0.000150299
0.00014723
0.000144168
0.000141755
0.000140364
0.00014011
0.000140846
0.000142238
0.000143748
0.000144761
0.000144752
0.000143341
0.000140194
0.000135147
0.000128324
0.000119621
0.000109313
9.79685e-05
8.63975e-05
7.59507e-05
6.85296e-05
6.42217e-05
6.13528e-05
5.9581e-05
5.82941e-05
5.73946e-05
5.78184e-05
6.07944e-05
6.4776e-05
6.55462e-05
5.69775e-05
3.17583e-05
1.12151e-05
0.000209196
0.00019484
2.0329e-05
3.20858e-05
4.24761e-05
4.70685e-05
5.09415e-05
5.50782e-05
6.07649e-05
6.87588e-05
8.00393e-05
9.34597e-05
0.000105566
0.000114907
0.000122802
0.000129738
0.000135158
0.000139504
0.000143695
0.0001482
0.000152984
0.000157951
0.000162933
0.000167619
0.000171523
0.000174124
0.000174702
0.000172983
0.000169086
0.000164732
0.000161574
0.000160098
0.00016033
0.000161861
0.000164085
0.000166305
0.000167842
0.000168234
0.000167211
0.000164422
0.000159725
0.000153147
0.000144045
0.000131903
0.000116602
9.9124e-05
8.22375e-05
6.95857e-05
6.32382e-05
6.09593e-05
5.96117e-05
5.84928e-05
5.74351e-05
5.69224e-05
5.77716e-05
5.91733e-05
5.80961e-05
5.03115e-05
2.92572e-05
1.08235e-05
0.000210429
0.000195541
2.14718e-05
3.04858e-05
3.95699e-05
4.49812e-05
5.02008e-05
5.55802e-05
6.25626e-05
7.1925e-05
8.43112e-05
9.83295e-05
0.000109763
0.000118911
0.000127935
0.000137076
0.000145431
0.000152665
0.000158479
0.0001629
0.000166584
0.000170115
0.000173518
0.000176719
0.000179545
0.000181637
0.000182407
0.000181129
0.000176995
0.000170218
0.000164742
0.000161867
0.000161447
0.000163139
0.000166052
0.000169049
0.000171406
0.000172473
0.000171534
0.000168477
0.00016308
0.000155735
0.000145338
0.000130824
0.000113083
9.30042e-05
7.37637e-05
6.07752e-05
5.69529e-05
5.96527e-05
6.21713e-05
6.31255e-05
6.40119e-05
6.31489e-05
6.09207e-05
5.72752e-05
5.07543e-05
3.89861e-05
2.07708e-05
7.39284e-06
0.000206434
0.000195166
2.22245e-05
2.76226e-05
3.54717e-05
4.20278e-05
5.00356e-05
5.67241e-05
6.46184e-05
7.39062e-05
8.51321e-05
9.63697e-05
0.000104939
0.000113122
0.000122352
0.000132558
0.000142705
0.000151928
0.000159915
0.000165827
0.000170212
0.000173863
0.000176842
0.000179347
0.000181415
0.00018268
0.000182431
0.000179954
0.000174939
0.000167545
0.000161391
0.000158853
0.000159555
0.00016198
0.00016502
0.000167843
0.000169441
0.000169037
0.00016662
0.000162617
0.000156749
0.000148253
0.000136187
0.000119885
0.0001003
8.11436e-05
6.61174e-05
5.81998e-05
5.89035e-05
6.62107e-05
7.10057e-05
7.26899e-05
7.20023e-05
6.89811e-05
6.47257e-05
5.93243e-05
5.12147e-05
3.8252e-05
2.0135e-05
7.18899e-06
0.00020621
0.000194567
2.44024e-05
3.1229e-05
4.04023e-05
4.79877e-05
5.38334e-05
5.76005e-05
6.16202e-05
6.71795e-05
7.38726e-05
8.08523e-05
8.87284e-05
9.73273e-05
0.000107098
0.000118353
0.000130736
0.000142848
0.000153472
0.000161602
0.000167516
0.000172387
0.000176216
0.000178921
0.000180411
0.000180355
0.000178611
0.000174988
0.000169034
0.000162923
0.000159049
0.000157622
0.000158391
0.000160455
0.000163017
0.000165242
0.000166295
0.000165632
0.000163006
0.000158442
0.000151851
0.000143354
0.000132416
0.000118103
0.00010013
8.14157e-05
6.66517e-05
5.84043e-05
5.73824e-05
6.10381e-05
6.44536e-05
6.57321e-05
6.55019e-05
6.49239e-05
6.43801e-05
6.2927e-05
5.78819e-05
4.7094e-05
2.70744e-05
1.00085e-05
0.000209027
0.0001944
1.86091e-05
2.65824e-05
3.24413e-05
3.74674e-05
4.2181e-05
4.7691e-05
5.32832e-05
5.74985e-05
6.14359e-05
6.68017e-05
7.32751e-05
8.10231e-05
9.11176e-05
0.00010341
0.000117527
0.000132036
0.000144065
0.000152661
0.000158268
0.0001622
0.000164834
0.000166092
0.000165309
0.000162407
0.000157619
0.000152128
0.000147211
0.000143551
0.000141368
0.000140716
0.000141307
0.000142651
0.000144033
0.000144538
0.000143187
0.00013956
0.000133906
0.000126998
0.000119588
0.00011177
0.000102822
9.24506e-05
8.09238e-05
6.94218e-05
6.01864e-05
5.4677e-05
5.30765e-05
5.39712e-05
5.55002e-05
5.7221e-05
5.94735e-05
6.23221e-05
6.50061e-05
6.50422e-05
5.94975e-05
4.63102e-05
2.4487e-05
8.5037e-06
0.000204406
0.000194648
1.70679e-05
2.84581e-05
3.56548e-05
4.20697e-05
4.76787e-05
5.23715e-05
5.73809e-05
6.37687e-05
7.12496e-05
7.83671e-05
8.60528e-05
9.65617e-05
0.000108869
0.000120072
0.000129341
0.000136696
0.000142193
0.000145558
0.000147813
0.000149307
0.000149985
0.000149733
0.000148154
0.000144877
0.000140409
0.000135974
0.000132567
0.000130423
0.000129378
0.000129034
0.000129143
0.000129258
0.000128664
0.000126989
0.000124004
0.000119523
0.000113694
0.00010709
0.000100294
9.35991e-05
8.67097e-05
7.93986e-05
7.17787e-05
6.46267e-05
5.90956e-05
5.59498e-05
5.56817e-05
5.75996e-05
5.95493e-05
6.07627e-05
6.18408e-05
6.3188e-05
6.47484e-05
6.42496e-05
5.79706e-05
4.32378e-05
2.18257e-05
7.34485e-06
0.000202321
0.000195435
1.69297e-05
2.52527e-05
3.40443e-05
4.28547e-05
4.95582e-05
5.49775e-05
6.12462e-05
6.92869e-05
7.9635e-05
9.0888e-05
9.96286e-05
0.000104032
0.000107038
0.000110109
0.000114322
0.000118756
0.000122613
0.000125888
0.000128507
0.000130355
0.000131255
0.000130624
0.000128507
0.000124986
0.00012103
0.000117568
0.000115455
0.000115462
0.000117454
0.00012048
0.000123609
0.000126195
0.000127179
0.000125511
0.000121576
0.000115965
0.000109114
0.000101498
9.35714e-05
8.53905e-05
7.77821e-05
7.13252e-05
6.60271e-05
6.20107e-05
5.96748e-05
5.94266e-05
6.117e-05
6.32449e-05
6.34528e-05
6.18211e-05
5.97002e-05
5.8258e-05
5.75552e-05
5.52823e-05
4.72644e-05
3.10356e-05
1.35432e-05
4.11713e-06
0.000197487
0.000196064
7.62121e-06
1.15993e-05
1.66373e-05
2.20783e-05
2.74953e-05
3.25896e-05
3.80343e-05
4.44973e-05
5.24477e-05
6.0744e-05
6.68974e-05
6.95807e-05
6.93795e-05
6.88842e-05
6.82114e-05
6.58619e-05
6.44745e-05
6.67558e-05
7.01598e-05
7.38493e-05
7.67969e-05
7.7299e-05
7.48267e-05
6.98255e-05
6.3588e-05
5.84019e-05
5.59261e-05
5.64797e-05
5.85181e-05
6.03193e-05
6.14658e-05
6.21365e-05
6.28263e-05
6.35669e-05
6.27248e-05
6.0946e-05
5.8246e-05
5.51618e-05
5.18265e-05
4.90973e-05
4.77966e-05
4.75697e-05
4.90532e-05
5.17933e-05
5.53648e-05
5.95463e-05
6.25341e-05
6.30776e-05
6.21354e-05
6.03824e-05
5.81904e-05
5.534e-05
5.23507e-05
4.79867e-05
3.87037e-05
2.23176e-05
8.3366e-06
2.35367e-06
0.000195301
0.000195372
4.41012e-06
4.7931e-06
6.74219e-06
9.32587e-06
1.2073e-05
1.4861e-05
1.77058e-05
2.08511e-05
2.43859e-05
2.79405e-05
3.06625e-05
3.21995e-05
3.14596e-05
2.95191e-05
2.66494e-05
2.26776e-05
2.0049e-05
2.02352e-05
2.23566e-05
2.57373e-05
2.86166e-05
2.95571e-05
2.81482e-05
2.48373e-05
2.10749e-05
1.89322e-05
1.88445e-05
1.92247e-05
1.96776e-05
2.01097e-05
2.05345e-05
2.10324e-05
2.16447e-05
2.22957e-05
2.29694e-05
2.37109e-05
2.44806e-05
2.52608e-05
2.6111e-05
2.72289e-05
2.88288e-05
3.10894e-05
3.4099e-05
3.78212e-05
4.18535e-05
4.60105e-05
4.91962e-05
5.13249e-05
5.19455e-05
5.2165e-05
5.16979e-05
4.95285e-05
4.59975e-05
4.06975e-05
3.0797e-05
1.5705e-05
4.93488e-06
1.45263e-06
0.000194689
0.000195032
1.36304e-05
6.18165e-06
3.5013e-06
3.61553e-06
4.32471e-06
5.23289e-06
6.18767e-06
7.22297e-06
8.32564e-06
9.42279e-06
1.04343e-05
1.1255e-05
1.09728e-05
9.80315e-06
8.37917e-06
7.4008e-06
7.69738e-06
8.40245e-06
9.07764e-06
9.91637e-06
1.08206e-05
1.13312e-05
1.13855e-05
1.16239e-05
1.29947e-05
1.45289e-05
1.50503e-05
1.54944e-05
1.60132e-05
1.65945e-05
1.71988e-05
1.7766e-05
1.82592e-05
1.86665e-05
1.90001e-05
1.9317e-05
1.96618e-05
2.00943e-05
2.07038e-05
2.16128e-05
2.29441e-05
2.47851e-05
2.71414e-05
3.01309e-05
3.38099e-05
3.76864e-05
3.97235e-05
3.99983e-05
4.01615e-05
4.11732e-05
4.2007e-05
4.13328e-05
3.82498e-05
3.26347e-05
2.37199e-05
1.03046e-05
2.85779e-06
1.34257e-06
0.000194547
0.000194748
2.58211e-05
1.81309e-05
1.25751e-05
9.56948e-06
7.21141e-06
5.77767e-06
4.57103e-06
3.75611e-06
3.31411e-06
3.26676e-06
3.44586e-06
3.71789e-06
3.81198e-06
3.99488e-06
4.94353e-06
6.93422e-06
8.31742e-06
8.89446e-06
9.11301e-06
9.14006e-06
9.22477e-06
9.64195e-06
1.05715e-05
1.18751e-05
1.28184e-05
1.32036e-05
1.34057e-05
1.3583e-05
1.37525e-05
1.39106e-05
1.4056e-05
1.41823e-05
1.429e-05
1.43839e-05
1.44815e-05
1.46211e-05
1.48443e-05
1.52061e-05
1.57815e-05
1.66728e-05
1.79754e-05
1.97554e-05
2.19741e-05
2.45243e-05
2.69636e-05
2.85899e-05
2.91745e-05
2.90332e-05
2.89543e-05
2.98725e-05
3.11093e-05
3.13679e-05
2.94116e-05
2.48376e-05
1.64295e-05
6.64704e-06
1.70122e-06
2.38785e-06
0.000194511
0.000194691
4.10685e-05
3.31637e-05
2.65796e-05
2.34425e-05
2.10149e-05
1.9462e-05
1.76847e-05
1.5859e-05
1.38622e-05
1.2047e-05
1.06837e-05
1.01766e-05
1.10483e-05
1.26961e-05
1.41076e-05
1.48866e-05
1.53288e-05
1.56112e-05
1.57849e-05
1.58725e-05
1.59566e-05
1.61292e-05
1.63998e-05
1.66453e-05
1.67894e-05
1.68591e-05
1.6741e-05
1.63358e-05
1.57417e-05
1.50957e-05
1.44757e-05
1.39169e-05
1.34585e-05
1.3102e-05
1.28309e-05
1.26502e-05
1.26076e-05
1.27758e-05
1.32286e-05
1.40446e-05
1.52812e-05
1.69764e-05
1.91279e-05
2.18344e-05
2.39691e-05
2.44403e-05
2.3211e-05
2.12254e-05
1.91647e-05
1.79136e-05
1.76212e-05
1.75511e-05
1.63566e-05
1.3288e-05
8.57579e-06
2.90607e-06
8.91049e-07
7.0196e-06
0.000194348
0.000194878
6.59046e-05
5.98306e-05
5.38002e-05
5.04824e-05
4.76855e-05
4.57164e-05
4.35688e-05
4.14749e-05
3.95678e-05
3.84549e-05
3.83534e-05
3.83032e-05
3.82334e-05
3.83766e-05
3.86795e-05
3.90917e-05
3.95712e-05
4.00353e-05
4.04799e-05
4.09057e-05
4.13122e-05
4.16791e-05
4.1979e-05
4.21788e-05
4.22512e-05
4.21468e-05
4.18991e-05
4.14901e-05
4.08969e-05
4.01243e-05
3.90963e-05
3.77252e-05
3.60165e-05
3.40761e-05
3.20167e-05
2.99213e-05
2.78573e-05
2.57712e-05
2.35799e-05
2.13818e-05
1.93155e-05
1.7604e-05
1.63106e-05
1.54245e-05
1.46953e-05
1.38471e-05
1.28386e-05
1.17707e-05
1.07699e-05
9.73752e-06
8.48938e-06
7.49317e-06
6.84865e-06
5.71075e-06
3.39363e-06
1.99323e-06
9.73993e-06
1.63154e-05
0.000194178
9.68338e-05
9.6842e-05
9.68953e-05
9.69362e-05
9.69483e-05
9.6964e-05
9.69956e-05
9.70595e-05
9.71525e-05
9.72633e-05
9.73754e-05
9.74663e-05
9.7515e-05
9.74954e-05
9.74498e-05
9.74022e-05
9.73877e-05
9.74024e-05
9.74321e-05
9.746e-05
9.74786e-05
9.74846e-05
9.74814e-05
9.74736e-05
9.74698e-05
9.7481e-05
9.75087e-05
9.75372e-05
9.75769e-05
9.76237e-05
9.76726e-05
9.77195e-05
9.77606e-05
9.77938e-05
9.78193e-05
9.78393e-05
9.78588e-05
9.78849e-05
9.79244e-05
9.79875e-05
9.80872e-05
9.82353e-05
9.84286e-05
9.86601e-05
9.88966e-05
9.90692e-05
9.92972e-05
9.95675e-05
9.98553e-05
0.000100153
0.000100423
0.000100623
0.000100605
0.000100881
0.000102492
0.000100404
9.75673e-05
9.73843e-05
9.72741e-05
9.74209e-05
9.72618e-05
9.72912e-05
9.73282e-05
9.73853e-05
9.74071e-05
9.74251e-05
9.74406e-05
9.74622e-05
9.74913e-05
9.75291e-05
9.7576e-05
9.76264e-05
9.76828e-05
9.77369e-05
9.77956e-05
9.7813e-05
9.78253e-05
9.78369e-05
9.78463e-05
9.78526e-05
9.78583e-05
9.78619e-05
9.78658e-05
9.7869e-05
9.78742e-05
9.78841e-05
9.79019e-05
9.79293e-05
9.79656e-05
9.80076e-05
9.80504e-05
9.80902e-05
9.81245e-05
9.81512e-05
9.81674e-05
9.81739e-05
9.81751e-05
9.81807e-05
9.82007e-05
9.82491e-05
9.83433e-05
9.85015e-05
9.8704e-05
9.8981e-05
9.92206e-05
9.93408e-05
9.94663e-05
9.96348e-05
9.98386e-05
0.000100074
0.00010033
0.000100564
0.000100703
0.000101097
0.000103305
0.000103025
9.81024e-05
9.77122e-05
9.76112e-05
9.77622e-05
0.000194795
6.39188e-05
5.95289e-05
5.41752e-05
5.09363e-05
4.83837e-05
4.68714e-05
4.55176e-05
4.45349e-05
4.36213e-05
4.28573e-05
4.20596e-05
4.14471e-05
4.08502e-05
4.04408e-05
4.01444e-05
4.00401e-05
4.01252e-05
4.0326e-05
4.05532e-05
4.07589e-05
4.08951e-05
4.09196e-05
4.08178e-05
4.06002e-05
4.03042e-05
3.99522e-05
3.95462e-05
3.9049e-05
3.84224e-05
3.76087e-05
3.65469e-05
3.52495e-05
3.38576e-05
3.25024e-05
3.13004e-05
3.01954e-05
2.90831e-05
2.78709e-05
2.64374e-05
2.47049e-05
2.27039e-05
2.05365e-05
1.86855e-05
1.70539e-05
1.56555e-05
1.44199e-05
1.33464e-05
1.2381e-05
1.14345e-05
1.04226e-05
9.29757e-06
8.05502e-06
6.98693e-06
5.79832e-06
3.6353e-06
1.69902e-06
7.9997e-06
1.55429e-05
0.000194185
0.00019484
3.8168e-05
3.1652e-05
2.57529e-05
2.25205e-05
2.00077e-05
1.88045e-05
1.77726e-05
1.72542e-05
1.68124e-05
1.64924e-05
1.61621e-05
1.59307e-05
1.57076e-05
1.55902e-05
1.55056e-05
1.54441e-05
1.54005e-05
1.53288e-05
1.52245e-05
1.50799e-05
1.48783e-05
1.46264e-05
1.43384e-05
1.40089e-05
1.36626e-05
1.33034e-05
1.2949e-05
1.25847e-05
1.22397e-05
1.19415e-05
1.17125e-05
1.15696e-05
1.15239e-05
1.15677e-05
1.16829e-05
1.18606e-05
1.21098e-05
1.24467e-05
1.2881e-05
1.34545e-05
1.42221e-05
1.52664e-05
1.66476e-05
1.85061e-05
2.01293e-05
2.09625e-05
2.07812e-05
1.99875e-05
1.91481e-05
1.83758e-05
1.76004e-05
1.65551e-05
1.48499e-05
1.2255e-05
8.33487e-06
3.01337e-06
8.01652e-07
6.18556e-06
0.000194318
0.000195086
2.32892e-05
1.67461e-05
1.21707e-05
1.00328e-05
8.45471e-06
7.78427e-06
7.20632e-06
6.99626e-06
6.79494e-06
6.65074e-06
6.49605e-06
6.40721e-06
6.37825e-06
6.46203e-06
6.63481e-06
6.87623e-06
7.18201e-06
7.52102e-06
7.8612e-06
8.19428e-06
8.51937e-06
8.82716e-06
9.11759e-06
9.3829e-06
9.64097e-06
9.9067e-06
1.02006e-05
1.05283e-05
1.08974e-05
1.13053e-05
1.17368e-05
1.2162e-05
1.25588e-05
1.29361e-05
1.33395e-05
1.38434e-05
1.45343e-05
1.5493e-05
1.67765e-05
1.85411e-05
2.09716e-05
2.43369e-05
2.88845e-05
3.45926e-05
4.09389e-05
4.43638e-05
4.38654e-05
4.0139e-05
3.54139e-05
3.11968e-05
2.85978e-05
2.70733e-05
2.54019e-05
2.24504e-05
1.60415e-05
7.01025e-06
1.65836e-06
1.86679e-06
0.000194391
0.000195192
1.41852e-05
8.27808e-06
4.88206e-06
3.84749e-06
3.50388e-06
3.59769e-06
3.79147e-06
4.0873e-06
4.44104e-06
4.88292e-06
5.41155e-06
6.04511e-06
6.76536e-06
7.54597e-06
8.35385e-06
9.17147e-06
9.96936e-06
1.07577e-05
1.15369e-05
1.22866e-05
1.29322e-05
1.34586e-05
1.38529e-05
1.41285e-05
1.43089e-05
1.44432e-05
1.4571e-05
1.4718e-05
1.48966e-05
1.51388e-05
1.55018e-05
1.6006e-05
1.65712e-05
1.70846e-05
1.75113e-05
1.79247e-05
1.84511e-05
1.92907e-05
2.06095e-05
2.25742e-05
2.53657e-05
2.92812e-05
3.46026e-05
4.13865e-05
4.98898e-05
6.06847e-05
6.38899e-05
6.03471e-05
5.21537e-05
4.308e-05
3.90848e-05
3.84642e-05
3.64253e-05
3.19802e-05
2.48313e-05
1.3273e-05
3.74479e-06
1.1757e-06
0.000194539
0.000195271
5.30535e-06
2.77008e-06
2.52773e-06
2.87012e-06
3.36008e-06
3.97269e-06
4.67526e-06
5.53598e-06
6.60523e-06
7.98002e-06
9.7199e-06
1.18823e-05
1.44425e-05
1.72905e-05
2.02453e-05
2.3088e-05
2.5509e-05
2.73502e-05
2.88591e-05
3.03197e-05
3.1247e-05
3.15925e-05
3.14022e-05
3.08515e-05
3.0064e-05
2.94171e-05
2.88237e-05
2.8338e-05
2.79911e-05
2.75767e-05
2.68159e-05
2.56714e-05
2.43705e-05
2.3173e-05
2.22044e-05
2.16828e-05
2.16397e-05
2.20192e-05
2.28989e-05
2.44778e-05
2.69312e-05
3.05017e-05
3.54234e-05
4.16835e-05
4.99455e-05
6.18808e-05
7.049e-05
6.92749e-05
6.23806e-05
5.24514e-05
4.62738e-05
4.41395e-05
4.18547e-05
3.8001e-05
3.11587e-05
1.88878e-05
6.21116e-06
1.63293e-06
0.000194848
0.000195428
3.0397e-06
3.48349e-06
4.25455e-06
5.21457e-06
6.48625e-06
8.14054e-06
1.00678e-05
1.25148e-05
1.57256e-05
2.00131e-05
2.56116e-05
3.25499e-05
4.05712e-05
4.90542e-05
5.73347e-05
6.51412e-05
7.20439e-05
7.71939e-05
8.0815e-05
8.36413e-05
8.52363e-05
8.59809e-05
8.60394e-05
8.54705e-05
8.43664e-05
8.30664e-05
8.2076e-05
8.16698e-05
8.234e-05
8.37064e-05
8.47731e-05
8.45656e-05
8.25471e-05
7.86157e-05
7.2617e-05
6.55062e-05
5.81173e-05
5.02397e-05
4.07269e-05
3.57168e-05
3.45476e-05
3.59472e-05
3.94079e-05
4.44568e-05
5.09253e-05
5.94432e-05
6.79983e-05
7.07793e-05
6.84827e-05
6.30804e-05
5.75224e-05
5.25687e-05
4.71465e-05
4.19072e-05
3.50858e-05
2.28339e-05
8.6238e-06
2.29692e-06
0.000195566
0.000196019
6.32481e-06
8.39751e-06
1.06541e-05
1.33643e-05
1.7029e-05
2.16356e-05
2.72765e-05
3.37689e-05
4.15898e-05
5.10156e-05
6.21135e-05
7.43232e-05
8.70941e-05
9.92917e-05
0.000109812
0.000119071
0.000127828
0.000134786
0.00013896
0.000141682
0.000143383
0.000144405
0.000144865
0.000144608
0.00014371
0.000142049
0.000139964
0.000138484
0.000138374
0.00013982
0.000142214
0.00014467
0.000146338
0.000146495
0.000144097
0.000138664
0.000129941
0.000119013
0.000105547
9.14514e-05
7.76205e-05
6.6659e-05
6.04174e-05
5.78266e-05
5.81241e-05
6.15716e-05
6.71924e-05
7.12985e-05
7.06483e-05
6.72302e-05
6.2182e-05
5.64511e-05
5.11736e-05
4.68131e-05
4.07121e-05
2.79895e-05
1.21474e-05
3.59652e-06
0.000197318
0.000195197
1.83821e-05
2.5824e-05
3.13921e-05
3.6059e-05
4.31346e-05
5.17355e-05
5.91906e-05
6.66056e-05
7.66265e-05
8.63097e-05
9.71353e-05
0.000107659
0.000117561
0.000127013
0.000135427
0.000142509
0.000148519
0.000153739
0.000157898
0.000160866
0.000162798
0.000163901
0.000164524
0.000164835
0.000164943
0.000164838
0.000164192
0.000163263
0.000162932
0.000163477
0.000164693
0.000166156
0.000167231
0.000167218
0.000165688
0.000162344
0.00015689
0.000149918
0.00014172
0.000131638
0.000119398
0.000105735
9.218e-05
8.03689e-05
7.14117e-05
6.62315e-05
6.54265e-05
6.77614e-05
6.86499e-05
6.64546e-05
6.21851e-05
5.7367e-05
5.37605e-05
5.15397e-05
4.71639e-05
3.49563e-05
1.73072e-05
5.72908e-06
0.000200322
0.000194848
2.5707e-05
3.61248e-05
4.9145e-05
6.13824e-05
7.31729e-05
8.27452e-05
8.83857e-05
9.28949e-05
9.67233e-05
0.000100356
0.000104366
0.000108583
0.000112622
0.000116791
0.000121393
0.000126369
0.000131407
0.000136225
0.000140514
0.000143982
0.000146538
0.000148236
0.000149229
0.00014977
0.000149957
0.000149811
0.000149634
0.000149825
0.000150157
0.000150429
0.000150625
0.000150643
0.000150255
0.000149274
0.000147368
0.00014419
0.000139445
0.000133181
0.000125554
0.000116567
0.00010638
9.54788e-05
8.44394e-05
7.4379e-05
6.65562e-05
6.16481e-05
5.98653e-05
6.03933e-05
6.05074e-05
5.95492e-05
5.85332e-05
5.85964e-05
6.10228e-05
6.45919e-05
6.43323e-05
5.26044e-05
2.79529e-05
9.78698e-06
0.00020636
0.000194586
2.17393e-05
4.16569e-05
5.31932e-05
6.22496e-05
7.10514e-05
7.91434e-05
8.69703e-05
9.5219e-05
0.000101667
0.000106379
0.000110405
0.000114124
0.000117152
0.000119329
0.000121165
0.000123444
0.000126346
0.00012947
0.000132254
0.000134143
0.000134972
0.00013479
0.000133643
0.000131625
0.000128968
0.000126033
0.000123507
0.000121867
0.000121087
0.000121118
0.000121897
0.000123399
0.000125406
0.000127377
0.000128624
0.000128392
0.000126456
0.000122493
0.000116136
0.000107469
9.72602e-05
8.6288e-05
7.52241e-05
6.50969e-05
5.70163e-05
5.18442e-05
4.96425e-05
4.94772e-05
5.03898e-05
5.22405e-05
5.55851e-05
6.11369e-05
6.83187e-05
7.3958e-05
7.29186e-05
5.82911e-05
3.02504e-05
1.04375e-05
0.000206732
0.000194524
2.77409e-05
2.89183e-05
3.31941e-05
3.75815e-05
4.29751e-05
5.09803e-05
6.28641e-05
7.83998e-05
9.4033e-05
0.000106078
0.000114077
0.00012063
0.000125807
0.000129708
0.000132866
0.000135545
0.000138064
0.000140275
0.000141771
0.000142408
0.000142104
0.000140705
0.000138112
0.000134505
0.000130447
0.000126612
0.000123488
0.000121413
0.000120664
0.000121232
0.000122787
0.000124944
0.000127367
0.000129646
0.000131197
0.000131416
0.000129511
0.000124482
0.000115853
0.000103948
8.97057e-05
7.50187e-05
6.22622e-05
5.25614e-05
4.64673e-05
4.38673e-05
4.36283e-05
4.45078e-05
4.6653e-05
5.04897e-05
5.58308e-05
6.24699e-05
6.91741e-05
7.29187e-05
7.02099e-05
5.60752e-05
2.93878e-05
1.01764e-05
0.000206619
0.000194814
2.17763e-05
3.17489e-05
3.84039e-05
4.3619e-05
4.89447e-05
5.61187e-05
6.63039e-05
7.83987e-05
8.98551e-05
9.93466e-05
0.000107233
0.000115313
0.000122756
0.000128481
0.000132428
0.000135279
0.00013806
0.000140851
0.00014329
0.000145125
0.000146064
0.000145835
0.000144156
0.000141005
0.000136859
0.000132602
0.000129113
0.000126923
0.0001263
0.000127147
0.000129063
0.000131601
0.000134365
0.000136878
0.000138507
0.00013847
0.000136023
0.000130481
0.000121171
0.000108251
9.27197e-05
7.71912e-05
6.36536e-05
5.25779e-05
4.48801e-05
4.12971e-05
4.118e-05
4.22382e-05
4.47409e-05
4.87409e-05
5.39608e-05
6.02032e-05
6.66201e-05
7.03414e-05
6.76363e-05
5.43762e-05
2.89983e-05
1.01422e-05
0.000207254
0.000194248
2.13339e-05
3.38064e-05
4.30902e-05
4.93362e-05
5.50098e-05
6.03321e-05
6.72397e-05
7.64591e-05
8.58073e-05
9.21716e-05
9.76833e-05
0.000103359
0.000109017
0.000114296
0.000119501
0.000124667
0.000130025
0.000135682
0.000141338
0.000146573
0.00015074
0.000153411
0.000154309
0.000153149
0.000150228
0.000146933
0.000144194
0.000142111
0.000141291
0.000142085
0.000144084
0.00014662
0.000149211
0.000151386
0.000152533
0.000152047
0.000149318
0.000143898
0.000135415
0.000123845
0.000109723
9.44363e-05
7.94784e-05
6.58541e-05
5.54193e-05
4.93043e-05
4.71237e-05
4.7774e-05
4.98346e-05
5.23945e-05
5.55212e-05
5.91761e-05
6.33453e-05
6.62954e-05
6.45075e-05
5.34592e-05
2.93724e-05
1.0444e-05
0.000209305
0.000194796
3.21635e-05
4.01743e-05
4.6851e-05
5.29089e-05
6.00654e-05
6.64394e-05
7.30214e-05
8.13067e-05
9.05937e-05
9.92876e-05
0.000107043
0.00011487
0.000122941
0.000131283
0.000139403
0.000146831
0.000153722
0.000160288
0.000166202
0.000170919
0.000174391
0.000176527
0.00017718
0.000176369
0.000174165
0.000170838
0.000167238
0.000164165
0.00016233
0.000162377
0.000163576
0.000164899
0.000165775
0.000165676
0.00016381
0.000159548
0.000152477
0.000142534
0.000129795
0.000115059
9.96139e-05
8.46399e-05
7.07184e-05
5.84619e-05
4.94982e-05
4.52303e-05
4.61138e-05
5.15915e-05
5.87663e-05
6.26187e-05
6.36712e-05
6.37837e-05
6.34051e-05
6.19735e-05
5.75083e-05
4.64826e-05
2.55612e-05
9.11589e-06
0.000209999
0.000194469
3.42832e-05
3.70257e-05
4.26327e-05
4.9692e-05
5.76342e-05
6.78222e-05
7.97966e-05
9.34557e-05
0.000107008
0.000119576
0.000130229
0.000139151
0.000147954
0.000155989
0.000162516
0.000168993
0.000175941
0.000182544
0.00018782
0.000191163
0.000192874
0.000193249
0.000192378
0.000190134
0.00018624
0.000180666
0.000174512
0.00017041
0.000168486
0.000168713
0.000170852
0.000173038
0.000173808
0.000172394
0.000167802
0.00015918
0.000146165
0.00012995
0.000111325
9.27811e-05
7.66119e-05
6.36816e-05
5.38808e-05
4.70154e-05
4.38333e-05
4.53725e-05
5.2113e-05
6.28031e-05
7.14422e-05
7.40741e-05
7.30152e-05
6.98393e-05
6.54775e-05
5.98038e-05
5.11623e-05
3.65144e-05
1.68632e-05
5.25581e-06
0.000202412
0.00019491
2.795e-05
3.7718e-05
4.80923e-05
5.80724e-05
7.00536e-05
8.24774e-05
9.65329e-05
0.00011154
0.0001242
0.000135148
0.000143757
0.000149935
0.000155037
0.000159256
0.000163567
0.000169501
0.000176197
0.000182414
0.000187463
0.000191159
0.000193623
0.000194893
0.000195008
0.000193554
0.000190083
0.000184573
0.000179579
0.00017721
0.000176899
0.000178031
0.00017954
0.000180282
0.000179683
0.000177403
0.000172784
0.000165268
0.000154212
0.000138346
0.000116452
9.20866e-05
7.1152e-05
5.75969e-05
5.11874e-05
4.91401e-05
5.08468e-05
5.62495e-05
6.42972e-05
7.17607e-05
7.56586e-05