/*--------------------------------*- C++ -*----------------------------------*\
| =========                 |                                                 |
| \\      /  F ield         | OpenFOAM: The Open Source CFD Toolbox           |
|  \\    /   O peration     | Version:  2.1.1                                 |
|   \\  /    A nd           | Web:      www.OpenFOAM.org                      |
|    \\/     M anipulation  |                                                 |
\*---------------------------------------------------------------------------*/
FoamFile
{
    version     2.0;
    format      ascii;
    class       volScalarField;
    location    "0.00125";
    object      nut;
}
// * * * * * * * * * * * * * * * * * * * * * * * * * * * * * * * * * * * * * //

dimensions      [0 2 -1 0 0 0 0];

internalField   nonuniform List<scalar> 
36520
(
8.61185e-06
1.20176e-05
1.62098e-05
1.78922e-05
1.92435e-05
2.01555e-05
2.09207e-05
2.15e-05
2.18916e-05
2.20276e-05
2.18585e-05
2.14226e-05
2.07539e-05
2.00496e-05
1.94867e-05
1.90458e-05
1.86418e-05
1.82099e-05
1.77265e-05
1.71874e-05
1.66038e-05
1.60148e-05
1.54093e-05
1.47975e-05
1.41687e-05
1.35388e-05
1.29014e-05
1.22622e-05
1.16164e-05
1.097e-05
1.03237e-05
9.68713e-06
9.06732e-06
8.47806e-06
7.932e-06
7.44146e-06
7.01241e-06
6.64775e-06
6.34307e-06
6.09511e-06
5.90823e-06
5.8024e-06
5.82384e-06
6.01502e-06
6.34015e-06
6.65274e-06
6.72917e-06
6.2641e-06
5.47017e-06
4.54015e-06
3.62207e-06
2.80777e-06
2.05391e-06
1.32016e-06
7.68717e-07
5.03144e-07
4.37497e-07
4.08481e-07
4.05921e-07
4.49233e-07
1.40644e-05
5.51813e-06
5.88939e-06
5.37317e-06
5.09299e-06
4.80807e-06
4.64504e-06
4.36862e-06
3.99294e-06
3.4687e-06
2.94752e-06
2.59542e-06
2.45548e-06
2.40994e-06
2.40114e-06
2.38943e-06
2.35776e-06
2.30892e-06
2.24337e-06
2.17702e-06
2.11028e-06
2.04505e-06
1.97636e-06
1.90484e-06
1.82868e-06
1.74611e-06
1.65146e-06
1.54106e-06
1.41793e-06
1.28504e-06
1.14771e-06
1.016e-06
9.02904e-07
8.19652e-07
7.73121e-07
7.613e-07
7.74298e-07
8.00961e-07
8.33712e-07
8.66428e-07
8.97855e-07
9.364e-07
9.988e-07
1.09637e-06
1.21566e-06
1.30454e-06
1.28803e-06
1.16921e-06
1.05448e-06
9.78751e-07
9.16839e-07
7.87626e-07
5.21813e-07
2.62692e-07
9.03379e-08
1.6422e-08
5.99123e-09
1.87693e-08
3.15615e-08
6.67849e-07
9.7922e-06
1.92284e-06
1.7424e-06
1.35819e-06
1.16354e-06
9.98627e-07
9.13566e-07
7.91487e-07
6.4156e-07
4.48392e-07
2.65122e-07
1.55557e-07
1.2671e-07
1.33478e-07
1.91398e-07
2.82504e-07
3.04831e-07
3.03171e-07
2.95974e-07
2.90723e-07
2.85942e-07
2.81669e-07
2.77272e-07
2.72745e-07
2.68102e-07
2.61303e-07
2.51252e-07
2.36993e-07
2.20165e-07
2.0251e-07
1.86668e-07
1.75835e-07
1.72442e-07
1.77394e-07
1.90104e-07
2.09021e-07
2.33324e-07
2.6223e-07
2.96195e-07
3.3628e-07
3.85372e-07
4.49625e-07
5.39872e-07
6.70336e-07
8.54445e-07
1.10296e-06
1.43591e-06
1.83819e-06
2.23998e-06
2.60131e-06
2.67776e-06
2.2836e-06
1.60082e-06
8.59801e-07
3.61449e-07
8.30705e-08
7.0323e-09
1.41361e-09
9.17702e-09
6.09228e-07
6.92133e-06
6.71888e-07
4.91923e-07
3.07488e-07
2.14857e-07
1.49285e-07
1.23015e-07
1.02783e-07
9.68347e-08
1.0819e-07
1.46075e-07
2.08782e-07
3.05787e-07
2.74351e-07
1.28893e-07
6.02215e-08
6.66342e-08
8.425e-08
9.44338e-08
1.03683e-07
1.13713e-07
1.24582e-07
1.35764e-07
1.46985e-07
1.58554e-07
1.71538e-07
1.85744e-07
2.01398e-07
2.18719e-07
2.38173e-07
2.6007e-07
2.84286e-07
3.09463e-07
3.33355e-07
3.53926e-07
3.73769e-07
3.98836e-07
4.32064e-07
4.70885e-07
5.16989e-07
5.73898e-07
6.45682e-07
7.39596e-07
8.73417e-07
1.07086e-06
1.36139e-06
1.79663e-06
2.46927e-06
3.64849e-06
5.00668e-06
5.46201e-06
4.69973e-06
3.48955e-06
2.19769e-06
1.05321e-06
3.2089e-07
3.46883e-08
1.74295e-09
3.83992e-09
5.94033e-07
5.22998e-06
1.73871e-07
8.6811e-08
5.64229e-08
6.98158e-08
1.0684e-07
1.73783e-07
2.86609e-07
4.78901e-07
8.01472e-07
1.2988e-06
1.94497e-06
2.73728e-06
2.4834e-06
1.28022e-06
4.63104e-07
2.18036e-07
1.91276e-07
2.26695e-07
2.93255e-07
3.8435e-07
4.75615e-07
5.53648e-07
6.25067e-07
7.02473e-07
7.96467e-07
9.32165e-07
1.10785e-06
1.31544e-06
1.55841e-06
1.83975e-06
2.15297e-06
2.45547e-06
2.67466e-06
2.75772e-06
2.51286e-06
1.99698e-06
1.5346e-06
1.26652e-06
1.15483e-06
1.17792e-06
1.24416e-06
1.33108e-06
1.45777e-06
1.66283e-06
1.96238e-06
2.44468e-06
3.21614e-06
4.41915e-06
6.28571e-06
7.5224e-06
7.39972e-06
6.23511e-06
4.42122e-06
2.52449e-06
9.36428e-07
1.38497e-07
8.40152e-09
1.52388e-09
5.88034e-07
4.41071e-06
6.1115e-08
1.05236e-07
2.14361e-07
4.13487e-07
7.48516e-07
1.26352e-06
2.12385e-06
3.55835e-06
5.90197e-06
9.27811e-06
1.31893e-05
1.67037e-05
1.54294e-05
9.88905e-06
4.84362e-06
2.49858e-06
1.85691e-06
1.98962e-06
2.5809e-06
3.38998e-06
4.10143e-06
4.62545e-06
5.06782e-06
5.54675e-06
6.1014e-06
6.77525e-06
7.97905e-06
9.73141e-06
1.18299e-05
1.42667e-05
1.70309e-05
1.96952e-05
2.13426e-05
2.1207e-05
1.91214e-05
1.59319e-05
1.26003e-05
9.87992e-06
7.5197e-06
5.56423e-06
4.40179e-06
3.63963e-06
3.50989e-06
3.65807e-06
3.90318e-06
4.32569e-06
5.12704e-06
6.46831e-06
8.17541e-06
9.60541e-06
9.95146e-06
9.21637e-06
7.62553e-06
5.06114e-06
2.1963e-06
4.39556e-07
3.58747e-08
2.39623e-09
5.8298e-07
6.24625e-06
3.31539e-07
7.67284e-07
1.57283e-06
2.78523e-06
4.63169e-06
7.16795e-06
1.1113e-05
1.72004e-05
2.65411e-05
3.88022e-05
5.10046e-05
5.83578e-05
5.7799e-05
4.81777e-05
3.41815e-05
2.47791e-05
2.17106e-05
2.2369e-05
2.4436e-05
2.66259e-05
2.82606e-05
2.92011e-05
2.96467e-05
2.99919e-05
3.04951e-05
3.09837e-05
3.24399e-05
3.54343e-05
4.03476e-05
4.627e-05
5.26649e-05
5.90437e-05
6.40765e-05
6.5973e-05
6.40342e-05
5.86642e-05
5.06329e-05
4.25273e-05
3.49653e-05
2.78517e-05
2.21544e-05
1.65249e-05
1.16304e-05
9.48806e-06
8.65514e-06
8.37945e-06
8.44001e-06
8.91305e-06
9.5498e-06
1.01299e-05
1.02314e-05
9.64795e-06
8.55998e-06
7.07457e-06
4.17503e-06
1.1455e-06
1.2798e-07
8.60311e-09
5.83897e-07
1.38011e-05
1.70695e-06
3.51319e-06
6.74201e-06
1.08548e-05
1.6936e-05
2.32126e-05
3.24207e-05
4.45967e-05
6.06172e-05
7.76835e-05
9.19355e-05
0.000101467
0.000108354
0.000111349
0.000110434
0.000108973
0.000109437
0.000110555
0.000109443
0.00010593
0.000100298
9.37068e-05
8.8198e-05
8.45815e-05
8.23072e-05
8.15142e-05
8.18375e-05
8.28971e-05
8.50678e-05
8.88245e-05
9.33108e-05
9.76024e-05
0.000100872
0.000102371
0.000101466
9.76368e-05
9.04159e-05
8.07424e-05
7.00378e-05
5.9113e-05
4.91396e-05
4.03854e-05
3.246e-05
2.61508e-05
2.12441e-05
1.72616e-05
1.5108e-05
1.37505e-05
1.2639e-05
1.16975e-05
1.06975e-05
9.52302e-06
8.41446e-06
7.39403e-06
5.35453e-06
2.2243e-06
3.62908e-07
2.94808e-08
6.11267e-07
1.79156e-05
2.82789e-06
6.37187e-06
1.04367e-05
1.48008e-05
1.94221e-05
2.38063e-05
2.93521e-05
3.61306e-05
4.45345e-05
5.43544e-05
6.47171e-05
7.39291e-05
8.18533e-05
8.9215e-05
9.69479e-05
0.00010526
0.000113367
0.000119482
0.000123003
0.000124337
0.000124169
0.000122899
0.000120455
0.00011665
0.000111856
0.00010677
0.000102248
9.86535e-05
9.58661e-05
9.4175e-05
9.34132e-05
9.31115e-05
9.29225e-05
9.25703e-05
9.16383e-05
8.96597e-05
8.62553e-05
8.10398e-05
7.41686e-05
6.60508e-05
5.73914e-05
4.91192e-05
4.152e-05
3.47795e-05
2.95028e-05
2.54781e-05
2.22321e-05
2.03406e-05
1.84123e-05
1.55028e-05
1.26068e-05
1.00658e-05
8.40367e-06
7.55466e-06
6.35291e-06
3.67963e-06
9.11446e-07
9.85629e-08
7.26089e-07
1.6113e-05
2.28549e-06
5.64887e-06
8.59762e-06
1.23728e-05
1.51674e-05
1.75855e-05
2.07442e-05
2.54347e-05
3.20668e-05
4.06191e-05
4.97122e-05
5.79384e-05
6.53189e-05
7.0985e-05
7.41433e-05
7.62509e-05
7.97572e-05
8.58863e-05
9.3644e-05
0.000101835
0.000110477
0.000119819
0.000129212
0.000135995
0.000136983
0.000131667
0.000123014
0.000114395
0.000107334
0.000102357
9.94031e-05
9.82271e-05
9.83712e-05
9.89957e-05
9.90386e-05
9.7645e-05
9.43061e-05
8.88551e-05
8.13579e-05
7.23293e-05
6.22561e-05
5.15755e-05
4.09129e-05
3.10823e-05
2.29833e-05
1.76545e-05
1.49329e-05
1.30914e-05
1.15053e-05
1.02449e-05
9.09093e-06
8.09991e-06
7.71612e-06
7.71369e-06
6.91404e-06
4.19237e-06
1.0841e-06
1.23166e-07
7.62389e-07
1.38813e-05
2.16315e-06
6.44742e-06
1.22966e-05
1.48833e-05
1.71041e-05
1.93796e-05
2.29745e-05
2.8955e-05
3.95452e-05
5.55989e-05
7.33037e-05
8.91209e-05
0.00010337
0.000115083
0.000121642
0.000125223
0.000128705
0.000133694
0.00014058
0.000148811
0.000158279
0.000168814
0.000179581
0.000188956
0.0001934
0.000189351
0.000177239
0.000163668
0.000153353
0.000147363
0.000145607
0.000147035
0.000150443
0.000154278
0.000156779
0.000156787
0.000153692
0.000146945
0.000136671
0.000123369
0.000107239
8.85592e-05
6.80853e-05
4.80579e-05
3.18283e-05
2.13682e-05
1.61877e-05
1.38215e-05
1.2273e-05
1.10683e-05
9.85761e-06
8.69124e-06
7.98562e-06
7.62492e-06
6.45888e-06
3.78146e-06
1.02666e-06
1.24612e-07
7.85726e-07
1.36195e-05
2.14522e-06
5.04279e-06
9.46288e-06
1.31619e-05
1.66187e-05
1.99129e-05
2.52936e-05
3.35802e-05
4.75762e-05
6.90368e-05
9.1287e-05
0.000110286
0.000129096
0.000145839
0.000157366
0.00016759
0.00017755
0.000185468
0.000192002
0.000199009
0.000207195
0.000215993
0.000223529
0.00022753
0.000225658
0.000216526
0.00020059
0.000180799
0.000166662
0.000160552
0.000160642
0.000165158
0.000172021
0.00017879
0.000183692
0.000185394
0.000182609
0.000174861
0.000162145
0.000145371
0.00012374
9.73912e-05
7.01089e-05
4.5622e-05
2.73907e-05
1.73384e-05
1.4048e-05
1.44075e-05
1.47286e-05
1.41593e-05
1.35731e-05
1.21645e-05
1.04689e-05
8.80224e-06
6.53926e-06
3.17363e-06
7.00912e-07
7.37161e-08
7.14702e-07
1.46282e-05
2.24006e-06
4.1314e-06
7.48991e-06
1.079e-05
1.53204e-05
1.98638e-05
2.62228e-05
3.51505e-05
4.77925e-05
6.24524e-05
7.50856e-05
8.93322e-05
0.000108454
0.000132518
0.000154063
0.000169422
0.000183378
0.00019448
0.000202633
0.000210204
0.000217361
0.000223952
0.000228718
0.000229839
0.00022597
0.000215664
0.000199179
0.000178575
0.000162226
0.000155327
0.000156762
0.000162514
0.000169938
0.00017714
0.000181639
0.000181422
0.000175984
0.000165914
0.000152367
0.000134359
0.000111039
8.38079e-05
5.63287e-05
3.48895e-05
2.15884e-05
1.53114e-05
1.44853e-05
1.76362e-05
1.95464e-05
1.93025e-05
1.76641e-05
1.49584e-05
1.21816e-05
9.74021e-06
6.90275e-06
3.18785e-06
6.8006e-07
7.09702e-08
7.11274e-07
1.47094e-05
3.07655e-06
7.47372e-06
1.36104e-05
1.94234e-05
2.40978e-05
2.585e-05
2.69048e-05
2.95688e-05
3.44088e-05
4.05186e-05
4.81484e-05
5.76753e-05
7.10208e-05
9.06767e-05
0.000115391
0.00013677
0.000151048
0.000162271
0.000172663
0.000181979
0.000189338
0.000194519
0.000197908
0.000199906
0.000199937
0.000193688
0.000177527
0.00015952
0.00014715
0.000140414
0.000138871
0.000140854
0.000144644
0.000148285
0.000149669
0.000147652
0.000141988
0.000133173
0.000121696
0.000108036
9.21703e-05
7.37981e-05
5.29974e-05
3.40313e-05
2.14412e-05
1.49803e-05
1.30131e-05
1.34985e-05
1.39168e-05
1.34806e-05
1.23502e-05
1.11119e-05
1.00817e-05
9.19004e-06
6.96913e-06
3.49997e-06
8.95744e-07
1.07093e-07
7.58546e-07
1.49669e-05
1.47801e-06
4.57536e-06
7.17412e-06
9.47367e-06
1.23297e-05
1.67822e-05
2.14776e-05
2.44422e-05
2.72024e-05
3.16058e-05
3.70174e-05
4.38106e-05
5.44362e-05
7.27453e-05
0.00010043
0.000129311
0.000146458
0.00015369
0.000159568
0.000166083
0.000172087
0.000176423
0.000176583
0.000170752
0.000158529
0.000143565
0.000130428
0.000120731
0.000114404
0.000111304
0.000110757
0.000112037
0.000114106
0.00011508
0.000112826
0.000106476
9.6517e-05
8.49662e-05
7.37796e-05
6.3494e-05
5.34279e-05
4.30685e-05
3.26379e-05
2.33043e-05
1.65341e-05
1.24818e-05
1.05474e-05
9.81014e-06
9.393e-06
9.08729e-06
8.89159e-06
8.8337e-06
8.93108e-06
8.61543e-06
6.23325e-06
2.77992e-06
6.3631e-07
7.05412e-08
6.82801e-07
1.47311e-05
1.38441e-06
5.12492e-06
9.34504e-06
1.4297e-05
1.8853e-05
2.22639e-05
2.61089e-05
3.23076e-05
4.11619e-05
5.11724e-05
6.33244e-05
8.19291e-05
0.000106633
0.00013165
0.000150395
0.000153971
0.000149712
0.000148649
0.000149591
0.000150495
0.000150184
0.000148245
0.000144129
0.000136617
0.000126116
0.000115526
0.000107273
0.0001019
9.88915e-05
9.69812e-05
9.54727e-05
9.39069e-05
9.12152e-05
8.69183e-05
8.12076e-05
7.40372e-05
6.57681e-05
5.72981e-05
4.92691e-05
4.21436e-05
3.57157e-05
2.95721e-05
2.36263e-05
1.84317e-05
1.45299e-05
1.20009e-05
1.08685e-05
1.0827e-05
1.08086e-05
1.04369e-05
9.90346e-06
9.38415e-06
9.11313e-06
8.56708e-06
5.97139e-06
2.46617e-06
5.21078e-07
5.41334e-08
6.53616e-07
1.23878e-05
1.4348e-06
3.62239e-06
7.19897e-06
1.18449e-05
1.65307e-05
2.19236e-05
2.9344e-05
3.97472e-05
5.48647e-05
7.44696e-05
9.27702e-05
0.000101236
0.000102748
0.000101439
0.000100733
9.82099e-05
9.77133e-05
0.000101378
0.000105867
0.000108842
0.000109936
0.000108215
0.000103558
9.57639e-05
8.67174e-05
7.9796e-05
7.59506e-05
7.57232e-05
7.85705e-05
8.30733e-05
8.78494e-05
9.19363e-05
9.37854e-05
9.17487e-05
8.6148e-05
7.79049e-05
6.81512e-05
5.79002e-05
4.80765e-05
3.88746e-05
3.10374e-05
2.50517e-05
2.0648e-05
1.74731e-05
1.55112e-05
1.48863e-05
1.5919e-05
1.70682e-05
1.63755e-05
1.41786e-05
1.18067e-05
9.96791e-06
8.72084e-06
7.54852e-06
4.85726e-06
1.63867e-06
2.50972e-07
2.02714e-08
5.97147e-07
5.85189e-06
2.42846e-07
5.99353e-07
1.29677e-06
2.43385e-06
4.06184e-06
6.16791e-06
9.06621e-06
1.32893e-05
1.96642e-05
2.78204e-05
3.48468e-05
3.80614e-05
3.64028e-05
3.37178e-05
3.0536e-05
2.57722e-05
2.28891e-05
2.40223e-05
2.67332e-05
3.00107e-05
3.28719e-05
3.34854e-05
3.11852e-05
2.658e-05
2.13305e-05
1.74436e-05
1.57747e-05
1.62211e-05
1.7718e-05
1.91282e-05
2.01002e-05
2.07361e-05
2.13919e-05
2.21006e-05
2.15649e-05
2.03219e-05
1.84639e-05
1.64507e-05
1.44018e-05
1.2805e-05
1.2144e-05
1.21975e-05
1.32076e-05
1.49782e-05
1.74375e-05
2.03117e-05
2.19918e-05
2.11707e-05
1.88941e-05
1.61639e-05
1.3501e-05
1.09871e-05
8.847e-06
6.8792e-06
3.85284e-06
9.67308e-07
1.03242e-07
6.92871e-09
5.82462e-07
5.31665e-06
5.90273e-08
9.03853e-08
1.92755e-07
3.85178e-07
6.78512e-07
1.08298e-06
1.61783e-06
2.35738e-06
3.38344e-06
4.66286e-06
5.89115e-06
6.81054e-06
6.44757e-06
5.42014e-06
4.09983e-06
2.67175e-06
1.88337e-06
1.81892e-06
2.22378e-06
3.05474e-06
3.90988e-06
4.25393e-06
3.85452e-06
2.90968e-06
1.94397e-06
1.40739e-06
1.36159e-06
1.44278e-06
1.53809e-06
1.6221e-06
1.68963e-06
1.75472e-06
1.82921e-06
1.90136e-06
1.96777e-06
2.05792e-06
2.17885e-06
2.34581e-06
2.58324e-06
2.95443e-06
3.53242e-06
4.40335e-06
5.68474e-06
7.48895e-06
9.61781e-06
1.19749e-05
1.39003e-05
1.51302e-05
1.50944e-05
1.44971e-05
1.32832e-05
1.10424e-05
8.41753e-06
5.76766e-06
2.56135e-06
4.57576e-07
3.59604e-08
2.3758e-09
5.84733e-07
6.61805e-06
1.98051e-07
6.79102e-08
3.72501e-08
4.93456e-08
7.82286e-08
1.2281e-07
1.82151e-07
2.61733e-07
3.65701e-07
4.91607e-07
6.22435e-07
7.43002e-07
6.99177e-07
5.28337e-07
3.45609e-07
2.19122e-07
1.88861e-07
2.09237e-07
2.55639e-07
3.34308e-07
4.29186e-07
4.82022e-07
4.65934e-07
4.19399e-07
4.13224e-07
4.43582e-07
4.74888e-07
5.10311e-07
5.51506e-07
5.97643e-07
6.47707e-07
7.00413e-07
7.55858e-07
8.15329e-07
8.81674e-07
9.62731e-07
1.06529e-06
1.19962e-06
1.38163e-06
1.63757e-06
2.0085e-06
2.55112e-06
3.32769e-06
4.46385e-06
6.1228e-06
8.28507e-06
9.58862e-06
9.60336e-06
9.08062e-06
8.58338e-06
8.06968e-06
7.16605e-06
5.52235e-06
3.46009e-06
1.41545e-06
1.96472e-07
1.20309e-08
1.38856e-09
5.91091e-07
8.62334e-06
6.64757e-07
3.59123e-07
1.84174e-07
1.2439e-07
8.73905e-08
7.02805e-08
5.57204e-08
4.70518e-08
4.40431e-08
4.79625e-08
5.60935e-08
6.65931e-08
6.58068e-08
5.93831e-08
6.2604e-08
8.17742e-08
1.00862e-07
1.15438e-07
1.28654e-07
1.41327e-07
1.55168e-07
1.71354e-07
1.91772e-07
2.16047e-07
2.36085e-07
2.49922e-07
2.64253e-07
2.79819e-07
2.96969e-07
3.15768e-07
3.36651e-07
3.59898e-07
3.8621e-07
4.16693e-07
4.53366e-07
5.00304e-07
5.62928e-07
6.49337e-07
7.72379e-07
9.53799e-07
1.22564e-06
1.63243e-06
2.21995e-06
3.02462e-06
3.95844e-06
4.76861e-06
5.12696e-06
4.98103e-06
4.55691e-06
4.25917e-06
4.11787e-06
3.83839e-06
3.07486e-06
1.89798e-06
6.84599e-07
8.02555e-08
4.15346e-09
2.07401e-09
5.94431e-07
1.06753e-05
1.8963e-06
1.36367e-06
8.95021e-07
7.25616e-07
5.99196e-07
5.30862e-07
4.4198e-07
3.49158e-07
2.52342e-07
1.76633e-07
1.32969e-07
1.22195e-07
1.31588e-07
1.50223e-07
1.67558e-07
1.79554e-07
1.89498e-07
1.98576e-07
2.0701e-07
2.1497e-07
2.23364e-07
2.32982e-07
2.44023e-07
2.54874e-07
2.65156e-07
2.75807e-07
2.83336e-07
2.836e-07
2.7981e-07
2.76094e-07
2.74709e-07
2.76712e-07
2.83599e-07
2.96211e-07
3.15319e-07
3.43159e-07
3.84698e-07
4.48179e-07
5.46208e-07
6.98754e-07
9.35042e-07
1.29756e-06
1.84102e-06
2.66748e-06
3.4919e-06
3.82555e-06
3.51468e-06
2.88017e-06
2.17014e-06
1.64165e-06
1.34917e-06
1.17408e-06
9.53599e-07
5.68239e-07
1.84307e-07
1.49688e-08
8.9008e-10
6.76622e-09
5.991e-07
1.48845e-05
5.57508e-06
5.24149e-06
4.40369e-06
4.05784e-06
3.72641e-06
3.52635e-06
3.2343e-06
2.89537e-06
2.51835e-06
2.19174e-06
1.98595e-06
1.89064e-06
1.83714e-06
1.80037e-06
1.77469e-06
1.75433e-06
1.73849e-06
1.71861e-06
1.69564e-06
1.67118e-06
1.64859e-06
1.62791e-06
1.61007e-06
1.59278e-06
1.57623e-06
1.55875e-06
1.52335e-06
1.46141e-06
1.38154e-06
1.29701e-06
1.21338e-06
1.13218e-06
1.05715e-06
9.92705e-07
9.40525e-07
9.00617e-07
8.7364e-07
8.55534e-07
8.40051e-07
8.28297e-07
8.24279e-07
8.39407e-07
8.82661e-07
9.27347e-07
9.38429e-07
8.80519e-07
7.60915e-07
6.12486e-07
4.71493e-07
3.61476e-07
2.7381e-07
2.16239e-07
1.75423e-07
1.05787e-07
2.73602e-08
4.09192e-09
1.43526e-08
2.83472e-08
6.4232e-07
1.07895e-05
1.34341e-05
1.70905e-05
1.83799e-05
1.9445e-05
2.01362e-05
2.06889e-05
2.10695e-05
2.12884e-05
2.1325e-05
2.11763e-05
2.08728e-05
2.04405e-05
1.99693e-05
1.9476e-05
1.89909e-05
1.84895e-05
1.79635e-05
1.73955e-05
1.67915e-05
1.61485e-05
1.54942e-05
1.48338e-05
1.41972e-05
1.35764e-05
1.29804e-05
1.23904e-05
1.18099e-05
1.12288e-05
1.06489e-05
1.00777e-05
9.53075e-06
9.0154e-06
8.54026e-06
8.11091e-06
7.73556e-06
7.41884e-06
7.16759e-06
6.98727e-06
6.87224e-06
6.81031e-06
6.7806e-06
6.75934e-06
6.70025e-06
6.44726e-06
5.96374e-06
5.32321e-06
4.60279e-06
3.85709e-06
3.13587e-06
2.49142e-06
1.93494e-06
1.48102e-06
1.12377e-06
8.12171e-07
5.2605e-07
4.43363e-07
4.20734e-07
4.18e-07
4.44684e-07
9.69568e-06
1.27387e-05
1.63881e-05
1.77415e-05
1.89092e-05
1.95779e-05
2.01452e-05
2.05059e-05
2.07359e-05
2.08631e-05
2.08458e-05
2.07459e-05
2.04962e-05
2.0174e-05
1.97253e-05
1.9216e-05
1.86433e-05
1.80417e-05
1.74153e-05
1.67678e-05
1.61026e-05
1.54292e-05
1.47474e-05
1.40722e-05
1.34003e-05
1.27457e-05
1.21005e-05
1.14697e-05
1.08489e-05
1.02445e-05
9.65745e-06
9.09517e-06
8.56427e-06
8.0776e-06
7.64538e-06
7.27628e-06
6.97176e-06
6.73594e-06
6.57374e-06
6.48598e-06
6.47015e-06
6.51292e-06
6.5889e-06
6.61528e-06
6.43963e-06
6.00562e-06
5.38667e-06
4.67692e-06
3.9569e-06
3.27708e-06
2.66907e-06
2.13699e-06
1.68772e-06
1.32087e-06
9.79754e-07
5.82979e-07
4.4058e-07
4.15859e-07
4.15407e-07
4.51824e-07
1.35395e-05
4.72777e-06
4.70495e-06
4.01754e-06
3.65587e-06
3.30953e-06
3.16517e-06
3.005e-06
2.91361e-06
2.81055e-06
2.71496e-06
2.58022e-06
2.46081e-06
2.31712e-06
2.19474e-06
2.07629e-06
1.97315e-06
1.89473e-06
1.82935e-06
1.77643e-06
1.72839e-06
1.68065e-06
1.63161e-06
1.57836e-06
1.52121e-06
1.46342e-06
1.40393e-06
1.34248e-06
1.27671e-06
1.2083e-06
1.13841e-06
1.06832e-06
1.00227e-06
9.48594e-07
9.11168e-07
8.92232e-07
8.87242e-07
8.91462e-07
9.01297e-07
9.11183e-07
9.16316e-07
9.14733e-07
9.09262e-07
8.97657e-07
8.66934e-07
8.12739e-07
7.34755e-07
6.46938e-07
5.61167e-07
4.80506e-07
4.03866e-07
3.30912e-07
2.61264e-07
2.01464e-07
1.27496e-07
3.79329e-08
4.26325e-09
1.20002e-08
2.7277e-08
6.48549e-07
9.11874e-06
1.4365e-06
1.0858e-06
7.17051e-07
5.51164e-07
4.2533e-07
3.7935e-07
3.37441e-07
3.2231e-07
3.07356e-07
2.95281e-07
2.77859e-07
2.6317e-07
2.45596e-07
2.33115e-07
2.22434e-07
2.14275e-07
2.10079e-07
2.08023e-07
2.07964e-07
2.08843e-07
2.09609e-07
2.10023e-07
2.10042e-07
2.09352e-07
2.08717e-07
2.08167e-07
2.08221e-07
2.08561e-07
2.10071e-07
2.13589e-07
2.19969e-07
2.30027e-07
2.44721e-07
2.64694e-07
2.9067e-07
3.2398e-07
3.67503e-07
4.25196e-07
5.02012e-07
6.07627e-07
7.56838e-07
9.74684e-07
1.29504e-06
1.78465e-06
2.28021e-06
2.55908e-06
2.49898e-06
2.20906e-06
1.88366e-06
1.59078e-06
1.35129e-06
1.12712e-06
8.89442e-07
5.67683e-07
2.07175e-07
1.89749e-08
8.77178e-10
5.87589e-09
5.97438e-07
6.79845e-06
4.65045e-07
2.56926e-07
1.31799e-07
8.94864e-08
6.32108e-08
5.60341e-08
5.07672e-08
5.13819e-08
5.2246e-08
5.42235e-08
5.62179e-08
5.94049e-08
6.3586e-08
6.96308e-08
7.73092e-08
8.64082e-08
9.6953e-08
1.08704e-07
1.21286e-07
1.34578e-07
1.48397e-07
1.62411e-07
1.76576e-07
1.90696e-07
2.05315e-07
2.20788e-07
2.37869e-07
2.56959e-07
2.78742e-07
3.03816e-07
3.33363e-07
3.68632e-07
4.11266e-07
4.6392e-07
5.31448e-07
6.22306e-07
7.50488e-07
9.36717e-07
1.20881e-06
1.6272e-06
2.29615e-06
3.41193e-06
5.29276e-06
8.33244e-06
1.27593e-05
1.5776e-05
1.57953e-05
1.30625e-05
9.52503e-06
6.49141e-06
4.67498e-06
3.66546e-06
2.84311e-06
1.8956e-06
7.6943e-07
1.0643e-07
4.55972e-09
1.6043e-09
5.86851e-07
5.28025e-06
1.60964e-07
6.41313e-08
2.81312e-08
2.17793e-08
2.14933e-08
2.5453e-08
3.12334e-08
3.96162e-08
5.07227e-08
6.60953e-08
8.68457e-08
1.14824e-07
1.5075e-07
1.94495e-07
2.44793e-07
2.99917e-07
3.56406e-07
4.14002e-07
4.74984e-07
5.39408e-07
5.94969e-07
6.39117e-07
6.69699e-07
6.90738e-07
7.04914e-07
7.18998e-07
7.32387e-07
7.45604e-07
7.59066e-07
7.73579e-07
7.94126e-07
8.27759e-07
8.78836e-07
9.49422e-07
1.04311e-06
1.1573e-06
1.31146e-06
1.54801e-06
1.92169e-06
2.51561e-06
3.46539e-06
5.03098e-06
7.64234e-06
1.18907e-05
1.88639e-05
3.06385e-05
3.58946e-05
3.25183e-05
2.3329e-05
1.39874e-05
9.57655e-06
8.076e-06
6.50391e-06
4.32696e-06
1.96217e-06
4.01127e-07
2.39093e-08
1.58049e-09
5.85408e-07
4.34484e-06
4.07651e-08
1.84228e-08
1.87811e-08
2.58861e-08
3.72438e-08
5.43013e-08
7.89351e-08
1.16284e-07
1.73281e-07
2.63603e-07
4.05465e-07
6.24397e-07
9.44546e-07
1.3798e-06
1.92195e-06
2.53189e-06
3.11896e-06
3.59721e-06
4.00647e-06
4.43649e-06
4.71584e-06
4.80493e-06
4.71399e-06
4.51162e-06
4.25771e-06
4.09833e-06
3.9786e-06
3.88852e-06
3.84023e-06
3.77191e-06
3.59318e-06
3.28528e-06
2.91802e-06
2.574e-06
2.29231e-06
2.13302e-06
2.12961e-06
2.20671e-06
2.47298e-06
3.04214e-06
3.99582e-06
5.56142e-06
8.1241e-06
1.2145e-05
1.87239e-05
3.16306e-05
4.44139e-05
4.46569e-05
3.55333e-05
2.253e-05
1.49374e-05
1.17489e-05
9.16632e-06
6.43326e-06
3.49557e-06
9.39051e-07
7.12927e-08
3.88067e-09
5.8424e-07
4.10054e-06
3.50588e-08
5.27179e-08
8.23999e-08
1.22838e-07
1.87065e-07
2.91347e-07
4.52086e-07
7.14072e-07
1.15565e-06
1.91966e-06
3.22709e-06
5.35362e-06
8.53106e-06
1.27751e-05
1.78376e-05
2.34514e-05
2.9142e-05
3.3815e-05
3.7312e-05
4.02756e-05
4.19222e-05
4.25901e-05
4.24585e-05
4.1614e-05
4.03191e-05
3.91686e-05
3.8736e-05
3.88864e-05
4.01815e-05
4.23322e-05
4.42583e-05
4.47362e-05
4.30954e-05
3.94318e-05
3.39015e-05
2.79292e-05
2.25026e-05
1.70425e-05
1.07384e-05
7.90302e-06
7.44999e-06
8.34233e-06
1.054e-05
1.41871e-05
1.94315e-05
2.73673e-05
3.67699e-05
3.98531e-05
3.63156e-05
2.85857e-05
2.12697e-05
1.55975e-05
1.08542e-05
7.28788e-06
4.21155e-06
1.38321e-06
1.51416e-07
8.45663e-09
5.86295e-07
5.94141e-06
2.07454e-07
4.03508e-07
6.67101e-07
1.0026e-06
1.55262e-06
2.45945e-06
3.93919e-06
6.04999e-06
9.34204e-06
1.45558e-05
2.24857e-05
3.35712e-05
4.79998e-05
6.45412e-05
8.11324e-05
9.7206e-05
0.00011391
0.000128377
0.000137079
0.000142538
0.000145684
0.000147131
0.000147255
0.000145747
0.000143592
0.000140913
0.000138292
0.000137177
0.000139126
0.000144881
0.000153283
0.00016205
0.000168662
0.000171441
0.000167427
0.000155505
0.000135848
0.000113727
8.89066e-05
6.61465e-05
4.74705e-05
3.47443e-05
2.82487e-05
2.56566e-05
2.55677e-05
2.77705e-05
3.15429e-05
3.37203e-05
3.09277e-05
2.58247e-05
1.97198e-05
1.43208e-05
1.02496e-05
7.43723e-06
4.74335e-06
1.77639e-06
2.63228e-07
1.88596e-08
5.9807e-07
1.59256e-05
2.12235e-06
4.93601e-06
7.82933e-06
1.01375e-05
1.29082e-05
1.86323e-05
2.51212e-05
3.07563e-05
4.04609e-05
5.25072e-05
6.89513e-05
8.78783e-05
0.000107551
0.000128285
0.000148605
0.000165985
0.000179923
0.000191894
0.000201306
0.000207293
0.000210499
0.000211253
0.000210464
0.000208327
0.000205359
0.000202437
0.000199335
0.000196544
0.000195712
0.000197125
0.000200077
0.000203277
0.000204648
0.000202349
0.00019588
0.000185063
0.000170172
0.000153602
0.000137013
0.000118372
9.73895e-05
7.58577e-05
5.67076e-05
4.1975e-05
3.17841e-05
2.55975e-05
2.32262e-05
2.34669e-05
2.27718e-05
1.98155e-05
1.57215e-05
1.19891e-05
9.28871e-06
7.56877e-06
5.29163e-06
2.19169e-06
4.16974e-07
3.87587e-08
6.27404e-07
2.03786e-05
4.47142e-06
1.02969e-05
2.0839e-05
3.44628e-05
5.13344e-05
6.62971e-05
7.309e-05
7.59993e-05
7.81741e-05
8.10034e-05
8.49817e-05
9.031e-05
9.60532e-05
0.0001025
0.000110122
0.000118709
0.000127444
0.000135709
0.00014299
0.000148696
0.000152753
0.000155461
0.00015722
0.000158281
0.000157807
0.000155201
0.000151867
0.000149785
0.000148246
0.000146184
0.000143354
0.000139602
0.000134706
0.000128825
0.000121841
0.00011331
0.000103142
9.17428e-05
7.98133e-05
6.75029e-05
5.526e-05
4.36891e-05
3.33698e-05
2.5083e-05
1.92435e-05
1.55876e-05
1.37539e-05
1.31531e-05
1.25913e-05
1.14034e-05
9.95693e-06
8.79976e-06
8.27385e-06
8.20449e-06
6.86057e-06
3.55223e-06
8.26868e-07
9.2074e-08
7.11667e-07
1.83271e-05
3.06251e-06
1.62288e-05
2.81789e-05
3.72948e-05
4.70105e-05
5.72023e-05
6.84579e-05
7.91477e-05
8.3622e-05
8.51244e-05
8.80627e-05
9.14871e-05
9.37051e-05
9.42317e-05
9.43316e-05
9.56346e-05
9.85546e-05
0.000102345
0.000105877
0.000107973
0.000108198
0.000106732
0.000103806
9.96974e-05
9.47844e-05
8.93904e-05
8.45431e-05
8.09062e-05
7.82906e-05
7.6332e-05
7.48549e-05
7.41805e-05
7.46694e-05
7.57293e-05
7.63794e-05
7.57201e-05
7.35887e-05
6.94231e-05
6.2591e-05
5.34617e-05
4.35164e-05
3.39396e-05
2.53604e-05
1.83872e-05
1.33526e-05
1.02089e-05
8.56349e-06
7.7611e-06
7.32355e-06
7.15428e-06
7.16908e-06
7.53321e-06
8.30454e-06
8.99965e-06
7.57375e-06
3.81477e-06
8.79424e-07
9.82754e-08
7.17789e-07
1.61663e-05
3.04372e-06
5.32428e-06
7.09173e-06
9.05509e-06
1.25799e-05
1.89552e-05
3.1685e-05
5.34002e-05
7.77122e-05
9.30692e-05
0.000100851
0.000110278
0.000118092
0.000122614
0.00012657
0.000130884
0.000134883
0.000137685
0.000138166
0.000136244
0.000132544
0.000127187
0.000120056
0.000111516
0.000102664
9.46298e-05
8.7922e-05
8.28168e-05
7.97537e-05
7.87672e-05
7.949e-05
8.14122e-05
8.40292e-05
8.67877e-05
8.88059e-05
8.93141e-05
8.72388e-05
8.11012e-05
7.04369e-05
5.65606e-05
4.17277e-05
2.84641e-05
1.8692e-05
1.2367e-05
8.73366e-06
6.96159e-06
6.23046e-06
5.89199e-06
5.89279e-06
6.28137e-06
6.89162e-06
7.71387e-06
8.73167e-06
9.09774e-06
7.09343e-06
3.46123e-06
8.26113e-07
9.40733e-08
7.14513e-07
1.5845e-05
2.7392e-06
7.8474e-06
1.20562e-05
1.52918e-05
1.92955e-05
2.57074e-05
3.64055e-05
5.08224e-05
6.4201e-05
7.45718e-05
8.577e-05
0.000101483
0.000117535
0.000127382
0.000129837
0.000130236
0.000132561
0.000136318
0.000139736
0.000141644
0.000141387
0.000138587
0.000132889
0.000124736
0.000115309
0.000106086
9.82879e-05
9.25214e-05
8.9211e-05
8.83038e-05
8.92784e-05
9.15934e-05
9.47963e-05
9.82579e-05
0.000100896
0.000101472
9.88815e-05
9.2246e-05
8.05627e-05
6.4458e-05
4.68031e-05
3.15823e-05
2.05701e-05
1.31987e-05
8.78136e-06
6.57759e-06
5.81123e-06
5.54703e-06
5.65278e-06
6.12143e-06
6.73857e-06
7.46383e-06
8.36191e-06
8.82253e-06
7.0487e-06
3.50822e-06
8.45625e-07
9.72054e-08
7.24938e-07
1.63427e-05
2.59471e-06
7.47922e-06
1.43452e-05
1.93277e-05
2.40369e-05
2.84158e-05
3.43926e-05
4.31514e-05
5.27522e-05
5.96636e-05
6.66192e-05
7.43403e-05
8.09001e-05
8.47501e-05
8.83064e-05
9.32889e-05
9.97581e-05
0.000107462
0.000115576
0.000123331
0.000129974
0.00013467
0.000136322
0.000133234
0.00012565
0.000117005
0.000109665
0.000103941
0.000100683
0.000100236
0.000102081
0.000105371
0.000109446
0.000113495
0.000116286
0.000116565
0.000113188
0.000105659
9.40215e-05
7.87539e-05
6.16552e-05
4.52563e-05
3.15363e-05
2.10935e-05
1.4287e-05
1.05402e-05
8.74711e-06
8.07895e-06
7.96208e-06
8.01245e-06
8.07743e-06
8.09979e-06
8.2617e-06
8.43042e-06
7.3066e-06
4.07214e-06
9.97856e-07
1.13554e-07
7.60795e-07
2.03691e-05
5.16485e-06
9.15186e-06
1.3578e-05
1.75748e-05
2.41543e-05
3.08689e-05
3.82011e-05
4.7862e-05
6.03427e-05
7.35871e-05
8.57983e-05
9.72777e-05
0.000106179
0.000113475
0.000121638
0.000130733
0.000140787
0.000151961
0.000163015
0.000172397
0.000179992
0.000186036
0.0001901
0.000190458
0.000185667
0.000176785
0.000167136
0.000159024
0.00015429
0.000154663
0.000158168
0.000162746
0.000167211
0.000170024
0.000169144
0.000162975
0.000150357
0.000131463
0.000107601
8.21453e-05
5.923e-05
4.10808e-05
2.76167e-05
1.79808e-05
1.19434e-05
8.81652e-06
7.71178e-06
8.22734e-06
9.92132e-06
1.0693e-05
1.03084e-05
9.62767e-06
8.91254e-06
8.19835e-06
6.80098e-06
3.84651e-06
9.55771e-07
1.05646e-07
7.72444e-07
2.30687e-05
4.45941e-06
5.5545e-06
7.89792e-06
1.14346e-05
1.6481e-05
2.47344e-05
3.79965e-05
5.61198e-05
7.71871e-05
9.85964e-05
0.000117008
0.00013073
0.000143224
0.00015679
0.000170511
0.000185765
0.000202953
0.000219667
0.000232772
0.000240162
0.000242391
0.000240602
0.000234824
0.00022432
0.000209061
0.000191715
0.000176876
0.000169629
0.000168599
0.000171863
0.000178659
0.000185568
0.000188812
0.000186633
0.000177092
0.000158639
0.000132063
0.000102575
7.35997e-05
4.95879e-05
3.25938e-05
2.15881e-05
1.46568e-05
1.03531e-05
8.0608e-06
7.501e-06
8.7994e-06
1.26341e-05
1.66054e-05
1.73579e-05
1.59436e-05
1.36718e-05
1.13299e-05
9.1898e-06
6.62498e-06
3.00296e-06
5.28135e-07
4.34335e-08
6.52907e-07
1.53293e-05
3.03715e-06
6.02637e-06
1.05989e-05
1.65558e-05
2.57996e-05
3.83413e-05
5.64076e-05
8.10053e-05
0.00010555
0.000128635
0.000146958
0.000158948
0.000168395
0.000177407
0.000187991
0.000203763
0.000222824
0.000240955
0.000254584
0.000261978
0.000263391
0.000260141
0.000253696
0.000243491
0.000229167
0.000212169
0.000199002
0.000193606
0.000193919
0.00019831
0.000203568
0.000206392
0.000205072
0.000199164
0.000187396
0.000169186
0.000144802
0.000114347
7.89547e-05
4.73192e-05
2.65694e-05
1.61493e-05
1.18325e-05
1.01828e-05
1.02865e-05
1.21437e-05
1.59078e-05
2.01627e-05
2.20234e-05
2.13736e-05