/*--------------------------------*- C++ -*----------------------------------*\
| =========                 |                                                 |
| \\      /  F ield         | OpenFOAM: The Open Source CFD Toolbox           |
|  \\    /   O peration     | Version:  2.1.1                                 |
|   \\  /    A nd           | Web:      www.OpenFOAM.org                      |
|    \\/     M anipulation  |                                                 |
\*---------------------------------------------------------------------------*/
FoamFile
{
    version     2.0;
    format      ascii;
    class       volScalarField;
    location    "0.00125";
    object      p;
}
// * * * * * * * * * * * * * * * * * * * * * * * * * * * * * * * * * * * * * //

dimensions      [1 -1 -2 0 0 0 0];

internalField   nonuniform List<scalar> 
36520
(
8.88786
5.16625
3.32182
1.14019
0.432053
2.02676
1.94114
-5.38362
-26.3199
-59.1889
-92.4884
-110.423
-103.709
-75.33
-36.3351
0.333173
25.2299
37.8249
42.7304
44.3232
45.2508
46.6226
48.5247
50.5595
52.2334
53.0808
52.7791
51.1866
48.3271
44.4196
39.8866
35.3257
31.3497
28.4184
26.7278
26.1343
26.1885
26.2633
25.7191
23.8812
20.0722
13.6846
3.99092
-10.0382
-29.6336
-55.9964
-89.382
-130.057
-176.159
-217.456
-233.441
-216.266
-165.037
-74.7534
50.1868
180.377
288.557
360.535
402.67
420.726
9.87305
5.85049
3.32757
0.770028
0.0884485
2.26911
3.2157
-3.36625
-24.7859
-59.933
-96.1678
-115.747
-108.794
-78.3064
-36.5577
2.14611
27.5687
39.6091
43.7818
44.6912
45.4056
46.747
48.7031
50.8339
52.6195
53.5465
53.2807
51.6822
48.7598
44.727
40.0219
35.2747
31.1484
28.1512
26.4996
26.0143
26.2276
26.478
26.1366
24.5266
20.9605
14.8627
5.48649
-8.31884
-27.9646
-54.7449
-89.0999
-131.416
-181.489
-229.017
-248.343
-231.469
-180.683
-91.395
40.3412
176.931
290.683
363.502
405.709
423.534
11.8584
7.09539
3.26203
-0.0266186
-0.689631
2.732
5.70294
0.665013
-21.644
-61.2815
-103.278
-126.121
-117.997
-84.0993
-36.9228
5.74713
32.1144
43.0062
45.6419
45.3741
45.4195
46.7122
48.8926
51.334
53.3368
54.4337
54.2593
52.6645
49.6234
45.338
40.2701
35.1236
30.6772
27.531
25.955
25.7504
26.3284
26.9943
27.1322
26.0858
23.1776
17.8228
9.21764
-4.11691
-23.8138
-51.4388
-87.9484
-133.987
-192.544
-253.183
-278.213
-259.454
-210.722
-126.413
12.6534
167.651
294.865
369.739
412.068
429.384
12.8123
7.97438
3.02873
-1.24025
-1.84104
3.41122
9.15102
6.42213
-16.9155
-62.874
-113.164
-140.787
-130.728
-92.4492
-37.4305
10.9717
38.5332
47.6671
48.1368
46.4729
45.6675
46.7436
49.2701
52.0781
54.4617
55.8762
55.8479
54.2455
50.9895
46.2777
40.6223
34.8301
29.8691
26.5061
25.024
25.2321
26.3375
27.564
28.3518
28.0796
26.0379
21.7457
14.1944
1.40319
-18.3786
-47.1581
-86.7095
-137.859
-203.681
-279.297
-314.682
-296.271
-250.178
-171.097
-28.9966
150.963
302.395
379.618
421.953
438.312
13.5263
8.88618
2.62061
-2.83649
-3.369
4.28171
13.0413
13.0236
-11.2324
-64.8837
-125.28
-158.771
-144.808
-102.55
-37.9929
17.499
46.2449
53.0728
50.8041
47.2057
45.33
46.2726
49.1535
52.6834
55.867
57.8676
58.098
56.4902
52.9111
47.6129
41.0951
34.3422
28.5579
24.7761
23.451
24.2253
26.1041
28.0898
29.688
30.3692
29.3682
26.4459
20.4944
8.72234
-10.422
-39.0624
-80.2336
-134.263
-203.027
-292.264
-357.658
-338.809
-291.314
-225.753
-81.0549
123.874
314.676
393.601
435.499
450.202
12.8667
9.45572
2.0832
-4.69799
-4.77208
5.79342
17.5463
19.4363
-5.92982
-67.7069
-138.951
-178.509
-158.869
-113.067
-39.1924
24.595
54.1938
58.3734
53.2047
47.7496
44.8026
45.7269
49.0495
53.5589
57.4782
60.1462
60.9204
59.4109
55.3184
49.2771
41.7086
33.7852
27.0162
22.6983
21.5314
22.7336
25.2885
27.9568
30.3207
32.1613
32.5768
31.3817
27.4459
17.1925
-0.211756
-26.7544
-67.5358
-125.292
-197.347
-286.538
-391.804
-391.481
-334.064
-298.269
-132.656
92.5274
338.934
412.591
452.86
464.972
13.4265
10.7265
2.05459
-6.21044
-5.79311
8.08931
23.0178
25.3417
-2.72399
-72.6117
-153.708
-196.04
-173.679
-121.72
-40.8906
31.9218
60.9547
62.8525
55.2115
48.3112
44.4838
44.5258
48.0487
53.3668
58.2411
62.1623
64.0042
62.5051
58.2129
51.4107
42.8143
33.7133
25.8359
20.5824
18.5811
20.5558
24.0828
27.4659
30.3111
32.8697
34.4047
34.8366
33.0274
24.8353
8.65861
-15.5034
-53.8255
-115.054
-189.251
-260.08
-361.314
-516.644
-398.273
-370.524
-207.425
93.3372
380.628
437.563
473.679
483
4.42736
9.95525
0.72491
-9.64801
-6.2758
12.9313
33.0486
34.0532
-2.67653
-81.148
-169.237
-212.612
-184.511
-111.445
-33.0638
30.6042
60.7408
65.1134
55.6456
46.5187
40.9756
41.4463
46.1862
53.0286
58.787
64.1979
67.523
66.924
61.7557
54.18
44.556
34.5654
25.928
20.1334
18.2875
19.6973
23.2402
26.9822
29.931
32.5684
34.8855
36.1136
35.6338
29.8196
15.4646
-5.69163
-42.0855
-106.72
-179.089
-233.521
-294.47
-443.239
-320.184
-363.903
-183.379
173.701
403.01
472.187
500.007
505.709
28.76
18.1566
2.66067
-2.97865
6.73046
24.6791
37.2492
28.1069
-16.172
-96.5085
-179.943
-213.578
-174.979
-87.7221
-12.0476
31.5048
53.255
58.1828
52.797
46.5025
42.4145
43.0865
46.8255
53.0354
58.4828
64.4315
69.2453
69.2954
64.3599
56.4043
45.866
34.7745
24.7174
17.6144
15.4
17.9079
22.5216
27.0781
30.4799
33.6783
36.6838
37.5423
37.165
33.7057
22.5465
4.98547
-29.7393
-99.3481
-177.841
-239.873
-271.172
-168.946
-420.523
-559.492
-189.147
218.825
405.849
499.176
519.931
522.421
46.7929
16.5556
-1.01775
-9.20132
-0.0289003
28.2748
46.3483
39.963
-9.43961
-99.7036
-195.048
-224.386
-180.56
-99.1542
-16.0319
36.6011
60.7217
63.4354
56.3357
48.3674
43.323
42.5839
44.4025
47.6918
56.7797
68.6441
75.4156
74.5864
67.209
56.8601
45.7638
33.8063
22.966
15.8957
14.4277
17.5005
22.0464
26.3318
30.7567
34.5079
37.5497
40.681
41.7923
39.0742
30.9597
11.7948
-34.4767
-108.75
-179.334
-238.951
-248.071
16.3788
-600.294
-605.719
-176.787
257.731
419.112
507.419
524.423
525.955
37.6778
14.5334
-2.82753
-7.78886
5.86887
29.2085
47.7483
47.5733
4.33485
-95.1583
-205.934
-235.828
-193.134
-106.493
-17.5489
44.78
69.3834
69.7443
58.2242
47.4504
40.8427
38.7564
40.0399
44.0847
51.3552
64.1411
78.034
81.4495
70.8835
58.9374
46.2784
33.2321
23.1819
17.3137
16.5764
19.9845
24.524
28.2587
32.1339
35.2298
37.5153
40.6964
43.0697
43.0512
36.5943
17.8953
-26.3611
-106.042
-180.249
-233.371
-228.86
52.7789
-683.355
-613.184
-114.054
323.77
438.756
510.147
526.398
527.65
4.09796
13.0802
0.172609
-11.2097
-5.17914
26.3118
53.6426
66.1297
22.8673
-92.0403
-231.834
-273.547
-232.479
-131.711
-12.8909
57.8093
84.2329
80.592
62.059
46.9887
39.1431
36.3261
37.7844
42.5666
50.9347
61.6003
71.8131
76.0358
70.5274
59.6211
47.614
35.1893
25.4006
19.8656
18.8329
21.0868
24.9357
28.5326
31.9393
35.2587
37.9223
40.9343
43.4573
42.538
36.5402
17.6838
-27.1135
-106.684
-182.841
-233.003
-233.03
-81.8511
-555.405
-577.429
-136.085
388.893
455.133
508.415
521.916
523.505
6.75827
12.6993
-1.21353
-17.9687
-15.4702
18.7202
58.3852
83.2309
51.8691
-63.8658
-217.514
-309.425
-271.073
-166.951
-26.6917
66.4748
103.3
99.5493
73.4271
50.6019
39.5751
35.3866
35.8082
40.5896
49.3012
58.8592
71.758
78.2705
71.6675
61.4086
48.8948
35.5713
25.3174
19.8931
18.7867
21.36
26.0291
31.6404
35.0069
36.7081
39.1942
42.1758
45.2024
43.9198
34.1795
9.20523
-40.2754
-117.044
-186.241
-228.922
-231.706
-101.784
-624.243
-583.407
-102.227
367.896
457.223
506.792
521.217
523.393
35.3314
16.8754
5.31829
-22.8314
-24.8866
17.1883
66.7911
103.054
77.6989
-44.9513
-208.919
-350.531
-262.936
-187.311
-22.5843
57.9812
110.884
115.221
74.1905
49.5474
36.1936
30.9534
31.8121
37.9606
46.8973
59.5733
78.0177
88.1196
75.7821
62.0637
48.5999
34.0529
23.8662
18.1981
17.42
20.4412
25.114
29.2825
32.6303
33.7291
33.9118
35.902
39.2282
39.5687
27.8154
-2.59925
-53.7674
-124.024
-185.32
-219.513
-222.727
-128.115
-735.289
-473.6
5.39027
292.467
443.702
502.221
523.237
526.601
64.5205
28.1722
11.5987
-32.3868
-55.0979
-7.7787
33.7145
94.3438
94.4024
6.46242
-166.245
-313.536
-448.221
-427.959
-103.382
41.9137
138.674
144.499
90.7159
48.3512
30.6706
25.1784
28.2933
39.9858
57.7146
75.2264
80.268
78.8079
70.2869
58.7264
47.3079
36.0121
26.2771
20.3463
19.6662
21.8761
26.3672
31.2834
33.1058
32.4673
31.3878
31.1718
27.9269
20.8533
4.58019
-26.8359
-74.1945
-133.497
-183.849
-213.208
-219.856
-191.79
-630.841
-475.308
53.7644
243.246
431.725
492.284
518.77
523.7
34.9339
23.0313
-9.74808
-46.4194
-26.3373
40.9472
88.4599
96.6236
57.0079
-78.9121
-200.119
-252.144
-186.192
-126.911
-129.514
-24.3676
104.263
119.114
75.9409
44.0406
27.3135
22.0997
24.3742
33.4378
48.365
65.1831
74.4934
73.4715
65.6521
56.6851
46.5973
37.0367
29.0172
23.5654
21.1388
22.243
24.3398
27.2485
29.518
30.1615
29.1487
26.8944
20.0917
6.05962
-17.4383
-49.1471
-91.1067
-141.098
-179.175
-203.798
-204.697
-147.386
-526.322
-442.317
68.8244
235.985
432.254
486.53
514.912
520.812
6.99394
8.81991
-8.33078
-25.0154
-15.4333
9.75341
48.7501
72.6371
34.6303
-70.6936
-178.601
-222.258
-193.95
-120.52
-67.7929
-21.3327
50.2051
76.566
57.4859
37.3543
26.2854
22.5057
23.9944
31.2081
44.5504
59.7188
69.3579
71.0346
65.8816
56.8035
46.2266
36.2271
27.4812
21.6525
20.3557
22.2776
25.0025
27.1759
28.6008
29.0696
28.872
27.6675
20.2585
3.52522
-22.2479
-54.2725
-93.981
-138.43
-174.116
-202.257
-209.908
-225.018
-418.843
-457.385
-85.5855
212.023
434.543
471.457
500.781
507.888
13.6562
6.27424
-5.79384
-12.8534
-3.11642
16.6337
31.5141
35.2734
4.71004
-66.3914
-138.168
-167.314
-152.098
-110.687
-62.228
-12.7101
34.1424
51.4496
43.3079
32.0291
25.2597
23.6577
26.2696
33.1059
44.4615
56.9453
64.9637
66.1523
62.0465
54.7815
45.5478
36.5399
28.8857
23.8949
22.24
23.1859
25.0474
26.8545
27.8576
27.7251
26.1497
22.3506
12.6168
-6.17612
-32.9902
-64.4594
-100.271
-140.692
-173.392
-202.637
-238.003
-286.951
-323.525
-358.977
-194.857
117.097
407.24
442.947
478.05
487.253
10.3656
4.1707
-3.7036
-7.33486
-0.201509
12.2887
20.8899
16.6712
-10.5403
-59.2078
-106.393
-127.373
-115.18
-86.6465
-50.3302
-12.3143
19.8981
33.7358
32.5748
27.7038
24.5834
24.6361
27.8025
34.1246
43.5265
53.4294
59.9677
61.0841
57.9983
52.0809
44.3397
36.6499
30.1659
25.934
24.4462
24.9258
26.045
26.9649
27.0893
25.9525
22.8287
16.507
4.05038
-16.8912
-44.464
-76.5575
-112.184
-148.72
-177.923
-208.875
-245.748
-264.081
-260.161
-251.357
-159.528
64.484
371.801
418.716
458.727
469.692
11.2471
3.89187
-2.01633
-4.07935
0.534479
7.74256
11.1094
4.19773
-18.2076
-52.7974
-85.3769
-101.026
-94.5083
-71.7087
-43.2209
-14.1451
9.86753
22.5196
25.2785
24.4364
23.8625
25.129
28.6624
34.5112
42.4309
50.585
55.9666
57.4464
54.9287
49.8817
43.2898
36.644
31.0057
27.2342
25.5993
25.4917
25.9315
26.1602
25.5038
23.2416
18.4545
9.98725
-4.47976
-26.4827
-54.2621
-85.4394
-117.997
-149.582
-177.737
-204.506
-230.566
-241.991
-233.73
-200.381
-93.2479
82.4752
333.693
399.781
441.735
455.16
9.60474
3.7275
-0.515691
-1.82784
0.863643
4.62654
4.6508
-3.42045
-21.9079
-47.3751
-70.8093
-82.4741
-78.1405
-61.5505
-39.1995
-16.1442
3.21125
15.1604
20.2042
21.9553
23.2282
25.4505
29.2117
34.6476
41.4872
48.2748
52.8842
54.2969
52.3937
48.1406
42.5034
36.7257
31.7321
28.2419
26.4728
25.9085
25.7064
25.108
23.3789
19.7849
13.4189
3.15378
-12.6603
-34.6486
-61.4893
-90.6702
-120.384
-149.217
-173.855
-194.578
-211.682
-217.835
-209.018
-159.074
-46.3878
117.121
313.518
387.062
429.322
444.493
9.10094
3.6968
0.56786
-0.488433
0.735485
2.26876
0.352494
-8.01295
-23.6967
-43.6873
-61.6599
-70.7143
-67.5974
-54.7539
-36.6844
-17.5729
-1.02855
10.3513
16.6562
20.0101
22.4884
25.4015
29.3787
34.5791
40.6533
46.4818
50.5762
51.9301
50.446
46.8105
41.9032
36.7603
32.1928
28.8668
26.9556
26.0304
25.3528
24.1741
21.7267
17.2177
9.76681
-1.52765
-17.5837
-38.6424
-63.3223
-90.1046
-115.841
-141.063
-163.484
-179.731
-189.227
-189.431
-168.567
-115.712
-4.51928
149.122
304.272
379.076
421.092
437.441
7.50171
3.36322
1.29457
0.336335
0.638001
0.726207
-2.30323
-10.6177
-24.4669
-41.2113
-55.9651
-63.5537
-61.1564
-50.5421
-35.1186
-18.4097
-3.5334
7.42334
14.378
18.7089
21.9924
25.3682
29.4702
34.4813
40.0696
45.3277
49.0109
50.3122
49.0777
45.83
41.3856
36.6595
32.3876
29.1531
27.1132
25.9011
24.8329
23.1441
20.0877
14.8801
6.72764
-4.99177
-20.7569
-40.6848
-64.0696
-88.8854
-112.939
-135.824
-155.692
-169.416
-175.936
-171.542
-145.584
-84.9236
26.0435
168.236
298.93
373.588
415.575
432.74
6.29652
2.81341
1.52745
0.644951
0.505054
-0.0727363
-3.58704
-11.8181
-24.7807
-40.0251
-53.2513
-60.1568
-58.1015
-48.4692
-34.3399
-18.7983
-4.72185
6.01036
13.2281
17.9939
21.6421
25.2339
29.3942
34.3244
39.6886
44.6933
48.2206
49.5164
48.4124
45.3705
41.1597
36.6344
32.5041
29.3139
27.1927
25.8121
24.5444
22.6574
19.4163
14.0974
5.89658
-5.74773
-21.2244
-40.5838
-63.2111
-87.1403
-110.472
-132.433
-151.346
-164.277
-169.704
-163.061
-134.102
-70.542
40.1214
176.33
296.913
371.168
413.162
430.718
6.36441
2.30098
0.24558
-2.11634
-4.09603
-5.56763
-6.84064
-8.11288
-9.8039
-12.0134
-14.5469
-16.7303
-17.8275
-17.3527
-15.2841
-11.9847
-7.96774
-3.60529
0.925835
5.56299
10.2859
15.0743
19.9861
25.0826
30.2062
34.8937
38.4408
40.2425
40.0303
38.024
34.7909
31.0387
27.5114
24.8947
23.619
23.6062
24.0815
24.078
22.7348
19.2879
12.9489
2.70122
-12.0399
-31.266
-55.2785
-81.9879
-107.812
-130.213
-148.319
-162.524
-172.816
-173.992
-151.942
-92.4513
18.3217
165.652
298.978
375.701
419.181
436.828
7.4693
2.96107
0.101484
-2.43914
-4.42749
-5.86826
-7.039
-8.12413
-9.61775
-11.7316
-14.314
-16.6455
-17.8951
-17.4949
-15.4259
-12.0949
-8.06228
-3.7021
0.831035
5.48854
10.238
15.0448
19.9814
25.1322
30.3385
35.1636
38.8416
40.7146
40.4701
38.3523
34.97
31.0488
27.3539
24.6531
23.4342
23.6153
24.3391
24.6246
23.5578
20.363
14.201
3.86909
-11.2972
-31.3943
-56.6545
-84.855
-111.749
-134.335
-151.872
-165.764
-176.834
-181.518
-164.429
-108.793
-0.151281
155.397
302.025
378.965
422.584
439.714
9.0144
3.51338
-0.32534
-3.14277
-5.18488
-6.58885
-7.53776
-8.22393
-9.25036
-11.1413
-13.8269
-16.4743
-18.0414
-17.7945
-15.706
-12.306
-8.24257
-3.89262
0.641339
5.34797
10.1611
15.0135
19.9842
25.2247
30.5863
35.6496
39.5962
41.615
41.3041
38.9801
35.3255
31.0791
27.0384
24.1191
23.0443
23.6482
24.9505
25.9113
25.5468
23.0319
17.3912
7.12368
-8.79188
-30.7406
-58.5989
-90.3878
-120.174
-143.583
-159.432
-172.525
-185.163
-196.943
-189.616
-142.411
-37.6343
132.086
308.89
385.727
429.451
445.446
9.27339
3.41008
-1.0644
-4.13094
-6.30153
-7.75621
-8.40477
-8.39884
-8.64588
-10.1608
-13.0098
-16.1698
-18.2333
-18.2024
-16.0491
-12.5249
-8.43693
-4.13738
0.374815
5.14773
10.0436
14.934
19.9198
25.2394
30.8565
36.3081
40.684
42.9387
42.5372
39.9248
35.8697
31.1491
26.618
23.4236
22.6251
23.716
25.823
27.7664
28.4963
27.1362
22.6853
13.2376
-3.27355
-27.6963
-59.6439
-97.3743
-133.726
-159.581
-171.153
-179.973
-194.927
-217.66
-224.774
-191.503
-92.4897
94.5352
320.476
396.226
439.414
453.498
10.0106
2.95587
-2.13421
-5.43474
-8.01242
-9.81785
-10.1431
-9.01183
-7.98677
-8.83459
-11.8754
-15.7258
-18.4254
-18.6029
-16.2843
-12.588
-8.53884
-4.38182
0.0671691
4.9198
9.92833
14.8728
19.87
25.2999
31.2808
37.1897
42.0653
44.6286
44.0854
41.0714
36.4481
31.0679
25.9234
22.4777
21.882
23.6895
26.9465
30.1375
32.1725
32.4115
30.1181
22.7589
6.93115
-19.6624
-56.8624
-102.953
-147.809
-175.985
-187.013
-190.287
-200.459
-239.574
-261.268
-241.073
-163.885
53.9584
338.334
410.879
451.717
463.213
9.83157
2.43724
-3.34178
-6.94933
-10.442
-13.2361
-13.3853
-10.2966
-7.10186
-6.80067
-10.0896
-14.8637
-18.3674
-18.7436
-16.2107
-12.3784
-8.47129
-4.5893
-0.246932
4.71347
9.88228
14.8772
19.8058
25.2414
31.5268
38.0758
43.5902
46.6693
45.9305
42.4037
37.0004
30.7634
24.7735
20.745
20.0552
22.3208
26.4167
30.9295
34.8972
37.8602
38.0194
33.8469
21.0333
-3.17396
-39.4536
-89.1504
-148.163
-189.534
-199.65
-199.764
-205.708
-254.632
-286.608
-276.598
-254.458
35.8622
361.347
430.603
464.923
473.927
6.52266
1.41929
-4.38489
-8.56957
-13.9047
-19.0958
-19.5515
-12.748
-6.17243
-3.9442
-7.67748
-13.7738
-18.2827
-18.7439
-15.8047
-11.7167
-8.03729
-4.62347
-0.529683
4.50035
9.74676
14.7595
19.6098
25.0893
31.8755
39.4029
45.6323
49.4527
48.2895
44.049
37.5913
30.3329
23.3919
18.7201
17.8332
20.2368
24.4657
29.6018
35.3717
39.9864
43.3297
42.1112
32.6492
12.2533
-20.1796
-67.6951
-134.41
-192.112
-213.288
-212.814
-217.539
-265.033
-293.433
-318.323
-377.219
72.5326
409.436
454.113
480.648
487.417
5.35635
1.15824
-4.68059
-8.73551
-16.7624
-25.9901
-27.4265
-16.5862
-5.03931
0.236563
-4.42647
-12.6887
-18.6698
-18.9856
-15.2446
-10.7878
-7.39429
-4.61681
-0.838296
4.20293
9.60412
14.6178
19.3177
24.7701
32.0868
40.9152
49.2492
52.7678
50.5418
45.5898
37.9914
29.5977
21.663
16.3275
15.1723
17.5826
22.1605
28.8171
35.3983
42.0807
47.0006
48.6182
42.2772
25.9346
-0.13468
-38.2612
-101.211
-174.997
-216.926
-218.929
-221.929
-241.868
-257.511
-403.708
-429.156
201.316
459.962
477.086
499.245
504.186
-5.99519
0.915717
-4.96299
-7.76563
-20.55
-38.7664
-48.8779
-28.8665
-3.57299
7.07294
0.420735
-11.1517
-18.8725
-17.8039
-12.2378
-7.12718
-4.35731
-2.79518
-0.187264
4.43341
9.71658
14.4995
18.7366
23.6597
30.7946
40.4607
49.8113
53.7835
52.2733
46.9116
38.1556
28.976
20.5317
14.9902
13.5123
15.346
18.9113
23.6329
29.9917
36.5938
42.722
46.14
44.8177
33.3427
11.2216
-22.2753
-75.4434
-147.825
-201.207
-218.074
-220.231
-188.628
-400.389
-612.644
-94.0493
291.862
494.487
500.692
519.866
523.657
22.7435
5.37506
-7.37275
-5.45852
-24.2064
-55.205
-65.8128
-31.0931
-0.429004
16.6798
6.81609
-9.80176
-19.053
-16.2368
-9.12539
-4.17553
-2.42693
-1.71056
0.816371
5.53687
10.9268
15.5225
19.2261
24.0529
31.7581
43.0256
53.7515
56.6352
54.2581
46.8996
37.2676
27.5428
18.635
13.2989
12.9287
16.3528
21.4416
27.4038
34.9074
41.7164
46.7414
49.6243
47.0958
35.4501
13.0951
-27.116
-87.8221
-160.702
-207.742
-219.559
-220.738
-150.352
-711.35
-598.293
-5.68686
286.995
482.087
510.991
530.24
533.828
73.0423
7.49339
-2.23418
6.71966
-18.072
-75.163
-123.702
-93.205
5.78125
39.111
19.965
-2.01151
-14.7575
-12.4128
-3.36593
1.31968
0.239106
-1.34742
0.837625
6.63469
12.8852
17.8048
21.9553
27.664
35.6106
46.6033
56.0022
57.6749
53.8716
44.9187
35.5529
25.9348
16.883
11.1148
11.099
15.6005
20.3908
27.6167
37.0098
45.2207
51.998
56.2305
56.0394
48.1264
27.5288
-9.83844
-76.9786
-161.785
-215.644
-230.958
-221.274
-158.669
-768.961
-385.02
84.834
262.56
443.813
503.628
527.327
532.127
82.6461
-12.8379
-57.0389
-12.2336
-11.4785
-32.765
-92.9188
-33.6305
33.2968
42.7887
51.7331
-1.31502
-26.096
-14.5445
3.14414
10.5294
8.59797
5.60089
7.35507
12.113
17.2552
19.9299
23.4282
29.6197
37.7555
46.3997
53.2881
54.7465
51.188
44.0945
35.019
25.3444
16.64
11.9459
12.7534
17.1848
22.0047
29.7219
39.3949
47.5731
54.2534
58.7712
56.6277
48.3123
30.0346
-3.98141
-67.4429
-151.753
-212.092
-233.703
-177.483
-58.7529
-740.71
-383.422
102.445
250.066
407.595
499.851
526.772
532.033
114.446
18.779
2.34184
4.69545
-34.5995
-100.987
-107.006
-86.5157
-50.0336
-19.4154
-2.80063
-21.7309
-26.1326
-7.38346
25.6384
34.3176
19.0434
8.27555
5.71671
8.37411
12.7819
17.6666
22.3225
29.9427
40.3292
50.5752
55.6235
55.9208
51.9646
44.2178
34.8931
24.8995
16.1426
11.5167
12.903
17.8535
23.2636
31.0012
40.6182
49.5786
56.1138
58.0575
54.5296
44.5704
27.2983
0.603776
-58.6598
-140.992
-207.383
-240.654
-199.282
-53.5466
-727.917
-396.977
80.5262
248.487
397.373
500.359
527.02
531.776
63.5038
7.63824
-6.46173
-1.40787
-14.0172
-44.183
-60.2449
-57.3199
-73.6164
-67.5997
-41.7442
-32.1682
-13.4579
12.0223
27.6157
21.3996
13.6194
8.81001
7.29374
9.99728
13.9501
17.4769
21.5599
30.4805
43.1294
53.8423
58.0332
57.293
51.5892
43.9295
34.3855
23.7487
14.7103
10.3875
12.0504
17.2057
22.4793
29.4198
37.6296
45.4188
51.4265
53.1725
48.7347
38.5756
22.4675
-4.75976
-56.1168
-132.823
-205.383
-240.81
-260.402
-230.65
-738.073
-299.347
-21.7184
247.868
398.696
506.11
526.577
529.869
3.49757
1.97979
-6.02225
-5.97877
-16.9916
-34.3929
-38.6949
-39.7938
-56.4264
-66.3251
-53.5007
-38.0527
-14.2594
17.9217
29.6642
25.9508
14.9826
6.95406
5.45379
8.71071
13.2585
17.0728
20.1584
27.5714
39.8546
52.6561
60.3737
57.796
53.0308
45.5713
34.862
23.5453
13.2765
8.64468
11.5889
17.147
21.9628
26.593
33.1503
40.1084
45.38
45.6111
40.4052
30.321
14.0406
-13.1727
-59.7332
-130.519
-199.781
-236.257
-247.396
-232.828
-593.783
-284.911
-134.743
271.843
396.05
505.929
521.803
523.85
-4.30374
-7.03287
-11.5676
-8.70875
-12.4187
-21.652
-24.7979
-33.0963
-51.3582
-60.1301
-51.9011
-37.5174
-16.6561
6.59217
18.1674
17.3116
12.3689
7.78982
7.42755
10.5849
14.7164
18.7117
22.3547
28.1885
37.6462
48.3459
54.2659
54.6731
51.842
46.1354
35.5848
24.3584
16.8468
14.462
15.3939
19.6961
24.8179
27.9209
31.1825
36.7992
41.0225
41.2754
35.1782
21.1362
-1.87455
-38.1006
-93.4061
-164.866
-222.387
-230.706
-247.768
-203.388
-352.205
-347.888
-201.812
264.568
394.031
490.799
507.04
510.137
-15.7199
-8.55248
-10.9129
-6.76269
-6.17773
-8.92665
-13.6148
-26.8564
-47.3429
-56.466
-52.1071
-38.1378
-18.3936
-0.351334
10.7644
11.6065
9.10775
7.16181
8.381
11.8362
15.9782
19.2959
24.2778
29.9109
36.7989
45.1361
49.8896
51.774
49.8025
44.3356
34.3992
24.2261
17.2914
13.8188
13.4412
16.32
19.9282
23.9739
29.2101
35.3249
39.7324
38.4507
29.4476
10.5735
-16.0555
-53.8002
-108.11
-168.147
-201.268
-216.05
-241.225
-270.529
-331.058
-376.832
-290.595
124.967
374.396
479.131
499.782
503.935
4.97516
-0.441424
-4.20432
-4.98184
-5.66131
-7.62802
-12.0591
-22.6366
-37.5452
-48.0216
-49.2994
-41.3516
-27.0273
-11.4941
-0.13547
5.11119
6.81031
8.11481
10.6042
14.3926
18.7697
23.7407
27.6403
33.6415
40.1449
46.4419
49.7797
49.8186
47.4855
41.7188
32.8177
23.8009
17.6707
15.3224
16.0182
19.6304
24.7364
30.0808
35.6966
39.5918
41.1591
37.5647
26.0866
3.83932
-26.3877
-70.3098
-129.282
-181.703
-207.245
-217.367
-235.988
-286.013
-268.397
-271.365
-222.913
60.0191
366.764
447.703
485.128
493.049
6.46155
-1.75992
-4.30699
-4.83443
-5.48691
-7.3242
-11.5499
-19.7283
-30.5236
-39.5299
-42.6657
-38.6469
-28.9717
-16.8944
-6.2318
0.655054
5.17815
8.73841
12.333
16.2685
20.4085
24.8172
29.4077
34.6467
40.0549
44.8078
47.4742
47.5148
45.3669
40.5022
33.2539
25.9402
20.5831
17.9976
18.0487
20.6833
24.8549
29.4301
34.2032
37.1095
36.3481
29.9763
15.2188
-9.53166
-43.6049
-90.3175
-144.175
-184.728
-199.74
-204.421
-218.301
-242.536
-234.641
-207.571
-133.93
50.6711
336.005
417.299
460.921
472.372
8.78007
1.69363
-2.13077
-3.83363
-5.03857
-6.91527
-10.8283
-17.7191
-26.8097
-35.0545
-39.3057
-37.7247
-30.9185
-21.0389
-10.7246
-2.24576
4.18237
9.24327
13.7846
18.1044
22.3968
26.7871
31.1323
35.6241
39.9564
43.5025
45.3162
45.2482
43.2723
39.0917
33.2449
27.3692
23.0132
20.8674
20.9603
23.0617
26.4884
29.8772
32.4304
32.9348
29.8875
21.1752
4.42402
-20.9482
-55.0962
-98.8367
-145.46
-179.545
-193.098
-200.558
-212.053
-220.616
-207.557
-173.105
-90.1121
85.6687
316.001
397.361
441.934
456.219
8.82464
2.55677
-0.899182
-2.95855
-4.4878
-6.54202
-10.2809
-16.4587
-24.5964
-32.3464
-37.112
-36.9706
-31.7705
-23.0703
-13.3089
-4.1401
3.49131
9.55115
14.6592
19.2024
23.4948
27.704
31.8588
35.9362
39.6431
42.4735
43.8533
43.5862
41.6509
37.9888
33.1192
28.2254
24.4539
22.3914
22.1229
23.3782
25.5606
27.7942
29.0839
28.0303
23.3121
13.1109
-4.37456
-29.3996
-61.498
-99.6073
-138.417
-166.883
-181.271
-188.172
-196.855
-201.73
-181.133
-133.669
-39.6343
122.315
304.691
383.816
427.871
443.995
8.7743
3.37584
-0.0426388
-2.3126
-4.08202
-6.30197
-10.0047
-15.8022
-23.3829
-30.8086
-35.8657
-36.571
-32.4371
-24.5744
-14.9287
-5.32688
2.97252
9.69014
15.2019
19.9143
24.1982
28.2793
32.2471
36.0264
39.3683
41.7563
42.8578
42.4624
40.5615
37.2506
33.0211
28.7762
25.4061
23.4049
22.8999
23.6685
25.1285
26.4088
26.5898
24.4608
18.7263
7.80499
-9.64471
-33.6628
-63.7683
-97.9569
-130.015
-154.327
-167.989
-173.79
-177.494
-171.699
-148.873
-95.6099
2.31461
152.48
298.131
374.877
418.148
435.35
7.17308
3.09181
0.476412
-1.74312
-3.74391
-6.08483
-9.80326
-15.3836
-22.6607
-29.9055
-35.0923
-36.2518
-32.6937
-25.2921
-15.9246
-6.00574
2.68633
9.79136
15.5528
20.3744
24.6605
28.6792
32.539
36.12
39.1791
41.3333
42.2557
41.7752
39.9023
36.8042
32.9563
29.0953
25.9527
23.9767
23.2988
23.7273
24.7218
25.436
24.9059
22.0006
15.5396
4.14376
-13.1169
-36.0139
-64.1175
-94.9222
-123.514
-145.614
-158.3
-163.357
-164.215
-156.106
-127.893
-70.0338
31.1627
168.75
294.147
369.173
411.957
429.768
6.11693
2.64265
0.645322
-1.52883
-3.60762
-6.00841
-9.73266
-15.2254
-22.3661
-29.5365
-34.7897
-36.1561
-32.8748
-25.6763
-16.2527
-6.37584
2.49922
9.78333
15.6785
20.5621
24.8419
28.8032
32.617
36.1055
39.0422
41.0968
41.9483
41.4372
39.5887
36.5971
32.9225
29.2384
26.1983
24.2255
23.4666
23.7215
24.4698
24.9122
24.0952
20.9221
14.2529
2.80472
-14.1278
-36.2163
-63.0798
-92.3264
-119.414
-140.632
-153.193
-158.115
-157.594
-147.834
-117.519
-57.6211
43.7027
175.791
292.256
366.496
409.074
427.158
5.56874
2.63885
1.46768
0.992185
1.2601
1.1021
-2.24453
-10.6645
-24.0863
-39.7985
-53.4081
-60.5242
-58.489
-48.9124
-35.0209
-19.7538
-5.83815
4.84555
12.0138
16.7362
20.3769
24.0287
28.3748
33.6081
39.4185
44.9785
48.9545
50.4107
49.1864
45.8157
41.1949
36.296
31.8811
28.5941
26.5407
25.3575
24.3213
22.5946
19.2551
13.4887
4.47322
-8.37778
-25.5611
-46.961
-71.4768
-96.6989
-120.467
-142.375
-160.303
-171.219
-176.381
-172.243
-146.899
-84.5801
33.2024
184.812
318.409
395.135
437.116
453.981
5.88352
3.04785
1.68269
1.26245
1.90175
2.12748
-1.06221
-9.57819
-23.2122
-39.1231
-52.8301
-60.0241
-58.1359
-48.7983
-35.3869
-20.6308
-7.05889
3.46959
10.5583
15.2852
18.9738
22.7371
27.2757
32.808
39.0793
45.1849
49.6371
51.2644
49.9186
46.2353
41.2754
36.1243
31.5595
28.331
26.4653
25.5434
24.7169
22.981
19.2633
12.6715
2.42931
-11.9517
-30.6216
-53.5426
-79.6645
-105.609
-129.039
-150.365
-166.675
-174.91
-180.12
-178.204
-157.074
-96.3149
28.8254
197.49
343.29
420.905
461.937
477.74
4.35945
2.75048
1.57463
1.43569
2.44637
2.97762
-0.0729067
-8.56745
-22.1646
-37.9864
-51.5575
-58.7095
-57.1019
-48.2157
-35.4356
-21.3574
-8.30332
1.99577
8.92921
13.6442
17.4112
21.2922
26.0042
31.8051
38.4903
45.0812
49.9763
51.7375
50.2322
46.1425
40.6962
35.1128
30.2022
26.5282
24.5746
23.7848
23.0407
21.1733
17.0607
9.79754
-1.35778
-16.8095
-36.0433
-58.8039
-84.3252
-109.297
-131.604
-151.448
-166.445
-174.142
-179.688
-181.065
-166.225
-107.218
28.1735
215.003
371.564
447.847
486.85
501.136
3.74504
2.56837
1.5324
1.46066
2.80103
3.54325
0.598498
-7.71843
-20.9881
-36.3818
-49.6108
-56.6967
-55.4463
-47.2593
-35.2262
-21.953
-9.58753
0.371996
7.11953
11.8656
15.7587
19.7733
24.642
30.664
37.695
44.7498
50.0626
52.0835
50.4973
46.1383
40.494
34.9061
30.1023
26.7663
25.3587
25.1726
24.7347
22.9094
18.5289
10.8085
-0.18831
-15.3688
-34.2517
-56.5193
-82.1249
-107.65
-130.58
-149.648
-162.083
-168.378
-177.75
-185.44
-177.164
-118.59
31.4376
234.984
402.499
474.884
510.793
523.177
1.67282
2.12935
1.36399
1.49542
3.018
3.7868
0.973552
-6.87797
-19.3972
-33.9837
-46.7241
-53.8375
-53.1768
-45.8169
-34.7245
-22.3853
-10.8544
-1.48606
5.22542
10.0882
14.1462
18.2769
23.2709
29.4554
36.772
44.2325
49.9298
52.2151
50.6244
46.1127
40.2832
34.4585
29.3985
25.7842
24.1024
23.7744
23.3639
21.4991
17.2026
9.80468
-0.967334
-15.2853
-33.1478
-54.3377
-79.4241
-105.616
-129.359
-150.217
-165.491
-173.518
-184.228
-195.99
-190.549
-128.995
39.7067
256.236
432.78
499.262
531.542
541.901
2.62031
1.73045
1.31287
1.48434
2.77221
3.33928
0.688257
-6.41026
-17.7507
-30.99
-42.9867
-49.8902
-49.9217
-43.7501
-33.8445
-22.5681
-11.8735
-3.02405
3.58421
8.54359
12.7685
17.0763
22.1606
28.5065
35.9972
43.6018
49.4102
51.7782
50.2797
45.8015
39.9031
34.0734
29.1117
25.7855
24.2871
23.962
23.547
21.6587
17.4551
10.1832
-0.655872
-14.7958
-32.0176
-52.7733
-77.5416
-103.655
-127.806
-148.918
-165.701
-171.283
-171.875
-191.046
-190.718
-123.525
51.3064
273.94
453.715
516.159
545.569
555.022
0.461965
0.924443
1.11797
1.41719
2.37159
2.62323
0.151087
-6.15284
-16.1976
-28.0275
-38.7572
-45.4445
-46.1147
-41.1465
-32.5147
-22.3664
-12.5155
-4.19187
2.24415
7.2543
11.6439
16.1903
21.3128
27.7546
35.3424
42.9598
48.7377
51.0682
49.7448
45.3353
39.4214
33.4768
28.4578
25.0585
23.5617
23.461
23.3287
21.7233
17.688
10.5589
-0.233873
-14.4595
-31.4571
-51.6071
-75.8323
-101.362
-124.584
-145.614
-163.537
-179.934
-200.627
-212.353
-199.359
-126.073
53.3629
285.542
468.097
525.885
552.439
561.859
2.24603
1.58331
1.37978
1.38549
1.80368
1.744
-0.527818
-5.96566
-14.647
-25.0015
-34.7036
-41.0894
-42.3513
-38.452
-31.0659
-22.0622
-13.1051
-5.34704
0.887052
6.00657
10.6257
15.345
20.6454
27.0343
34.6025
42.1834
47.9771
50.3892
48.9609
44.454
38.5688
32.6345
27.5812
24.2352
22.866
22.8888
22.7599
21.1456
17.2805
10.3391
-0.273032
-14.6439
-31.9858
-52.1294
-75.8171
-101.259
-125.098
-142.426
-154.02
-161.169
-182.467
-209.71
-194.485
-120.354
51.1019
280.297
465.475
523.544
552.305
561.217
1.89806
1.59972
1.30777
1.05594
1.05718
0.714803
-1.39655
-6.06165
-13.4292
-22.2546
-30.6955
-36.4407
-37.8615
-35.1222
-29.0904
-21.2681
-13.2072
-5.98393
0.0795208
5.22654
9.98759
14.8244
20.1944
26.6228
34.0342
41.3667
46.958
49.3837
48.0388
43.7626
38.0356
32.1865
27.1624
23.8168
22.5233
22.6988
22.8055
21.3504
17.3685
10.1199
-0.821284
-15.6704
-33.2213
-53.5369
-76.5847
-100.577
-124.381
-144.416
-161.532
-177.632
-198.307
-214.057
-194.586
-121.617
40.6102
264.43
452.382
513.706
545.289
554.433
3.84695
2.32433
1.39232
0.688542
0.208285
-0.403172
-2.38075
-6.34086
-12.5224
-19.9453
-27.1857
-32.3265
-34.0637
-32.096
-27.1175
-20.352
-13.1312
-6.4745
-0.674658
4.51716
9.43586
14.4255
19.8964
26.2459
33.4372
40.4809
45.8513
48.1833
46.9087
42.8477
37.3748
31.6256
26.6214
23.2939
22.0629
22.2636
22.4478
21.0797
17.1278
9.64652
-2.10891
-17.4853
-35.0524
-54.9398
-77.6327
-102.041
-126.724
-147.682
-165.255
-181.767
-205.115
-218.649
-197.951
-125.967
28.5415
244.691
433.442
498.773
533.326
542.779
4.04645
2.26511
1.22317
0.221656
-0.641631
-1.47079
-3.27788
-6.5378
-11.5512
-17.6461
-23.7941
-28.4134
-30.331
-29.036
-24.9813
-19.1569
-12.734
-6.56298
-0.912095
4.35414
9.43821
14.5229
19.936
26.0782