/*--------------------------------*- C++ -*----------------------------------*\
| =========                 |                                                 |
| \\      /  F ield         | OpenFOAM: The Open Source CFD Toolbox           |
|  \\    /   O peration     | Version:  2.1.1                                 |
|   \\  /    A nd           | Web:      www.OpenFOAM.org                      |
|    \\/     M anipulation  |                                                 |
\*---------------------------------------------------------------------------*/
FoamFile
{
    version     2.0;
    format      ascii;
    class       volScalarField;
    location    "0.00125";
    object      p_rgh;
}
// * * * * * * * * * * * * * * * * * * * * * * * * * * * * * * * * * * * * * //

dimensions      [1 -1 -2 0 0 0 0];

internalField   nonuniform List<scalar> 
36520
(
8.92462
5.20301
3.35858
1.17695
0.468813
2.06352
1.9779
-5.34686
-26.2832
-59.1522
-92.4516
-110.387
-103.672
-75.2932
-36.2983
0.369933
25.2666
37.8617
42.7672
44.3599
45.2875
46.6593
48.5615
50.5962
52.2701
53.1175
52.8159
51.2234
48.3639
44.4564
39.9234
35.3625
31.3865
28.4551
26.7646
26.171
26.2252
26.3
25.7559
23.918
20.1089
13.7214
4.02768
-10.0015
-29.5969
-55.9597
-89.3452
-130.02
-176.122
-217.419
-233.404
-216.229
-165
-74.7166
50.2235
180.414
288.594
360.571
402.707
420.763
9.90983
5.88727
3.36434
0.806804
0.125225
2.30589
3.25247
-3.32947
-24.7491
-59.8962
-96.1311
-115.71
-108.757
-78.2696
-36.521
2.18289
27.6055
39.6459
43.8186
44.728
45.4424
46.7838
48.7398
50.8707
52.6562
53.5833
53.3175
51.719
48.7966
44.7638
40.0587
35.3114
31.1852
28.188
26.5364
26.0511
26.2644
26.5148
26.1733
24.5634
20.9973
14.8995
5.52327
-8.28206
-27.9278
-54.7081
-89.0631
-131.379
-181.452
-228.981
-248.306
-231.432
-180.647
-91.3582
40.3779
176.968
290.72
363.539
405.746
423.571
11.8953
7.13224
3.29888
0.0102288
-0.652784
2.76885
5.73979
0.701861
-21.6072
-61.2446
-103.242
-126.084
-117.96
-84.0625
-36.8859
5.78397
32.1512
43.043
45.6787
45.411
45.4563
46.7491
48.9295
51.3708
53.3736
54.4705
54.2961
52.7014
49.6602
45.3749
40.3069
35.1605
30.7141
27.5679
25.9918
25.7873
26.3653
27.0312
27.169
26.1226
23.2144
17.8597
9.25449
-4.08006
-23.777
-51.4019
-87.9115
-133.95
-192.507
-253.146
-278.175
-259.417
-210.685
-126.376
12.6903
167.687
294.901
369.776
412.105
429.421
12.8492
8.01135
3.06571
-1.20327
-1.80407
3.4482
9.18799
6.45911
-16.8785
-62.8371
-113.127
-140.75
-130.691
-92.4122
-37.3935
11.0087
38.5702
47.7041
48.1738
46.5099
45.7045
46.7806
49.307
52.1151
54.4987
55.9132
55.8848
54.2825
51.0265
46.3146
40.6592
34.867
29.9061
26.5431
25.061
25.2691
26.3745
27.601
28.3888
28.1166
26.0749
21.7827
14.2314
1.44018
-18.3417
-47.1211
-86.6724
-137.822
-203.642
-279.253
-314.634
-296.225
-250.139
-171.06
-28.9596
151
302.432
379.655
421.99
438.349
13.5634
8.92333
2.65776
-2.79934
-3.33184
4.31886
13.0785
13.0608
-11.1952
-64.8466
-125.243
-158.734
-144.771
-102.513
-37.9557
17.5361
46.282
53.11
50.8413
47.2429
45.3672
46.3097
49.1906
52.7206
55.9041
57.9047
58.1352
56.5274
52.9483
47.6501
41.1323
34.3794
28.5951
24.8133
23.4881
24.2624
26.1412
28.127
29.7252
30.4063
29.4054
26.483
20.5315
8.7595
-10.3848
-39.0252
-80.1963
-134.225
-202.986
-292.212
-357.585
-338.733
-291.255
-225.711
-81.0169
123.911
314.713
393.638
435.536
450.239
12.9041
9.4931
2.12057
-4.66062
-4.73471
5.83079
17.5836
19.4736
-5.89245
-67.6696
-138.914
-178.471
-158.832
-113.03
-39.155
24.6324
54.2312
58.4108
53.2421
47.787
44.84
45.7643
49.0869
53.5963
57.5156
60.1837
60.9578
59.4484
55.3559
49.3146
41.7461
33.8228
27.0538
22.736
21.569
22.7712
25.3261
27.9944
30.3583
32.1989
32.6144
31.4194
27.4835
17.23
-0.174151
-26.7167
-67.4975
-125.252
-197.298
-286.453
-391.622
-391.133
-333.697
-297.996
-132.549
92.5676
338.971
412.628
452.898
465.009
13.4642
10.7641
2.09225
-6.17278
-5.75545
8.12697
23.0555
25.3793
-2.68632
-72.574
-153.67
-196.002
-173.641
-121.682
-40.8528
31.9595
60.9924
62.8902
55.2493
48.349
44.5216
44.5636
48.0865
53.4046
58.279
62.2003
64.0422
62.5433
58.2512
51.449
42.8526
33.7517
25.8744
20.621
18.6197
20.5944
24.1214
27.5044
30.3495
32.9081
34.4431
34.8752
33.0667
24.8758
8.70041
-15.4607
-53.7807
-115.003
-189.185
-259.963
-360.719
-514.233
-394.56
-367.621
-206.55
93.4115
380.666
437.6
473.716
483.037
4.46545
9.99334
0.763004
-9.60992
-6.23767
12.9695
33.0868
34.0915
-2.63806
-81.1091
-169.197
-212.571
-184.47
-111.405
-33.0246
30.6426
60.7792
65.1519
55.6841
46.5573
41.0142
41.4851
46.225
53.0674
58.8259
64.2367
67.5619
66.9631
61.7951
54.2196
44.5958
34.6056
25.9686
20.1752
18.3313
19.742
23.2844
27.0255
29.9738
32.6112
34.9283
36.1561
35.6759
29.861
15.5059
-5.64869
-42.0396
-106.673
-179.042
-233.469
-294.361
-439.902
-303.882
-351.145
-180.664
173.837
403.049
472.225
500.045
505.747
28.798
18.1945
2.6986
-2.94072
6.76839
24.7174
37.2883
28.1482
-16.1248
-96.4427
-179.839
-213.456
-174.879
-87.6604
-12.0014
31.5482
53.2977
58.2252
52.8389
46.5434
42.4547
43.1266
46.8657
53.0756
58.523
64.4719
69.2859
69.3365
64.4016
56.4468
45.9098
34.8198
24.7645
17.6633
15.451
17.9612
22.5775
27.1369
30.5412
33.7415
36.748
37.6069
37.2283
33.7643
22.5969
5.02867
-29.6975
-99.3063
-177.799
-239.831
-271.114
-166.95
-399.858
-540.405
-184.465
219.078
405.888
499.214
519.969
522.459
46.8301
16.5928
-0.980527
-9.1641
0.00856259
28.3128
46.3871
40.0039
-9.39415
-99.6492
-194.977
-224.29
-180.458
-99.0702
-15.9746
36.6503
60.7708
63.4852
56.3862
48.4183
43.3742
42.6341
44.4504
47.7358
56.8207
68.6846
75.4564
74.6284
67.2526
56.9057
45.8117
33.8573
23.0206
15.9536
14.4878
17.5619
22.1088
26.3952
30.8209
34.5724
37.6148
40.7458
41.854
39.1302
31.0116
11.8452
-34.4261
-108.699
-179.287
-238.91
-248.003
18.6733
-582.713
-590.329
-173.003
257.953
419.15
507.456
524.461
525.992
37.7146
14.5703
-2.79069
-7.75202
5.90571
29.2454
47.7855
47.6112
4.37528
-95.1063
-205.835
-235.642
-192.936
-106.362
-17.4945
44.8186
69.4218
69.7834
58.2647
47.4921
40.8851
38.7989
40.0816
44.1251
51.3951
64.181
78.0741
81.4899
70.9255
58.9821
46.3229
33.2761
23.2256
17.3576
16.6205
20.0291
24.5695
28.3054
32.1812
35.2774
37.5632
40.7442
43.1165
43.0958
36.6371
17.9374
-26.3187
-105.999
-180.208
-233.332
-228.793
55.64
-663.932
-597.747
-110.981
323.912
438.793
510.184
526.435
527.687
4.13437
13.1166
0.209013
-11.1733
-5.14272
26.3482
53.6791
66.1662
22.9043
-91.9981
-231.743
-273.308
-232.257
-131.586
-12.8448
57.8461
84.2697
80.629
62.0965
47.0268
39.1814
36.3645
37.8228
42.6064
50.977
61.6408
71.8512
76.0739
70.5666
59.6673
47.663
35.234
25.4412
19.9044
18.8716
21.1308
24.9947
28.5919
31.9929
35.3019
37.9648
40.9777
43.5006
42.5796
36.5796
17.7231
-27.0733
-106.643
-182.802
-232.964
-232.972
-79.407
-532.894
-554.478
-130.258
389.141
455.17
508.451
521.952
523.541
6.79467
12.7357
-1.17708
-17.9322
-15.4335
18.7569
58.4223
83.2686
51.9102
-63.8052
-217.357
-308.929
-270.106
-166.049
-26.2622
66.5606
103.338
99.5861
73.4639
50.6387
39.6119
35.4233
35.8452
40.6278
49.3426
58.9003
71.7962
78.3086
71.7056
61.4473
48.9422
35.6309
25.3667
19.9336
18.825
21.3983
26.0678
31.6873
35.0659
36.7629
39.2372
42.2146
45.2411
43.9589
34.2272
9.25869
-40.2273
-117.003
-186.202
-228.883
-231.648
-99.453
-602.622
-561.89
-96.5851
368.146
457.26
506.829
521.253
523.43
35.3682
16.9122
5.35513
-22.7939
-24.8478
17.2289
66.8318
103.093
77.7382
-44.9074
-208.804
-349.874
-260.516
-184.265
-20.6052
58.5062
110.954
115.259
74.2286
49.5871
36.2352
30.9955
31.8541
38.0022
46.9377
59.6122
78.0563
88.1584
75.8211
62.1037
48.6425
34.0973
23.9105
18.2422
17.464
20.4856
25.1587
29.3277
32.6767
33.7765
33.9587
35.9475
39.2718
39.6126
27.8641
-2.54658
-53.716
-123.975
-185.279
-219.472
-222.573
-122.806
-719.051
-463.328
7.13542
292.549
443.738
502.258
523.274
526.637
64.5577
28.2094
11.6379
-32.3379
-55.0116
-7.62761
33.8588
94.4304
94.4448
6.50648
-166.174
-313.275
-447.113
-425.212
-100.656
43.2997
138.899
144.542
90.7565
48.3921
30.7114
25.2189
28.3334
40.0253
57.753
75.2646
80.3062
78.8474
70.3341
58.779
47.3605
36.061
26.3207
20.3878
19.7066
21.9165
26.4089
31.331
33.1688
32.5304
31.4393
31.2169
27.9722
20.9004
4.63105
-26.7838
-74.1434
-133.449
-183.809
-213.166
-219.607
-184.044
-616.317
-468.253
54.5844
243.295
431.762
492.321
518.807
523.737
34.9718
23.0692
-9.70797
-46.3643
-26.2764
40.9969
88.4999
96.6623
57.0472
-78.8629
-199.986
-251.654
-185.366
-126.188
-129.111
-24.2323
104.311
119.154
75.9817
44.0824
27.3557
22.1418
24.4155
33.4778
48.405
65.2256
74.5451
73.5274
65.708
56.736
46.6399
37.077
29.0583
23.6104
21.2198
22.3385
24.4099
27.2962
29.5656
30.2087
29.1918
26.9382
20.1433
6.11492
-17.383
-49.0943
-91.0601
-141.056
-179.135
-203.757
-204.475
-138.261
-508.477
-434.038
69.6909
236.035
432.292
486.568
514.95
520.85
7.03194
8.85791
-8.29278
-24.9774
-15.3953
9.79151
48.7883
72.6755
34.6693
-70.6526
-178.554
-222.202
-193.893
-120.471
-67.7511
-21.2938
50.2435
76.6046
57.5246
37.393
26.3239
22.5441
24.033
31.2473
44.5917
59.7613
69.4005
71.0768
65.9226
56.8431
46.2658
36.2681
27.5335
21.7087
20.412
22.3316
25.0486
27.2157
28.6397
29.1087
28.9117
27.7086
20.3012
3.56824
-22.2044
-54.2294
-93.939
-138.389
-174.076
-202.213
-209.639
-219.898
-407.755
-450.565
-84.3493
212.095
434.581
471.495
500.819
507.926
13.6936
6.31169
-5.75639
-12.8159
-3.07897
16.6711
31.5515
35.3108
4.74749
-66.3539
-138.131
-167.277
-152.061
-110.649
-62.1906
-12.6727
34.1799
51.4871
43.3454
32.0666
25.2973
23.6953
26.3074
33.1439
44.4996
56.9831
65.0013
66.1899
62.0843
54.8194
45.5858
36.5779
28.9238
23.9331
22.278
23.2239
25.0853
26.8923
27.8954
27.763
26.1877
22.3888
12.655
-6.13764
-32.9514
-64.4203
-100.232
-140.653
-173.35
-202.564
-237.595
-285.357
-320.564
-356.374
-194.015
117.171
407.278
442.984
478.087
487.291
10.4025
4.20769
-3.66661
-7.29787
-0.164518
12.3257
20.9269
16.7081
-10.5033
-59.1709
-106.356
-127.336
-115.143
-86.6095
-50.2932
-12.2774
19.9351
33.7728
32.6118
27.7408
24.6204
24.6731
27.8395
34.1616
43.5635
53.4663
60.0047
61.1211
58.0353
52.1179
44.3767
36.6869
30.2029
25.971
24.4832
24.9628
26.082
27.0019
27.1263
25.9895
22.8657
16.5439
4.08737
-16.8542
-44.4269
-76.5203
-112.146
-148.682
-177.883
-208.827
-245.659
-263.858
-259.774
-250.929
-159.274
64.537
371.838
418.752
458.764
469.729
11.2837
3.92847
-1.97973
-4.04276
0.571075
7.77915
11.146
4.23432
-18.171
-52.7608
-85.3403
-100.989
-94.4717
-71.6721
-43.1843
-14.1085
9.90412
22.5562
25.3151
24.473
23.8991
25.1656
28.699
34.5477
42.4675
50.6216
56.0031
57.483
54.9653
49.9183
43.3264
36.6806
31.0423
27.2708
25.6359
25.5282
25.968
26.1968
25.5404
23.2782
18.4911
10.0238
-4.44316
-26.4461
-54.2255
-85.4028
-117.96
-149.545
-177.7
-204.469
-230.528
-241.949
-233.68
-200.326
-93.1965
82.5134
333.729
399.818
441.772
455.197
9.64117
3.76393
-0.47926
-1.79141
0.900073
4.66297
4.68723
-3.38402
-21.8714
-47.3387
-70.7728
-82.4377
-78.1041
-61.5141
-39.1631
-16.1077
3.24768
15.1969
20.2406
21.9918
23.2646
25.4869
29.2481
34.684
41.5236
48.3112
52.9206
54.3333
52.4301
48.177
42.5398
36.7621
31.7685
28.2783
26.5092
25.9449
25.7428
25.1444
23.4153
19.8213
13.4554
3.19021
-12.6238
-34.6121
-61.4528
-90.6338
-120.348
-149.181
-173.819
-194.541
-211.645
-217.798
-208.982
-159.038
-46.3513
117.157
313.555
387.099
429.358
444.529
9.13745
3.73331
0.604372
-0.451922
0.771997
2.30527
0.389005
-7.97643
-23.6602
-43.6507
-61.6234
-70.6777
-67.5609
-54.7174
-36.6479
-17.5363
-0.992045
10.3878
16.6927
20.0466
22.5249
25.438
29.4152
34.6156
40.6898
46.5183
50.6127
51.9666
50.4825
46.847
41.9397
36.7968
32.2293
28.9033
26.9921
26.0669
25.3893
24.2106
21.7632
17.2542
9.80332
-1.49114
-17.5471
-38.6058
-63.2857
-90.068
-115.804
-141.027
-163.447
-179.695
-189.19
-189.395
-168.53
-115.676
-4.48277
149.159
304.309
379.113
421.129
437.477
7.53834
3.39985
1.3312
0.372965
0.674631
0.762838
-2.2666
-10.581
-24.4302
-41.1747
-55.9285
-63.5171
-61.1197
-50.5054
-35.0819
-18.373
-3.49677
7.45997
14.4146
18.7455
22.029
25.4048
29.5068
34.518
40.1062
45.3644
49.0475
50.3488
49.1143
45.8666
41.4222
36.6961
32.4242
29.1897
27.1498
25.9377
24.8695
23.1807
20.1243
14.9167
6.76427
-4.95515
-20.7203
-40.6481
-64.033
-88.8488
-112.903
-135.787
-155.655
-169.379
-175.9
-171.505
-145.548
-84.887
26.0801
168.273
298.966
373.625
415.612
432.776
6.33326
2.85015
1.56419
0.681692
0.541795
-0.0359953
-3.5503
-11.7813
-24.744
-39.9884
-53.2146
-60.1201
-58.0648
-48.4325
-34.3032
-18.7615
-4.68511
6.0471
13.2648
18.0307
21.6789
25.2706
29.431
34.3611
39.7254
44.73
48.2573
49.5532
48.4491
45.4073
41.1964
36.6712
32.5409
29.3506
27.2294
25.8489
24.5812
22.6942
19.453
14.1341
5.93332
-5.71099
-21.1877
-40.5471
-63.1743
-87.1036
-110.436
-132.396
-151.309
-164.24
-169.667
-163.025
-134.065
-70.5053
40.1581
176.367
296.95
371.205
413.199
430.755
6.44534
2.38191
0.326516
-2.0354
-4.0151
-5.4867
-6.7597
-8.03195
-9.72296
-11.9325
-14.466
-16.6493
-17.7466
-17.2717
-15.2031
-11.9038
-7.88681
-3.52435
1.00677
5.64393
10.3668
15.1552
20.0671
25.1636
30.2872
34.9747
38.5218
40.3234
40.1112
38.105
34.8719
31.1196
27.5923
24.9756
23.6999
23.6872
24.1624
24.159
22.8157
19.3688
13.0298
2.78215
-11.959
-31.185
-55.1976
-81.907
-107.731
-130.133
-148.238
-162.443
-172.735
-173.911
-151.861
-92.3704
18.4026
165.733
299.059
375.782
419.262
436.909
7.55025
3.04202
0.182433
-2.35819
-4.34654
-5.78731
-6.95805
-8.04318
-9.5368
-11.6507
-14.2331
-16.5645
-17.8141
-17.414
-15.345
-12.0139
-7.98133
-3.62115
0.911985
5.56949
10.3189
15.1258
20.0624
25.2131
30.4194
35.2446
38.9225
40.7956
40.5511
38.4332
35.051
31.1297
27.4348
24.734
23.5151
23.6963
24.42
24.7055
23.6387
20.444
14.282
3.95004
-11.2163
-31.3133
-56.5735
-84.774
-111.668
-134.254
-151.791
-165.683
-176.753
-181.437
-164.349
-108.712
-0.0703306
155.478
302.106
379.046
422.665
439.795
9.09538
3.59436
-0.24436
-3.06179
-5.1039
-6.50787
-7.45678
-8.14295
-9.16938
-11.0603
-13.7459
-16.3934
-17.9604
-17.7135
-15.6251
-12.225
-8.16159
-3.81164
0.722319
5.42895
10.2421
15.0944
20.0652
25.3057
30.6673
35.7305
39.6772
41.696
41.385
39.061
35.4065
31.16
27.1194
24.2001
23.1253
23.7292
25.0315
25.9923
25.6277
23.1129
17.4721
7.20467
-8.71088
-30.6596
-58.5179
-90.3067
-120.093
-143.501
-159.351
-172.444
-185.082
-196.862
-189.535
-142.33
-37.5533
132.167
308.971
385.808
429.532
445.527
9.35443
3.49113
-0.983355
-4.0499
-6.22048
-7.67516
-8.32372
-8.31779
-8.56484
-10.0798
-12.9287
-16.0888
-18.1523
-18.1214
-15.968
-12.4439
-8.35589
-4.05633
0.45586
5.22878
10.1247
15.015
20.0008
25.3204
30.9375
36.3891
40.765
43.0198
42.6182
40.0059
35.9508
31.2301
26.6991
23.5047
22.7061
23.7971
25.9041
27.8475
28.5774
27.2172
22.7664
13.3189
-3.19184
-27.6135
-59.559
-97.2855
-133.631
-159.481
-171.062
-179.889
-194.846
-217.578
-224.692
-191.42
-92.4064
94.6171
320.557
396.307
439.495
453.579
10.0918
3.03702
-2.05306
-5.35359
-7.93127
-9.7367
-10.062
-8.93068
-7.90562
-8.75345
-11.7943
-15.6447
-18.3442
-18.5218
-16.2032
-12.5069
-8.4577
-4.30067
0.148316
5.00095
10.0095
14.9539
19.9511
25.381
31.362
37.2708
42.1464
44.7097
44.1665
41.1525
36.5293
31.1491
26.0046
22.5588
21.9631
23.7707
27.0276
30.2187
32.2536
32.4927
30.1993
22.8403
7.01285
-19.5796
-56.7761
-102.86
-147.71
-175.885
-186.915
-190.193
-200.374
-239.486
-261.165
-240.949
-163.745
54.0688
338.416
410.96
451.798
463.294
9.91279
2.51846
-3.26057
-6.86812
-10.3608
-13.1549
-13.3041
-10.2153
-7.02064
-6.71946
-10.0084
-14.7825
-18.2862
-18.6624
-16.1295
-12.2972
-8.39007
-4.50809
-0.165716
4.79468
9.96349
14.9584
19.887
25.3226
31.608
38.157
43.6714
46.7505
46.0117
42.485
37.0816
30.8446
24.8547
20.8263
20.1364
22.4021
26.4979
31.0107
34.9784
37.9414
38.1007
33.9282
21.1148
-3.09135
-39.3694
-89.0646
-148.076
-189.446
-199.56
-199.667
-205.608
-254.501
-286.333
-276.049
-253.789
36.1669
361.432
430.684
465.004
474.008
6.60369
1.50031
-4.30386
-8.48854
-13.8237
-19.0148
-19.4705
-12.667
-6.0914
-3.86317
-7.59645
-13.6928
-18.2017
-18.6629
-15.7236
-11.6357
-7.95627
-4.54245
-0.448657
4.58137
9.82779
14.8405
19.6908
25.1703
31.9565
39.484
45.7133
49.5337
48.3706
44.1301
37.6724
30.414
23.473
18.8012
17.9144
20.318
24.5469
29.683
35.4528
40.0675
43.4108
42.1923
32.7304
12.3347
-20.0983
-67.6137
-134.329
-192.03
-213.206
-212.727
-217.38
-264.484
-291.479
-314.525
-374.279
73.1006
409.522
454.194
480.729
487.498
5.43692
1.23881
-4.60002
-8.65494
-16.6818
-25.9095
-27.3459
-16.5056
-4.95869
0.317186
-4.34585
-12.6081
-18.5892
-18.9049
-15.1639
-10.7071
-7.31362
-4.53614
-0.757609
4.28363
9.68484
14.6985
19.3984
24.8509
32.1676
40.9961
49.3301
52.8486
50.6227
45.6707
38.0724
29.6789
21.7443
16.4089
15.2538
17.664
22.2421
28.8987
35.4798
42.1621
47.0819
48.6996
42.3587
26.0163
-0.0527705
-38.1792
-101.129
-174.916
-216.845
-218.845
-221.692
-239.112
-244.08
-388.898
-423.116
201.726
460.044
477.166
499.325
504.267
-5.91525
0.995657
-4.88305
-7.68569
-20.4701
-38.6864
-48.7979
-28.7863
-3.49278
7.1532
0.501088
-11.0713
-18.7919
-17.7232
-12.157
-7.04639
-4.27649
-2.71437
-0.106435
4.51432
9.79765
14.5807
18.818
23.7413
30.8765
40.5429
49.894
53.8668
52.3574
46.9968
38.2417
29.0625
20.6183
15.0766
13.5981
15.4309
18.9961
23.7181
30.0777
36.6803
42.8088
46.2268
44.9042
33.4284
11.307
-22.1895
-75.3569
-147.739
-201.125
-217.99
-219.985
-179.201
-357.052
-580.458
-88.928
292.047
494.567
500.772
519.946
523.737
22.8235
5.45504
-7.29276
-5.37854
-24.1243
-55.1191
-65.7247
-31.0094
-0.347625
16.7613
6.89807
-9.71882
-18.9687
-16.1509
-9.03796
-4.08611
-2.335
-1.61576
0.913382
5.63389
11.0215
15.6168
19.3205
24.1463
31.8494
43.115
53.8406
56.7252
54.351
46.9986
37.3752
27.6614
18.7674
13.446
13.0905
16.5286
21.6297
27.602
35.1138
41.9284
46.9556
49.8355
47.2943
35.6219
13.2401
-26.9774
-87.6826
-160.567
-207.635
-219.466
-220.415
-134.086
-655.802
-561.02
-0.574125
287.177
482.167
511.071
530.32
533.908
73.1229
7.57398
-2.15359
6.80026
-17.9836
-75.0529
-123.538
-93.0184
5.92064
39.1997
20.0469
-1.92847
-14.6727
-12.3271
-3.28004
1.40596
0.325729
-1.2606
0.924598
6.722
12.9732
17.8936
22.0446
27.7536
35.7006
46.6937
56.0935
57.7686
53.9699
45.0228
35.6633
26.0512
17.0045
11.2415
11.2319
15.741
20.5415
27.7819
37.1951
45.4252
52.2087
56.4383
56.2338
48.2967
27.6819
-9.69276
-76.8405
-161.66
-215.548
-230.864
-220.854
-139.085
-724.69
-361.926
87.6583
262.691
443.894
503.708
527.408
532.208
82.7269
-12.7356
-56.8226
-11.8065
-10.7685
-31.3355
-89.651
-30.1078
35.4628
43.2752
51.8473
-1.19523
-25.9636
-14.4323
3.23269
10.6149
8.68327
5.6855
7.43941
12.1994
17.3486
20.0306
23.5242
29.7041
37.8375
46.485
53.3871
54.8465
51.2881
44.1947
35.1205
25.4476
16.7455
12.0544
12.8652
17.3005
22.1267
29.8575
39.5527
47.7398
54.4165
58.9198
56.7625
48.4433
30.1627
-3.86087
-67.332
-151.653
-212.001
-233.605
-176.238
-34.2532
-709.808
-370.797
103.626
250.162
407.676
499.932
526.853
532.114
114.527
18.8599
2.42267
4.78393
-34.4804
-100.748
-106.453
-85.7712
-49.4089
-19.0498
-2.39773
-21.1691
-25.6243
-7.11948
25.743
34.4044
19.1297
8.36087
5.80098
8.45861
12.8695
17.7609
22.4167
30.0316
40.4123
50.6571
55.7065
56.0143
52.0647
44.3152
34.9877
24.9945
16.2379
11.612
12.998
17.9479
23.3576
31.0953
40.7136
49.6793
56.2264
58.1798
54.6516
44.6859
27.4026
0.70688
-58.5529
-140.888
-207.292
-240.557
-198.503
-35.025
-697.592
-382.039
82.3717
248.6
397.454
500.439
527.101
531.857
63.5845
7.719
-6.38097
-1.3271
-13.9347
-44.0961
-60.1472
-57.2058
-73.4671
-67.3431
-41.2381
-31.5107
-12.9469
12.2283
27.7058
21.4827
13.7028
8.89395
7.37811
10.0819
14.0349
17.5617
21.6447
30.566
43.2164
53.9306
58.1225
57.3835
51.6812
44.0231
34.4809
23.8457
14.8076
10.4846
12.1466
17.3001
22.5725
29.5131
37.7236
45.516
51.5322
53.2867
48.8491
38.6855
22.5678
-4.66235
-56.0186
-132.725
-205.289
-240.721
-260.205
-221.069
-692.541
-266.086
-15.2374
248.174
398.777
506.19
526.657
529.95
3.5783
2.06054
-5.94146
-5.89803
-16.9108
-34.3119
-38.6133
-39.7106
-56.3365
-66.2165
-53.3827
-37.943
-14.1688
18.0032
29.7456
26.0322
15.064
7.03543
5.53516
8.79208
13.3399
17.1542
20.2398
27.6528
39.9365
52.7401
60.4586
57.8808
53.1239
45.667
34.9576
23.6399
13.3692
8.73552
11.679
17.2376
22.0563
26.6889
33.2461
40.2037
45.474
45.7036
40.4964
30.4094
14.1276
-13.0849
-59.642
-130.423
-199.692
-236.168
-247.255
-227.194
-544.635
-237.736
-122.569
272.465
396.133
506.01
521.884
523.931
-4.22275
-6.95182
-11.4865
-8.62768
-12.3377
-21.5709
-24.7167
-33.0149
-51.2765
-60.0482
-51.819
-37.435
-16.5734
6.6752
18.2509
17.3958
12.4544
7.87721
7.51589
10.6728
14.8028
18.7962
22.4377
28.2707
37.7296
48.442
54.3657
54.7719
51.9355
46.2235
35.6739
24.4712
16.9792
14.5706
15.484
19.787
24.9218
28.0377
31.2882
36.8923
41.1141
41.3693
35.2766
21.245
-1.76792
-37.9934
-93.2969
-164.759
-222.292
-230.617
-247.636
-200.024
-320.589
-314.367
-190.815
265.282
394.115
490.88
507.121
510.218
-15.6396
-8.4721
-10.8325
-6.68231
-6.09736
-8.84626
-13.5344
-26.776
-47.2625
-56.3856
-52.0267
-38.0574
-18.3132
-0.270496
10.845
11.6871
9.18836
7.24255
8.46188
11.9173
16.0597
19.3776
24.3598
29.9932
36.8834
45.2236
49.9781
51.8618
49.889
44.4215
34.4872
24.3199
17.387
13.9116
13.5283
16.4063
20.0174
24.0651
29.2991
35.4101
39.817
38.5363
29.5368
10.6737
-15.9474
-53.6921
-108.005
-168.052
-201.18
-215.96
-240.986
-266.909
-315.345
-360.538
-283.114
125.781
374.483
479.212
499.863
504.016
5.05511
-0.361468
-4.12433
-4.90184
-5.58131
-7.54793
-11.979
-22.5565
-37.4652
-47.9416
-49.219
-41.2706
-26.9463
-11.4136
-0.0552823
5.19154
6.89123
8.19579
10.6851
14.4734
18.8506
23.8219
27.7216
33.723
40.2266
46.5236
49.8613
49.9001
47.5673
41.8011
32.9002
23.8831
17.7524
15.4038
16.0996
19.7123
24.8184
30.1626
35.7779
39.6727
41.24
37.646
26.1689
3.92404
-26.2977
-70.2197
-129.195
-181.619
-207.158
-217.244
-234.922
-280.635
-262.799
-267.585
-221.653
60.1973
366.845
447.783
485.208
493.129
6.54198
-1.67947
-4.22648
-4.75386
-5.40642
-7.24377
-11.4694
-19.6477
-30.4429
-39.4492
-42.5851
-38.5663
-28.8911
-16.8137
-6.15102
0.735776
5.25877
8.8191
12.4138
16.3496
20.4898
24.8984
29.4888
34.7278
40.1361
44.889
47.5554
47.596
45.4481
40.5833
33.335
26.0213
20.6642
18.0786
18.1296
20.7643
24.9358
29.511
34.2841
37.1902
36.4288
30.057
15.2995
-9.4509
-43.524
-90.2363
-144.093
-184.642
-199.625
-204.064
-217.576
-241.671
-233.906
-207.2
-133.802
50.7531
336.085
417.379
461.002
472.452
8.86084
1.7744
-2.05
-3.75286
-4.9578
-6.8345
-10.7475
-17.6383
-26.729
-34.9737
-39.2249
-37.644
-30.8377
-20.9582
-10.6438
-2.16499
4.26314
9.32403
13.8653
18.1852
22.4776
26.8679
31.2131
35.7049
40.0372
43.5833
45.3969
45.3289
43.3531
39.1725
33.3257
27.45
23.094
20.9481
21.0411
23.1425
26.5691
29.958
32.5112
33.0155
29.9683
21.256
4.50479
-20.8674
-55.0153
-98.7556
-145.378
-179.462
-193.013
-200.467
-211.953
-220.513
-207.461
-173.02
-90.0309
85.7495
316.082
397.441
442.015
456.299
8.9056
2.63773
-0.818227
-2.87759
-4.40685
-6.46106
-10.1999
-16.3778
-24.5155
-32.2655
-37.0311
-36.8897
-31.6895
-22.9893
-13.228
-4.05915
3.57227
9.63211
14.7401
19.2834
23.5757
27.7849
31.9398
36.0172
39.724
42.5545
43.9343
43.6671
41.7319
38.0697
33.2001
28.3063
24.5349
22.4723
22.2039
23.4591
25.6415
27.8751
29.1648
28.1112
23.3931
13.1919
-4.2936
-29.3186
-61.4169
-99.5261
-138.336
-166.801
-181.19
-188.091
-196.774
-201.649
-181.052
-133.588
-39.5534
122.396
304.772
383.897
427.952
444.076
8.85531
3.45684
0.0383679
-2.23159
-4.00101
-6.22097
-9.92366
-15.7212
-23.3019
-30.7276
-35.7847
-36.49
-32.3561
-24.4934
-14.8477
-5.24588
3.05352
9.77115
15.2829
19.9953
24.2792
28.3603
32.3281
36.1074
39.4493
41.8373
42.9388
42.5435
40.6425
37.3316
33.1022
28.8572
25.4871
23.4859
22.9809
23.7495
25.2095
26.4898
26.6708
24.5418
18.8073
7.88599
-9.5637
-33.5818
-63.6873
-97.8759
-129.934
-154.246
-167.908
-173.709
-177.413
-171.618
-148.792
-95.5289
2.39562
152.561
298.212
374.959
418.229
435.431
7.25408
3.1728
0.557405
-1.66213
-3.66292
-6.00384
-9.72227
-15.3027
-22.5797
-29.8245
-35.0113
-36.1708
-32.6127
-25.2111
-15.8436
-5.92475
2.76732
9.87235
15.6338
20.4554
24.7415
28.7602
32.62
36.201
39.2601
41.4143
42.3367
41.8562
39.9833
36.8851
33.0373
29.1763
26.0337
24.0577
23.3798
23.8083
24.8028
25.517
24.9869
22.0816
15.6206
4.22475
-13.0359
-35.9329
-64.0366
-94.8412
-123.433
-145.533
-158.219
-163.276
-164.134
-156.025
-127.812
-69.9529
31.2437
168.831
294.228
369.254
412.038
429.849
6.19789
2.72361
0.726281
-1.44787
-3.52666
-5.92745
-9.6517
-15.1445
-22.2851
-29.4556
-34.7087
-36.0752
-32.7939
-25.5953
-16.1718
-6.29488
2.58018
9.86429
15.7595
20.643
24.9229
28.8842
32.698
36.1865
39.1232
41.1778
42.0292
41.5181
39.6697
36.6781
33.0035
29.3194
26.2793
24.3064
23.5476
23.8024
24.5508
24.9931
24.1761
21.003
14.3339
2.88568
-14.0469
-36.1353
-62.9989
-92.2454
-119.333
-140.551
-153.112
-158.034
-157.513
-147.753
-117.438
-57.5401
43.7836
175.872
292.337
366.577
409.155
427.239
5.60833
2.67844
1.50728
1.03178
1.29969
1.14169
-2.20494
-10.6249
-24.0467
-39.7589
-53.3685
-60.4846
-58.4494
-48.8728
-34.9813
-19.7142
-5.79856
4.88514
12.0533
16.7758
20.4165
24.0683
28.4144
33.6477
39.458
45.0181
48.9941
50.4503
49.226
45.8553
41.2345
36.3356
31.9207
28.6337
26.5803
25.3971
24.3609
22.6342
19.2947
13.5283
4.51281
-8.33819
-25.5215
-46.9214
-71.4372
-96.6593
-120.427
-142.336
-160.264
-171.179
-176.341
-172.203
-146.86
-84.5405
33.242
184.852
318.448
395.174
437.156
454.021
5.92598
3.09032
1.72515
1.30491
1.94422
2.16995
-1.01975
-9.53572
-23.1697
-39.0806
-52.7877
-59.9816
-58.0934
-48.7559
-35.3445
-20.5883
-7.01643
3.51205
10.6008
15.3277
19.0163
22.7796
27.3181
32.8505
39.1218
45.2273
49.6796
51.3068
49.9611
46.2777
41.3179
36.1668
31.6019
28.3734
26.5077
25.5859
24.7593
23.0235
19.3057
12.714
2.47177
-11.9093
-30.5791
-53.5001
-79.622
-105.566
-128.997
-150.323
-166.633
-174.867
-180.077
-178.161
-157.032
-96.2725
28.8679
197.532
343.332
420.948
461.98
477.783
4.40482
2.79585
1.62001
1.48106
2.49174
3.02299
-0.0275359
-8.52208
-22.1193
-37.9411
-51.5121
-58.6641
-57.0565
-48.1703
-35.3902
-21.312
-8.25795
2.04114
8.97458
13.6896
17.4566
21.3375
26.0496
31.8505
38.5357
45.1265
50.0216
51.7828
50.2775
46.1879
40.7416
35.1581
30.2476
26.5735
24.62
23.8302
23.0861
21.2186
17.1061
9.84294
-1.31236
-16.764
-35.9978
-58.7582
-84.2793
-109.25
-131.557
-151.402
-166.4
-174.096
-179.643
-181.019
-166.18
-107.172
28.2188
215.048
371.609
447.892
486.895
501.182
3.79338
2.61671
1.58073
1.50899
2.84937
3.59158
0.646837
-7.67009
-20.9397
-36.3334
-49.5624
-56.6484
-55.398
-47.211
-35.1779
-21.9047
-9.53919
0.420336
7.16787
11.914
15.8071
19.8216
24.6903
30.7124
37.7433
44.7981
50.111
52.1318
50.5456
46.1867
40.5423
34.9544
30.1506
26.8147
25.407
25.221
24.783
22.9577
18.5774
10.8574
-0.138956
-15.319
-34.2019
-56.4693
-82.0745
-107.598
-130.528
-149.595
-162.032
-168.329
-177.702
-185.391
-177.115
-118.542
31.486
235.033
402.547
474.932
510.841
523.226
1.72418
2.18071
1.41535
1.54678
3.06936
3.83817
1.02492
-6.82661
-19.3459
-33.9324
-46.6728
-53.7861
-53.1254
-45.7655
-34.6731
-22.3339
-10.8031
-1.4347
5.27679
10.1396
14.1976
18.3283
23.3223
29.5068
36.8234
44.284
49.9812
52.2666
50.6759
46.1642
40.3347
34.51
29.4499
25.8356
24.1538
23.8258
23.4154
21.5506
17.2544
9.85756
-0.912399
-15.2295
-33.092
-54.2829
-79.3689
-105.56
-129.303
-150.161
-165.436
-173.465
-184.177
-195.939
-190.497
-128.944
39.7581
256.287
432.831
499.314
531.594
541.952
2.67472
1.78487
1.36728
1.53876
2.82663
3.39369
0.742672
-6.35584
-17.6962
-30.9356
-42.9323
-49.8358
-49.8673
-43.6957
-33.7901
-22.5137
-11.8191
-2.96964
3.63862
8.59801
12.8229
17.1307
22.215
28.5609
36.0516
43.6562
49.4646
51.8327
50.3341
45.8559
39.9575
34.1279
29.1662
25.84
24.3416
24.0165
23.6016
21.7134
17.51
10.2389
-0.598108
-14.7368
-31.96
-52.7159
-77.4805
-103.589
-127.739
-148.85
-165.632
-171.217
-171.817
-190.991
-190.664
-123.471
51.3609
273.995
453.77
516.214
545.623
555.076
0.519413
0.981891
1.17542
1.47464
2.42904
2.68068
0.208536
-6.09539
-16.1402
-27.9701
-38.6998
-45.387
-46.0573
-41.089
-32.4573
-22.309
-12.458
-4.13442
2.3016
7.31175
11.7013
16.2477
21.3703
27.812
35.3999
43.0172
48.7952
51.1257
49.8023
45.3928
39.4789
33.5343
28.5153
25.116
23.6193
23.5186
23.3863
21.7809
17.7457
10.6166
-0.176079
-14.4014
-31.3989
-51.5489
-75.7741
-101.304
-124.526
-145.556
-163.478
-179.876
-200.569
-212.295
-199.301
-126.015
53.4205
285.599
468.154
525.943
552.496
561.917
2.30646
1.64374
1.44022
1.44592
1.86412
1.80444
-0.467382
-5.90522
-14.5865
-24.941
-34.6432
-41.029
-42.2909
-38.3916
-31.0055
-22.0017
-13.0446
-5.2866
0.947499
6.06703
10.6862
15.4055
20.706
27.0949
34.6631
42.2441
48.0379
50.45
49.0219
44.515
38.63
32.6958
27.6427
24.297
22.928
22.9509
22.8227
21.2096
17.3453
10.4045
-0.204615
-14.5697
-31.9066
-52.0499
-75.737
-101.177
-125.016
-142.349
-153.949
-161.105
-182.406
-209.65
-194.425
-120.294
51.1623
280.357
465.535
523.605
552.365
561.278
1.96142
1.66308
1.37113
1.1193
1.12054
0.778164
-1.33319
-5.99829
-13.3658
-22.1912
-30.6321
-36.3773
-37.7982
-35.0588
-29.027
-21.2047
-13.1439
-5.92057
0.142885
5.28991
10.051
14.8877
20.2578
26.6862
34.0976
41.4301
47.0214
49.4471
48.1023
43.8262
38.0993
32.2502
27.2264
23.8812
22.588
22.7636
22.8707
21.416
17.4346
10.1868
-0.752502
-15.5991
-33.1471
-53.4599
-76.5076
-100.502
-124.309
-144.348
-161.467
-177.568
-198.244
-213.993
-194.523
-121.554
40.6736
264.494
452.446
513.769
545.352
554.497
3.91321
2.39059
1.45858
0.754805
0.274548
-0.336909
-2.31448
-6.27459
-12.4561
-19.879
-27.1194
-32.2603
-33.9974
-32.0297
-27.0513
-20.2858
-13.065
-6.40824
-0.608395
4.58342
9.50213
14.4918
19.9626
26.3122
33.5035
40.5472
45.9176
48.2495
46.975
42.9139
37.4411
31.6918
26.6877
23.3602
22.1293
22.33
22.5143
21.1463
17.1945
9.71346
-2.0416
-17.4175
-34.9841
-54.8707
-77.5639
-101.973
-126.657
-147.616
-165.188
-181.701
-205.049
-218.582
-197.885
-125.901
28.6078
244.757
433.508
498.839
533.392
542.845
4.11562
2.33428
1.29234
0.290825
-0.572462
-1.40162
-3.20871
-6.46863
-11.482
-17.5769
-23.7249
-28.3443
-30.2618
-28.9668
-24.9121
-19.0877
-12.6648
-6.49381
-0.842925
4.42331
9.50738
14.5921
20.0052
26.1474
33.0014
39.6402
44.6661
46.898
45.959
42.3314
37.2564