/*--------------------------------*- C++ -*----------------------------------*\
| =========                 |                                                 |
| \\      /  F ield         | OpenFOAM: The Open Source CFD Toolbox           |
|  \\    /   O peration     | Version:  2.1.1                                 |
|   \\  /    A nd           | Web:      www.OpenFOAM.org                      |
|    \\/     M anipulation  |                                                 |
\*---------------------------------------------------------------------------*/
FoamFile
{
    version     2.0;
    format      ascii;
    class       surfaceScalarField;
    location    "0.00125";
    object      phi;
}
// * * * * * * * * * * * * * * * * * * * * * * * * * * * * * * * * * * * * * //

dimensions      [0 3 -1 0 0 0 0];

internalField   nonuniform List<scalar> 
105695
(
-2.55246e-08
-9.73701e-08
-2.74198e-08
1.50315e-07
-6.44956e-08
1.37397e-08
1.66015e-08
8.62982e-09
-1.16202e-07
4.06533e-08
3.30327e-08
-2.19792e-08
-1.45172e-07
3.53811e-08
5.79997e-08
-6.44116e-08
-1.67779e-07
3.20297e-08
7.09381e-08
-8.03608e-08
-1.80395e-07
2.72313e-08
8.3141e-08
-9.77562e-08
-1.97881e-07
3.42857e-08
1.08173e-07
-1.24972e-07
-2.28366e-07
4.81424e-08
1.43852e-07
-1.6151e-07
-2.79989e-07
6.65626e-08
1.7969e-07
-1.9463e-07
-3.43644e-07
7.43865e-08
1.93466e-07
-2.04197e-07
-3.98829e-07
6.16107e-08
1.64172e-07
-1.70598e-07
-4.25301e-07
2.944e-08
1.01053e-07
-1.04021e-07
-4.17802e-07
-7.57623e-09
2.41375e-08
-2.40606e-08
-3.84961e-07
-3.7057e-08
-3.48831e-08
3.90999e-08
-3.43413e-07
-4.93137e-08
-6.53683e-08
7.31333e-08
-3.10154e-07
-4.36226e-08
-6.30764e-08
7.34405e-08
-2.92324e-07
-2.95218e-08
-4.13141e-08
5.30061e-08
-2.87808e-07
-1.57291e-08
-1.5739e-08
2.69518e-08
-2.89812e-07
-7.11126e-09
3.88778e-09
5.22753e-09
-2.93921e-07
-3.07323e-09
1.71509e-08
-9.96892e-09
-2.97178e-07
-2.68219e-09
2.58299e-08
-1.98905e-08
-2.99597e-07
-2.54402e-09
3.26416e-08
-2.76793e-08
-3.0157e-07
-1.87033e-09
3.89974e-08
-3.51532e-08
-3.04057e-07
-2.18259e-10
4.61776e-08
-4.34732e-08
-3.07746e-07
2.22308e-09
5.39382e-08
-5.24717e-08
-3.13352e-07
5.61643e-09
6.15177e-08
-6.15279e-08
-3.21313e-07
9.7025e-09
6.80095e-08
-6.97516e-08
-3.31597e-07
1.37898e-08
7.2585e-08
-7.60902e-08
-3.4391e-07
1.76223e-08
7.50131e-08
-8.03226e-08
-3.57737e-07
2.06291e-08
7.53285e-08
-8.21307e-08
-3.72119e-07
2.21016e-08
7.37235e-08
-8.14428e-08
-3.85634e-07
2.15635e-08
7.06338e-08
-7.86822e-08
-3.96956e-07
1.91917e-08
6.70713e-08
-7.49411e-08
-4.05291e-07
1.58224e-08
6.39639e-08
-7.14518e-08
-4.10462e-07
1.2772e-08
6.23727e-08
-6.99735e-08
-4.13491e-07
1.1254e-08
6.38391e-08
-7.20646e-08
-4.15829e-07
1.20338e-08
6.82773e-08
-7.79732e-08
-4.18838e-07
1.5147e-08
7.60435e-08
-8.81811e-08
-4.24244e-07
2.07864e-08
8.6411e-08
-1.01792e-07
-4.33943e-07
2.93069e-08
9.83602e-08
-1.17968e-07
-4.49782e-07
4.09418e-08
1.09461e-07
-1.34564e-07
-4.73488e-07
5.64061e-08
1.16156e-07
-1.48856e-07
-5.07854e-07
7.76331e-08
1.14066e-07
-1.57333e-07
-5.55456e-07
1.04692e-07
9.78078e-08
-1.54897e-07
-6.168e-07
1.37709e-07
5.80366e-08
-1.34402e-07
-6.90161e-07
1.7078e-07
-6.06678e-09
-9.13523e-08
-7.74689e-07
1.99949e-07
-8.78647e-08
-2.75563e-08
-8.67653e-07
2.16841e-07
-1.78951e-07
5.50743e-08
-9.61432e-07
2.08251e-07
-2.69209e-07
1.54737e-07
-1.0306e-06
1.47851e-07
-3.62893e-07
2.84207e-07
-1.0482e-06
4.90594e-08
-4.72904e-07
4.41447e-07
-1.01006e-06
-5.24334e-08
-5.85067e-07
5.99362e-07
-9.21401e-07
-1.41106e-07
-6.97903e-07
7.5035e-07
-7.72908e-07
-2.30099e-07
-7.81238e-07
8.62845e-07
-5.773e-07
-2.96091e-07
-8.46333e-07
9.46816e-07
-3.83355e-07
-2.9794e-07
-8.44034e-07
9.4803e-07
-2.25291e-07
-2.59222e-07
-7.99604e-07
9.00762e-07
-1.20511e-07
-2.03696e-07
-7.17273e-07
8.16189e-07
-5.10948e-08
-1.66115e-07
-6.52735e-07
7.49433e-07
-1.4516e-07
-6.10671e-07
7.04736e-07
-1.44385e-07
-7.04153e-08
-6.23991e-09
1.23671e-07
-2.00484e-07
5.06559e-08
5.354e-08
-3.43572e-08
-2.42913e-07
8.00358e-08
5.39611e-08
-5.09153e-08
-2.70414e-07
6.99972e-08
8.12169e-08
-8.83312e-08
-2.91505e-07
6.34541e-08
8.16998e-08
-9.20336e-08
-3.01977e-07
5.22625e-08
9.13336e-08
-1.05893e-07
-3.16993e-07
6.63153e-08
1.11203e-07
-1.28216e-07
-3.46398e-07
9.43953e-08
1.47891e-07
-1.64739e-07
-3.99118e-07
1.3246e-07
1.83936e-07
-1.97114e-07
-4.65628e-07
1.49922e-07
1.98483e-07
-2.07509e-07
-5.23044e-07
1.23441e-07
1.64098e-07
-1.68513e-07
-5.48284e-07
5.78287e-08
9.14998e-08
-9.46477e-08
-5.38065e-07
-1.64119e-08
5.03078e-09
-6.41418e-09
-5.01848e-07
-7.52282e-08
-5.88506e-08
6.08041e-08
-4.58029e-07
-9.92516e-08
-9.03393e-08
9.64582e-08
-4.24287e-07
-8.68121e-08
-8.43266e-08
9.37745e-08
-4.07259e-07
-5.82566e-08
-5.81339e-08
6.98411e-08
-4.03954e-07
-3.0696e-08
-2.97364e-08
4.13978e-08
-4.06804e-07
-1.42397e-08
-8.70216e-09
1.86806e-08
-4.11177e-07
-6.4311e-09
3.28029e-09
4.45049e-09
-4.14146e-07
-5.26688e-09
1.10417e-08
-5.48758e-09
-4.16011e-07
-5.76924e-09
1.69278e-08
-1.18378e-08
-4.17292e-07
-5.10178e-09
2.32741e-08
-1.87615e-08
-4.19042e-07
-2.22012e-09
2.98249e-08
-2.60731e-08
-4.21957e-07
3.0053e-09
3.67446e-08
-3.46116e-08
-4.26654e-07
9.9325e-09
4.31059e-08
-4.27251e-08
-4.33604e-07
1.83531e-08
4.85222e-08
-5.02226e-08
-4.42799e-07
2.67218e-08
5.20825e-08
-5.58196e-08
-4.53912e-07
3.44538e-08
5.39431e-08
-5.96615e-08
-4.66569e-07
4.0296e-08
5.39492e-08
-6.09596e-08
-4.79826e-07
4.28361e-08
5.21088e-08
-5.95863e-08
-4.92213e-07
4.10311e-08
4.88611e-08
-5.59419e-08
-5.02043e-07
3.50475e-08
4.50934e-08
-5.1119e-08
-5.08277e-07
2.68237e-08
4.18027e-08
-4.65694e-08
-5.11717e-07
1.97983e-08
4.03479e-08
-4.3935e-08
-5.13419e-07
1.55294e-08
4.20064e-08
-4.45795e-08
-5.14564e-07
1.5914e-08
4.60049e-08
-4.87398e-08
-5.16428e-07
2.08738e-08
5.30774e-08
-5.69406e-08
-5.20293e-07
3.04383e-08
6.2178e-08
-6.79649e-08
-5.2748e-07
4.55586e-08
7.25881e-08
-8.16521e-08
-5.39251e-07
6.66396e-08
8.22279e-08
-9.61551e-08
-5.57111e-07
9.55934e-08
8.79389e-08
-1.09266e-07
-5.83305e-07
1.36513e-07
8.56091e-08
-1.18295e-07
-6.20212e-07
1.89797e-07
6.92985e-08
-1.17496e-07
-6.68321e-07
2.53336e-07
3.10373e-08
-9.85563e-08
-7.29644e-07
3.2053e-07
-2.83714e-08
-6.0056e-08
-8.014e-07
3.78075e-07
-1.01406e-07
-4.96339e-09
-8.80146e-07
4.16321e-07
-1.87501e-07
6.67666e-08
-9.69389e-07
4.1001e-07
-2.76837e-07
1.64322e-07
-1.04874e-06
3.02446e-07
-3.83818e-07
3.08575e-07
-1.08047e-06
9.56271e-08
-5.05991e-07
4.91148e-07
-1.05577e-06
-1.16265e-07
-6.42966e-07
6.82098e-07
-9.72297e-07
-2.89161e-07
-7.87334e-07
8.51919e-07
-8.08995e-07
-4.84626e-07
-8.91586e-07
9.82811e-07
-5.86161e-07
-6.3955e-07
-9.29488e-07
1.05011e-06
-3.80671e-07
-6.30554e-07
-9.0842e-07
1.03555e-06
-2.18278e-07
-5.41416e-07
-8.51389e-07
9.71189e-07
-1.14091e-07
-4.20654e-07
-7.56114e-07
8.68886e-07
-4.79752e-08
-3.40067e-07
-6.84235e-07
7.92071e-07
-2.96325e-07
-6.37967e-07
7.41158e-07
-1.9079e-07
-9.044e-09
1.07572e-08
1.18662e-07
-2.58272e-07
9.97877e-08
6.011e-08
-4.17599e-08
-3.02953e-07
1.24383e-07
6.76802e-08
-6.73468e-08
-3.29466e-07
1.07543e-07
8.50353e-08
-9.60678e-08
-3.4715e-07
9.54678e-08
8.11139e-08
-9.54443e-08
-3.5341e-07
7.7679e-08
8.72851e-08
-1.06441e-07
-3.64119e-07
9.8771e-08
1.06449e-07
-1.28195e-07
-3.91696e-07
1.4155e-07
1.51788e-07
-1.71367e-07
-4.48002e-07
2.02738e-07
1.97361e-07
-2.11331e-07
-5.23587e-07
2.32126e-07
2.22239e-07
-2.2886e-07
-5.89764e-07
1.9242e-07
1.82138e-07
-1.8494e-07
-6.16866e-07
8.96303e-08
9.30292e-08
-9.77291e-08
-6.02959e-07
-2.41537e-08
-1.10527e-08
4.888e-09
-5.58069e-07
-1.16329e-07
-8.88823e-08
8.50924e-08
-5.0506e-07
-1.53208e-07
-1.22994e-07
1.23941e-07
-4.66251e-07
-1.31497e-07
-1.10235e-07
1.16111e-07
-4.48638e-07
-8.5603e-08
-7.43249e-08
8.40583e-08
-4.46814e-07
-4.2954e-08
-3.83414e-08
4.87753e-08
-4.51129e-07
-1.89092e-08
-1.3624e-08
2.26087e-08
-4.56307e-07
-8.64591e-09
-1.08655e-11
7.40315e-09
-4.59197e-07
-8.34009e-09
8.42369e-09
-2.46035e-09
-4.60188e-07
-1.10104e-08
1.42612e-08
-8.02881e-09
-4.60404e-07
-1.1253e-08
2.08211e-08
-1.44536e-08
-4.61263e-07
-7.25863e-09
2.81669e-08
-2.22697e-08
-4.6345e-07
4.40998e-10
3.65946e-08
-3.18436e-08
-4.67472e-07
1.14225e-08
4.37798e-08
-4.12476e-08
-4.73933e-07
2.53038e-08
5.00099e-08
-5.04997e-08
-4.83025e-07
3.94504e-08
5.40858e-08
-5.77218e-08
-4.94377e-07
5.26426e-08
5.63055e-08
-6.31426e-08
-5.07506e-07
6.27907e-08
5.63892e-08
-6.57546e-08
-5.21266e-07
6.74449e-08
5.43727e-08
-6.52219e-08
-5.34295e-07
6.44799e-08
5.11229e-08
-6.15428e-08
-5.44995e-07
5.35768e-08
4.76215e-08
-5.54513e-08
-5.51825e-07
3.78199e-08
4.4732e-08
-4.88977e-08
-5.54856e-07
2.35408e-08
4.39508e-08
-4.46621e-08
-5.55737e-07
1.40033e-08
4.65675e-08
-4.41602e-08
-5.55787e-07
1.18621e-08
5.20828e-08
-4.79813e-08
-5.56456e-07
1.77436e-08
6.03056e-08
-5.65064e-08
-5.58748e-07
3.05822e-08
7.07332e-08
-6.85851e-08
-5.64145e-07
5.22642e-08
8.30632e-08
-8.43721e-08
-5.73707e-07
8.29398e-08
9.50599e-08
-1.01798e-07
-5.87984e-07
1.25108e-07
1.04203e-07
-1.19441e-07
-6.08824e-07
1.86144e-07
1.07532e-07
-1.36322e-07
-6.38868e-07
2.67185e-07
1.01578e-07
-1.48922e-07
-6.7364e-07
3.59203e-07
7.8066e-08
-1.49161e-07
-7.11184e-07
4.55763e-07
3.25136e-08
-1.30203e-07
-7.44094e-07
5.38184e-07
-3.43841e-08
-9.28149e-08
-7.68795e-07
5.87594e-07
-1.15934e-07
-3.06379e-08
-7.96655e-07
5.78457e-07
-1.9222e-07
5.16325e-08
-8.48595e-07
4.62726e-07
-3.00655e-07
1.92315e-07
-9.15746e-07
2.00807e-07
-4.39997e-07
4.01967e-07
-9.89473e-07
-9.28111e-08
-5.88499e-07
6.38772e-07
-9.98685e-07
-3.62435e-07
-7.72019e-07
8.54506e-07
-8.76668e-07
-6.86948e-07
-9.51431e-07
1.03174e-06
-6.34128e-07
-9.99678e-07
-1.01038e-06
1.12797e-06
-3.89511e-07
-1.0366e-06
-9.45204e-07
1.10663e-06
-2.09612e-07
-8.70117e-07
-8.77107e-07
1.02591e-06
-1.04966e-07
-6.58189e-07
-7.70437e-07
9.03325e-07
-4.27638e-08
-5.24038e-07
-6.92277e-07
8.14046e-07
-4.53176e-07
-6.43611e-07
7.57698e-07
-2.20974e-07
7.9289e-08
1.64206e-08
1.1622e-07
-2.95712e-07
1.52628e-07
7.42109e-08
-5.23131e-08
-3.47157e-07
1.76574e-07
8.64244e-08
-8.71691e-08
-3.77087e-07
1.4958e-07
9.58842e-08
-1.07992e-07
-3.93395e-07
1.31637e-07
8.81448e-08
-1.08006e-07
-3.95372e-07
1.08371e-07
8.59048e-08
-1.14619e-07
-4.00704e-07
1.38924e-07
1.03185e-07
-1.38005e-07
-4.27e-07
1.95822e-07
1.61023e-07
-1.88999e-07
-4.909e-07
2.81975e-07
2.27268e-07
-2.42606e-07
-5.83856e-07
3.23137e-07
2.69676e-07
-2.67731e-07
-6.66432e-07
2.67969e-07
2.25067e-07
-2.1804e-07
-6.97314e-07
1.22416e-07
1.07803e-07
-1.09707e-07
-6.78054e-07
-3.48579e-08
-2.6704e-08
1.81483e-08
-6.18935e-07
-1.58497e-07
-1.32505e-07
1.15555e-07
-5.50127e-07
-2.0762e-07
-1.73781e-07
1.59385e-07
-5.02136e-07
-1.73796e-07
-1.50536e-07
1.44844e-07
-4.83184e-07
-1.08296e-07
-9.74168e-08
1.01157e-07
-4.83396e-07
-5.06181e-08
-5.0002e-08
5.78782e-08
-4.90172e-07
-2.00147e-08
-1.99294e-08
2.78107e-08
-4.96255e-07
-9.28351e-09
-4.81503e-09
1.1536e-08
-4.9938e-07
-1.15366e-08
4.1531e-09
2.16814e-09
-4.99219e-07
-1.72062e-08
1.11881e-08
-5.15276e-09
-4.97872e-07
-1.97125e-08
2.03697e-08
-1.32573e-08
-4.9762e-07
-1.63113e-08
3.14065e-08
-2.26058e-08
-4.98755e-07
-7.11042e-09
4.22728e-08
-3.35864e-08
-5.01544e-07
8.09478e-09
5.11688e-08
-4.50524e-08
-5.07183e-07
2.93608e-08
5.88889e-08
-5.73068e-08
-5.15914e-07
5.17698e-08
6.40019e-08
-6.75902e-08
-5.27093e-07
7.24142e-08
6.69897e-08
-7.55827e-08
-5.40345e-07
8.8562e-08
6.79826e-08
-8.05019e-08
-5.544e-07
9.61408e-08
6.72727e-08
-8.19129e-08
-5.67449e-07
9.15604e-08
6.55176e-08
-7.95492e-08
-5.77847e-07
7.40016e-08
6.41148e-08
-7.41416e-08
-5.84608e-07
4.72977e-08
6.43436e-08
-6.70604e-08
-5.87237e-07
2.12594e-08
6.66356e-08
-6.17253e-08
-5.87416e-07
3.56631e-09
7.21297e-08
-6.15138e-08
-5.87346e-07
-1.80203e-09
8.00475e-08
-6.6453e-08
-5.8789e-07
4.41842e-09
9.04451e-08
-7.65763e-08
-5.8892e-07
1.8795e-08
1.03166e-07
-9.03492e-08
-5.91747e-07
4.53366e-08
1.17914e-07
-1.0816e-07
-5.97067e-07
8.34043e-08
1.33228e-07
-1.28372e-07
-6.0221e-07
1.32633e-07
1.4843e-07
-1.50812e-07
-6.06922e-07
2.05788e-07
1.62739e-07
-1.77672e-07
-6.10701e-07
3.01836e-07
1.76402e-07
-2.07274e-07
-6.00578e-07
4.01534e-07
1.79418e-07
-2.31871e-07
-5.64682e-07
5.10034e-07
1.52159e-07
-2.42325e-07
-4.92154e-07
6.08986e-07
9.21629e-08
-2.35493e-07
-3.78042e-07
6.62827e-07
6.2152e-09
-1.9556e-07
-2.75987e-07
6.74295e-07
-8.07785e-08
-1.17114e-07
-2.70059e-07
6.09654e-07
-1.86747e-07
3.38909e-08
-3.65674e-07
3.72737e-07
-3.14608e-07
2.38294e-07
-5.87362e-07
7.82779e-08
-4.42546e-07
4.93144e-07
-8.38469e-07
-2.32786e-07
-6.62015e-07
7.83473e-07
-8.90492e-07
-7.02046e-07
-9.62157e-07
1.02928e-06
-7.02177e-07
-1.26701e-06
-1.14093e-06
1.21994e-06
-4.05786e-07
-1.52563e-06
-1.03062e-06
1.22326e-06
-1.9278e-07
-1.26427e-06
-9.36102e-07
1.11725e-06
-8.86666e-08
-9.14044e-07
-8.04834e-07
9.56574e-07
-3.37144e-08
-7.12319e-07
-7.14082e-07
8.47411e-07
-6.09079e-07
-6.60128e-07
7.82316e-07
-2.49484e-07
1.87172e-07
5.4611e-08
8.69904e-08
-3.39067e-07
2.14519e-07
9.52273e-08
-6.75358e-08
-3.96581e-07
2.37753e-07
1.00029e-07
-1.03694e-07
-4.28316e-07
1.97673e-07
1.06447e-07
-1.22805e-07
-4.44226e-07
1.76181e-07
9.31369e-08
-1.2177e-07
-4.4237e-07
1.47001e-07
7.90942e-08
-1.1958e-07
-4.42586e-07
1.91661e-07
9.49701e-08
-1.47492e-07
-4.68784e-07
2.62651e-07
1.70511e-07
-2.11141e-07
-5.42818e-07
3.65028e-07
2.73475e-07
-2.82495e-07
-6.57145e-07
4.11392e-07
3.46824e-07
-3.20752e-07
-7.58287e-07
3.3639e-07
2.98716e-07
-2.65996e-07
-7.92105e-07
1.50095e-07
1.39017e-07
-1.32878e-07
-7.63161e-07
-4.70285e-08
-4.56338e-08
2.88609e-08
-6.8583e-07
-1.86859e-07
-1.94489e-07
1.4552e-07
-5.94307e-07
-2.44168e-07
-2.46661e-07
1.91685e-07
-5.33111e-07
-1.98617e-07
-2.03573e-07
1.67198e-07
-5.11725e-07
-1.17149e-07
-1.2129e-07
1.08758e-07
-5.13722e-07
-5.03361e-08
-5.42623e-08
5.59769e-08
-5.21857e-07
-1.79347e-08
-1.52267e-08
2.12818e-08
-5.28126e-07
-9.33541e-09
1.59186e-09
4.72916e-09
-5.28835e-07
-1.77625e-08
1.15907e-08
-4.65502e-09
-5.24441e-07
-3.14752e-08
2.04331e-08
-1.05582e-08
-5.18392e-07
-4.08065e-08
3.25007e-08
-1.74558e-08
-5.12786e-07
-4.21634e-08
4.69367e-08
-2.66904e-08
-5.08313e-07
-3.4e-08
6.15517e-08
-3.91354e-08
-5.06005e-07
-1.55708e-08
7.47221e-08
-5.33644e-08
-5.06736e-07
1.37216e-08
8.53398e-08
-6.89701e-08
-5.10453e-07
4.64411e-08
9.20256e-08
-8.29792e-08
-5.15932e-07
7.65474e-08
9.59258e-08
-9.45799e-08
-5.22311e-07
9.97039e-08
9.76691e-08
-1.02433e-07
-5.28396e-07
1.1034e-07
9.74335e-08
-1.05548e-07
-5.33065e-07
1.03109e-07
9.5946e-08
-1.02825e-07
-5.36436e-07
7.69645e-08
9.57894e-08
-9.53812e-08
-5.40551e-07
3.71309e-08
1.00147e-07
-8.58657e-08
-5.46061e-07
-3.91788e-09
1.08308e-07
-7.76206e-08
-5.53236e-07
-3.5485e-08
1.2182e-07
-7.55928e-08
-5.61009e-07
-5.05943e-08
1.395e-07
-8.29354e-08
-5.67847e-07
-5.11886e-08
1.61424e-07
-9.89782e-08
-5.72659e-07
-4.39997e-08
1.87442e-07
-1.19836e-07
-5.75711e-07
-2.17435e-08
2.16126e-07
-1.45994e-07
-5.77905e-07
1.72784e-08
2.45808e-07
-1.77488e-07
-5.75114e-07
6.75257e-08
2.75197e-07
-2.12881e-07
-5.67852e-07
1.51944e-07
3.05496e-07
-2.58913e-07
-5.60859e-07
2.69013e-07
3.43019e-07
-3.1719e-07
-5.40622e-07
3.79377e-07
3.78971e-07
-3.77051e-07
-4.95924e-07
4.87637e-07
4.08419e-07
-4.3072e-07
-4.13615e-07
5.96609e-07
3.93317e-07
-4.63248e-07
-2.67091e-07
6.8247e-07
2.97155e-07
-4.63322e-07
-3.96735e-08
6.95964e-07
1.57319e-07
-4.06406e-07
2.04472e-07
6.07597e-07
-8.73294e-09
-2.33356e-07
2.54178e-07
4.37613e-07
-1.39428e-07
2.48464e-08
1.34694e-07
1.74051e-07
-2.17748e-07
2.41459e-07
-1.60187e-07
-8.59931e-08
-3.6333e-07
5.11418e-07
-5.2973e-07
-4.76562e-07
-7.24387e-07
8.68446e-07
-6.37578e-07
-1.17913e-06
-1.18134e-06
1.20131e-06
-4.21386e-07
-1.94664e-06
-1.1584e-06
1.36321e-06
-1.56733e-07
-1.74243e-06
-1.03205e-06
1.24556e-06
-5.85788e-08
-1.1744e-06
-8.63188e-07
1.02539e-06
-1.84309e-08
-8.90286e-07
-7.5225e-07
8.90069e-07
-7.5133e-07
-6.8943e-07
8.1325e-07
-3.06961e-07
3.36949e-07
1.16331e-07
4.08529e-08
-3.94542e-07
2.62409e-07
1.2738e-07
-8.76884e-08
-4.62783e-07
2.92985e-07
1.43253e-07
-1.30245e-07
-5.01152e-07
2.38851e-07
1.43426e-07
-1.46235e-07
-5.16423e-07
2.22727e-07
1.09771e-07
-1.41045e-07
-5.03457e-07
1.95144e-07
7.60547e-08
-1.37164e-07
-4.89482e-07
2.61992e-07
9.36273e-08
-1.77932e-07
-5.05625e-07
3.49992e-07
1.9261e-07
-2.63808e-07
-5.77212e-07
4.56133e-07
3.36244e-07
-3.55762e-07
-7.03304e-07
4.85721e-07
4.50704e-07
-3.98941e-07
-8.19235e-07
3.77489e-07
4.05418e-07
-3.30585e-07
-8.48164e-07
1.54942e-07
1.86784e-07
-1.62702e-07
-8.04576e-07
-5.98e-08
-7.11733e-08
4.03563e-08
-7.1958e-07
-1.76576e-07
-2.77083e-07
1.81804e-07
-6.07673e-07
-2.22378e-07
-3.60839e-07
2.27141e-07
-5.3093e-07
-1.78567e-07
-2.85862e-07
1.8907e-07
-5.03827e-07
-9.91503e-08
-1.6187e-07
1.16768e-07
-5.02904e-07
-3.71726e-08
-7.15479e-08
5.74619e-08
-5.04971e-07
-1.0818e-08
-2.72186e-08
2.21691e-08
-5.00003e-07
-1.16685e-08
-9.19838e-09
6.56366e-09
-4.86634e-07
-3.32166e-08
1.17009e-09
9.14625e-10
-4.66634e-07
-5.84296e-08
1.05171e-08
-3.56239e-09
-4.43348e-07
-7.81199e-08
2.71401e-08
-1.3113e-08
-4.19221e-07
-8.92807e-08
4.90223e-08
-2.6032e-08
-3.9589e-07
-9.09836e-08
7.49252e-08
-4.12727e-08
-3.74106e-07
-7.70194e-08
9.75912e-08
-5.79261e-08
-3.53353e-07
-4.34724e-08
1.11637e-07
-7.51962e-08
-3.33482e-07
7.16144e-12
1.17628e-07
-9.10649e-08
-3.12248e-07
4.24266e-08
1.18027e-07
-1.0514e-07
-2.87268e-07
7.34049e-08
1.14908e-07
-1.13589e-07
-2.57814e-07
8.86332e-08
1.06183e-07
-1.1393e-07
-2.27918e-07
8.53942e-08
9.24177e-08
-1.04599e-07
-2.05579e-07
6.44139e-08
7.80918e-08
-8.788e-08
-1.98729e-07
2.93342e-08
6.99847e-08
-6.90378e-08
-2.11398e-07
-1.20738e-08
7.52466e-08
-5.44219e-08
-2.3717e-07
-5.10131e-08
9.27024e-08
-5.1402e-08
-2.65467e-07
-8.21951e-08
1.19393e-07
-5.94953e-08
-2.90582e-07
-1.02185e-07
1.5266e-07
-7.65482e-08
-3.14668e-07
-1.1635e-07
1.9549e-07
-9.90535e-08
-3.33783e-07
-1.21727e-07
2.46957e-07
-1.2786e-07
-3.45944e-07
-1.07317e-07
2.992e-07
-1.62443e-07
-3.47377e-07
-8.21776e-08
3.49556e-07
-1.98419e-07
-3.34738e-07
-1.21815e-08
3.97091e-07
-2.45605e-07
-3.06208e-07
1.06459e-07
4.46811e-07
-3.12787e-07
-2.52518e-07
2.11109e-07
4.93878e-07
-3.793e-07
-1.61574e-07
3.04097e-07
5.26113e-07
-4.33517e-07
-1.53094e-08
4.09067e-07
5.08636e-07
-4.67359e-07
2.13261e-07
5.14654e-07
3.9308e-07
-4.53835e-07
5.22062e-07
5.31765e-07
2.23976e-07
-3.68579e-07
7.75554e-07
5.12928e-07
3.0386e-08
-1.89209e-07
9.37384e-07
3.51888e-07
-7.27529e-08
-3.35223e-09
1.02182e-06
5.01882e-08
-1.11971e-07
1.51398e-07
9.80291e-07
-1.5752e-07
-2.02606e-07
3.15661e-07
7.36314e-07
-3.53627e-07
-3.91012e-07
5.12052e-07
1.45857e-07
-7.53608e-07
-6.92933e-07
8.57873e-07
-3.00059e-07
-1.74125e-06
-1.16558e-06
1.4061e-06
-8.6604e-08
-2.22176e-06
-1.14976e-06
1.41564e-06
-5.57918e-09
-1.41382e-06
-9.49331e-07
1.10772e-06
6.69083e-09
-1.03339e-06
-8.08583e-07
9.39416e-07
-8.59777e-07
-7.33258e-07
8.48396e-07
-3.72282e-07
4.87823e-07
3.10633e-07
-8.92254e-08
-4.62758e-07
2.89197e-07
1.69654e-07
-1.05966e-07
-5.39306e-07
3.38339e-07
1.88339e-07
-1.57145e-07
-5.72846e-07
2.47442e-07
1.94973e-07
-1.70024e-07
-5.70419e-07
2.46806e-07
1.34271e-07
-1.60778e-07
-5.24352e-07
2.30528e-07
6.78482e-08
-1.49299e-07
-4.71869e-07
3.28663e-07
7.30927e-08
-1.92248e-07
-4.50673e-07
4.35667e-07
1.90321e-07
-2.97191e-07
-4.80553e-07
5.19196e-07
3.82272e-07
-4.15456e-07
-5.58873e-07
4.80562e-07
5.50013e-07
-4.66534e-07
-6.14908e-07
3.08498e-07
5.09222e-07
-3.84196e-07
-5.89935e-07
6.25338e-08
2.53311e-07
-1.85876e-07
-5.39117e-07
-1.38154e-07
-3.1482e-08
5.90181e-08
-4.97169e-07
-1.78877e-07
-2.53126e-07
2.13479e-07
-4.2011e-07
-8.987e-08
-4.68507e-07
2.5894e-07
-3.48921e-07
-2.73915e-08
-4.25677e-07
2.03312e-07
-3.18233e-07
-1.1992e-08
-2.30649e-07
1.12804e-07
-3.08569e-07
-3.77331e-09
-8.81701e-08
4.51067e-08
-2.94984e-07
-6.07422e-09
-2.68028e-08
8.47372e-09
-2.72339e-07
-1.91189e-08
-8.14833e-09
-7.0461e-09
-2.44405e-07
-4.8118e-08
-1.35232e-09
-1.16801e-08
-2.10405e-07
-8.82323e-08
1.07845e-08
-1.49816e-08
-1.69224e-07
-1.31355e-07
3.53108e-08
-2.32565e-08
-1.25599e-07
-1.6823e-07
6.94245e-08
-3.41006e-08
-8.17822e-08
-1.87751e-07
1.01418e-07
-4.84678e-08
-4.3888e-08
-1.75563e-07
1.26455e-07
-6.58055e-08
-7.56863e-09
-1.38434e-07
1.47177e-07
-8.85344e-08
3.62717e-08
-8.74058e-08
1.56108e-07
-1.12535e-07
9.05174e-08
-3.09312e-08
1.5169e-07
-1.32578e-07
1.53323e-07
1.3469e-08
1.41251e-07
-1.4412e-07
2.21534e-07
3.99846e-08
1.26204e-07
-1.45766e-07
2.91524e-07
4.71951e-08
1.04636e-07
-1.36427e-07
3.55235e-07
3.88459e-08
7.91964e-08
-1.17339e-07
4.02098e-07
1.77354e-08
5.7804e-08
-9.30686e-08
4.2812e-07
-1.31797e-08
4.45567e-08
-6.94727e-08
4.32726e-07
-4.60748e-08
4.30764e-08
-5.26209e-08
4.16487e-07
-7.54551e-08
5.67502e-08
-4.7251e-08
3.89272e-07
-9.97449e-08
8.26926e-08
-5.79178e-08
3.63983e-07
-1.3509e-07
1.20243e-07
-7.62137e-08
3.34975e-07
-1.7175e-07
1.79215e-07
-1.00184e-07
3.1191e-07
-1.99256e-07
2.50403e-07
-1.35399e-07
2.93474e-07
-2.21447e-07
3.27128e-07
-1.69423e-07
2.9122e-07
-2.05155e-07
4.05773e-07
-2.10546e-07
3.46237e-07
-1.46022e-07
4.63772e-07
-2.66308e-07
4.7539e-07
-1.04836e-07
4.98888e-07
-3.12096e-07
6.27092e-07
-2.7518e-08
5.21708e-07
-3.41794e-07
7.26369e-07
1.5321e-07
5.21198e-07
-3.64617e-07
7.83991e-07
3.23023e-07
4.88358e-07
-3.54349e-07
8.94249e-07
3.36299e-07
3.88782e-07
-3.03573e-07
1.27286e-06
2.5996e-07
1.02491e-07
-2.28136e-07
1.67877e-06
6.18817e-08
-2.16773e-08
-9.42286e-08
1.85738e-06
-1.22058e-07
-5.7728e-08
5.13669e-08
1.86916e-06
-2.41228e-07
-9.53957e-08
1.67324e-07
1.76011e-06
-3.5202e-07
-1.62616e-07
2.70064e-07
1.32723e-06
-5.38225e-07
-2.78835e-07
4.96328e-07
4.17959e-07
-1.19867e-06
-7.05211e-07
1.07191e-06
6.55758e-08
-2.2078e-06
-1.2432e-06
1.58162e-06
8.76261e-08
-1.55622e-06
-1.08104e-06
1.20139e-06
4.95379e-08
-1.09145e-06
-8.95598e-07
9.91748e-07
-8.93381e-07
-8.02424e-07
8.85565e-07
-5.32814e-07
7.2887e-07
3.97757e-07
-1.0599e-07
-5.37001e-07
2.07845e-07
2.29175e-07
-1.43637e-07
-5.60411e-07
2.43015e-07
3.24808e-07
-2.06074e-07
-5.30327e-07
8.04799e-08
3.30275e-07
-1.93397e-07
-4.12129e-07
1.24671e-07
1.56345e-07
-1.52408e-07
-2.51607e-07
2.10182e-07
-1.5756e-08
-1.2442e-07
-7.2082e-08
3.94141e-07
-6.85749e-08
-1.76428e-07
9.24191e-08
4.89801e-07
8.74397e-08
-3.06075e-07
2.23001e-07
4.66405e-07
3.65715e-07
-4.43506e-07
3.28256e-07
2.99428e-07
5.88731e-07
-5.12853e-07
4.3877e-07
7.08495e-08
5.60081e-07
-4.32947e-07
5.29122e-07
-1.0386e-07
3.06373e-07
-2.30332e-07
5.47302e-07
-1.85347e-07
5.00172e-08
-2.10037e-08
4.81586e-07
-1.50529e-07
-1.366e-07
1.73967e-07
4.52226e-07
-2.12538e-09
-2.77175e-07
2.18791e-07
5.16304e-07
9.01948e-08
-3.65192e-07
1.83527e-07
5.84763e-07
9.43089e-08
-2.87099e-07
1.12339e-07
6.15774e-07
5.46551e-08
-1.4303e-07
5.3591e-08
6.29251e-07
2.11879e-08
-6.54866e-08
2.47477e-08
6.36854e-07
5.02496e-09
-5.34539e-08
2.17066e-08
6.37818e-07
-8.92394e-09
-7.03075e-08
3.01497e-08
6.3629e-07
-3.14716e-08
-9.09055e-08
3.56722e-08
6.33572e-07
-8.01976e-08
-7.70817e-08
2.86425e-08
6.30937e-07
-1.60955e-07
-1.1584e-08
6.94439e-09
6.43212e-07
-2.32411e-07
6.12768e-08
-2.88922e-08
6.72027e-07
-2.74166e-07
1.29215e-07
-5.94263e-08
7.1558e-07
-2.68806e-07
1.76156e-07
-8.93368e-08
7.6517e-07
-2.21841e-07
2.02341e-07
-1.17496e-07
8.32842e-07
-1.59408e-07
2.0509e-07
-1.44286e-07
9.2186e-07
-1.03371e-07
1.92361e-07
-1.64539e-07
1.02225e-06
-5.78164e-08
1.69863e-07
-1.72456e-07
1.12567e-06
-2.72902e-08
1.38297e-07
-1.67225e-07
1.22436e-06
-1.2918e-08
1.02511e-07
-1.49443e-07
1.31043e-06
-1.44573e-08
7.03589e-08
-1.24232e-07
1.37474e-06
-2.57343e-08
4.54829e-08
-9.72369e-08
1.41277e-06
-3.76517e-08
2.93692e-08
-7.58229e-08
1.42549e-06
-4.99682e-08
2.63818e-08
-6.45938e-08
1.42342e-06
-5.99825e-08
3.20575e-08
-6.97421e-08
1.4114e-06
-8.45606e-08
4.46889e-08
-8.32041e-08
1.39295e-06
-1.19622e-07
7.10001e-08
-1.04676e-07
1.38111e-06
-1.68349e-07
1.14786e-07
-1.33857e-07
1.3674e-06
-2.23799e-07
1.8444e-07
-1.68372e-07
1.37549e-06
-2.80055e-07
2.86188e-07
-2.19379e-07
1.43414e-06
-3.34549e-07
4.09342e-07
-2.79469e-07
1.54041e-06
-4.00688e-07
5.14446e-07
-3.24861e-07
1.65902e-06
-3.52927e-07
5.8307e-07
-3.76271e-07
1.74517e-06
-8.99565e-08
5.8624e-07
-4.29227e-07
1.78742e-06
1.86686e-07
5.56705e-07
-4.62614e-07
1.88794e-06
1.79845e-07
5.20309e-07
-4.6438e-07
2.26333e-06
-7.03102e-08
3.47839e-07
-3.92953e-07
2.73697e-06
-3.21615e-07
1.14577e-07
-2.04719e-07
2.79266e-06
-1.81691e-07
-7.59189e-09
1.15354e-08
2.73412e-06
-2.02223e-07
-8.3819e-08
1.03347e-07
2.6108e-06
-2.71752e-07
-1.38849e-07
1.81904e-07
2.2944e-06
-3.76495e-07
-1.98639e-07
3.5331e-07
1.29233e-06
-7.38645e-07
-4.10217e-07
9.52258e-07
4.04729e-07
-1.71441e-06
-1.25389e-06
1.64811e-06
2.48251e-07
-1.44963e-06
-1.24872e-06
1.29861e-06
1.21753e-07
-9.84144e-07
-1.02265e-06
1.04185e-06
-7.82357e-07
-9.0931e-07
9.20039e-07
-4.6916e-07
4.98005e-07
1.6709e-06
-9.70875e-07
-4.53474e-07
1.73081e-07
3.2459e-07
-3.05511e-07
-3.58534e-07
1.75984e-07
1.47762e-07
-1.75671e-07
-2.28313e-07
3.55336e-08
5.8739e-08
-1.44014e-07
-1.98276e-08
1.62492e-08
3.18735e-08
-1.31937e-07
2.68181e-07
-6.09837e-09
7.53261e-08
-1.47055e-07
6.79323e-07
1.94982e-08
1.50411e-07
-1.86911e-07
1.15861e-06
7.00147e-08
1.86211e-07
-2.45707e-07
1.61627e-06
1.42753e-07
1.57974e-07
-2.91989e-07
1.91883e-06
1.78935e-07
9.56679e-08
-2.77734e-07
2.03482e-06
1.21612e-07
1.52939e-08
-1.82042e-07
2.0024e-06
4.27864e-08
-5.7327e-08
-5.69023e-08
1.86639e-06
6.639e-10
-1.04124e-07
5.4121e-08
1.74693e-06
-3.08998e-08
-1.13284e-07
1.13119e-07
1.77268e-06
-6.48302e-08
-7.7485e-08
1.14435e-07
1.90563e-06
-7.65835e-08
-5.65921e-08
9.04262e-08
2.04065e-06
-5.42475e-08
-3.95434e-08
5.30756e-08
2.11715e-06
-1.69921e-08
-2.61671e-08
2.1312e-08
2.14438e-06
1.22541e-08
-2.16617e-08
3.36612e-09
2.13764e-06
3.38633e-08
-1.80033e-08
-4.09256e-09
2.0952e-06
5.19599e-08
-1.26266e-08
-5.81837e-09
2.01575e-06
6.25098e-08
-8.36426e-09
-6.16581e-09
1.90401e-06
4.95941e-08
-6.54636e-09
-1.15104e-08
1.76998e-06
3.18416e-09
-3.54017e-09
-2.65666e-08
1.66092e-06
-7.91442e-08
3.83404e-09
-4.8036e-08
1.62326e-06
-1.84554e-07
1.31794e-08
-6.51361e-08
1.64879e-06
-2.35517e-07
1.91664e-08
-7.798e-08
1.712e-06
-2.1315e-07
1.79823e-08
-8.98834e-08
1.79022e-06
-1.56507e-07
2.18567e-08
-1.02978e-07
1.8793e-06
-1.00349e-07
2.79638e-08
-1.20073e-07
1.9843e-06
-6.2217e-08
2.6038e-08
-1.26638e-07
2.09684e-06
-3.66616e-08
1.94018e-08
-1.22566e-07
2.20688e-06
-2.39763e-08
1.24032e-08
-1.11385e-07
2.30327e-06
-2.17734e-08
8.29519e-09
-9.73658e-08
2.37668e-06
-2.53552e-08
7.0338e-09
-8.08238e-08
2.42484e-06
-2.68374e-08
4.93968e-09
-6.39145e-08
2.44978e-06
-2.39025e-08
3.05311e-09
-5.40642e-08
2.45902e-06
-2.0098e-08
1.62162e-09
-5.07395e-08
2.45534e-06
-2.20281e-08
1.15468e-09
-6.0011e-08
2.43923e-06
-2.46425e-08
2.06308e-09
-8.09328e-08
2.41156e-06
-3.29675e-08
3.8574e-09
-1.11566e-07
2.39137e-06
-6.20916e-08
5.30899e-09
-1.46831e-07
2.3963e-06
-1.13224e-07
8.43946e-09
-1.80202e-07
2.43604e-06
-1.68215e-07
1.5086e-08
-2.21157e-07
2.50093e-06
-2.15791e-07
2.83594e-08
-2.78148e-07
2.61275e-06
-1.85677e-07
4.86338e-08
-3.27701e-07
2.83774e-06
-2.9182e-08
8.42931e-08
-3.70062e-07
3.14194e-06
1.58881e-07
1.06417e-07
-3.82807e-07
3.3572e-06
1.50486e-07
7.39876e-08
-2.5989e-07
3.28058e-06
4.71051e-08
1.90717e-08
-5.98647e-08
3.11133e-06
-1.7257e-07
-3.25416e-09
2.34613e-08
2.94559e-06
-4.69908e-08
-3.04765e-08
6.15091e-08
2.82999e-06
-4.87327e-08
-1.27329e-07
8.94387e-08
2.69912e-06
-7.88614e-08
-2.01453e-07
1.39438e-07
2.45656e-06
-1.25093e-07
-2.87116e-07
2.78269e-07
1.69989e-06
-2.51836e-07
-5.8978e-07
8.59644e-07
7.29273e-07
-4.77523e-07
-1.9411e-06
1.67483e-06
4.0827e-07
-3.76414e-07
-2.16003e-06
1.40782e-06
1.86626e-07
-2.25951e-07
-1.64563e-06
1.10908e-06
-1.62794e-07
-1.40044e-06
9.675e-07
-2.2268e-07
2.20274e-07
1.67404e-06
-1.17363e-06
-2.1367e-07
1.92852e-07
2.55667e-07
-2.84449e-07
-7.77297e-08
1.23014e-07
9.03876e-08
-1.73357e-07
5.5626e-08
8.42818e-09
5.74473e-08
-1.63698e-07
2.05612e-07
-2.63264e-08
1.57754e-09
-1.08988e-07
3.75535e-07
-6.97071e-08
-1.091e-08
-9.54042e-08
6.17407e-07
-8.60988e-08
1.21186e-08
-1.48394e-07
8.9773e-07
-4.12771e-08
6.75394e-08
-2.3657e-07
1.13133e-06
1.09053e-07
8.21681e-08
-2.8207e-07
1.288e-06
2.19219e-07
6.03045e-08
-2.57255e-07
1.4176e-06
1.41404e-07
1.8466e-08
-1.67854e-07
1.49971e-06
3.84351e-08
-3.01664e-08
-4.75969e-08
1.51891e-06
-1.06704e-08
-6.21125e-08
5.42433e-08
1.52876e-06
-7.30035e-08
-7.09594e-08
1.0322e-07
1.58909e-06
-1.71667e-07
-5.66866e-08
1.03187e-07
1.69256e-06
-2.22974e-07
-3.6969e-08
7.98981e-08
1.77741e-06
-1.68279e-07
-2.81485e-08
5.73252e-08
1.81241e-06
-6.83471e-08
-2.01329e-08
3.64866e-08
1.81359e-06
1.89051e-09
-1.364e-08
2.28257e-08
1.79997e-06
3.99101e-08
-1.05084e-08
1.80762e-08
1.78477e-06
5.74994e-08
-9.76111e-09
1.94249e-08
1.77078e-06
6.37703e-08
-1.01516e-08
2.28845e-08
1.748e-06
5.91995e-08
-1.13887e-08
2.45639e-08
1.69416e-06
4.527e-08
-1.03767e-08
2.2133e-08
1.59172e-06
1.92872e-08
-4.1679e-09
8.16736e-09
1.45531e-06
-3.61745e-08
5.99044e-09
-1.79582e-08
1.36492e-06
-1.15729e-07
1.81076e-08
-4.75012e-08
1.34963e-06
-1.51949e-07
2.4513e-08
-7.04279e-08
1.39523e-06
-1.39453e-07
1.99985e-08
-8.26498e-08
1.4824e-06
-1.05713e-07
1.20932e-08
-9.39022e-08
1.57393e-06
-6.40164e-08
7.96543e-09
-9.76948e-08
1.66312e-06
-3.70497e-08
3.81884e-09
-9.26221e-08
1.74225e-06
-2.32045e-08
4.19471e-10
-8.03163e-08
1.80106e-06
-1.74523e-08
-1.53254e-10
-6.29762e-08
1.83568e-06
-1.77164e-08
6.55725e-10
-4.29178e-08
1.85455e-06
-2.20859e-08
4.80487e-10
-2.40995e-08
1.86734e-06
-2.62775e-08
-4.83668e-10
-9.93048e-09
1.87433e-06
-2.56402e-08
-1.43791e-09
-1.4195e-11
1.87789e-06
-2.24748e-08
-1.38047e-09
-1.72651e-09
1.87994e-06
-1.48482e-08
-7.32111e-10
-1.11161e-08
1.87727e-06
-9.95044e-09
-6.09466e-12
-2.03403e-08
1.87089e-06
-1.20509e-08
1.96953e-10
-4.38567e-08
1.86206e-06
-2.91489e-08
1.46224e-09
-7.67085e-08
1.86713e-06
-6.22294e-08
8.15535e-09
-1.1921e-07
1.90183e-06
-9.29419e-08
1.88589e-08
-1.76406e-07
2.02397e-06
-9.93576e-08
2.82996e-08
-2.3676e-07
2.28972e-06
-5.17918e-08
2.53477e-08
-2.68496e-07
2.58355e-06
4.41506e-08
1.10425e-08
-1.90141e-07
2.68877e-06