/*--------------------------------*- C++ -*----------------------------------*\
| =========                 |                                                 |
| \\      /  F ield         | OpenFOAM: The Open Source CFD Toolbox           |
|  \\    /   O peration     | Version:  2.1.1                                 |
|   \\  /    A nd           | Web:      www.OpenFOAM.org                      |
|    \\/     M anipulation  |                                                 |
\*---------------------------------------------------------------------------*/
FoamFile
{
    version     2.0;
    format      ascii;
    class       volSymmTensorField;
    location    "0.00125";
    object      R;
}
// * * * * * * * * * * * * * * * * * * * * * * * * * * * * * * * * * * * * * //

dimensions      [0 2 -2 0 0 0 0];

internalField   nonuniform List<symmTensor> 
36520
(
(0.116326 0.00154372 0.0344097 0.0360645 0.00652479 0.0538987)
(0.233498 -0.0279414 0.0545616 0.0887495 -0.00711396 0.0802606)
(0.418413 -0.0391248 0.113874 0.163882 -0.0167717 0.147905)
(0.498909 -0.0485843 0.148575 0.204149 -0.0260587 0.185666)
(0.577145 -0.0493364 0.176109 0.234212 -0.0292595 0.216421)
(0.632626 -0.0496433 0.196548 0.25557 -0.0316078 0.239325)
(0.684347 -0.0467847 0.214866 0.272408 -0.0317219 0.257856)
(0.724154 -0.0402635 0.231315 0.284192 -0.0294784 0.273042)
(0.750276 -0.030608 0.245096 0.290725 -0.0239154 0.284192)
(0.755294 -0.0205095 0.253707 0.291317 -0.0163705 0.290192)
(0.73703 -0.0123285 0.254371 0.284982 -0.00778525 0.28896)
(0.701303 -0.00928142 0.246938 0.272886 -0.0013708 0.280428)
(0.654245 -0.0105322 0.232148 0.256058 0.00199254 0.264725)
(0.612473 -0.015283 0.215968 0.240005 0.00152356 0.247782)
(0.582843 -0.0200736 0.202488 0.227403 -0.000891009 0.232967)
(0.561148 -0.0238203 0.191804 0.217191 -0.00404746 0.220388)
(0.540549 -0.025503 0.182619 0.207661 -0.00651553 0.209077)
(0.517476 -0.0259095 0.173679 0.197667 -0.00808951 0.197893)
(0.491176 -0.0255967 0.164357 0.186929 -0.0089326 0.186485)
(0.462425 -0.0249922 0.154386 0.175393 -0.00933622 0.174431)
(0.432343 -0.0242455 0.143927 0.163424 -0.00955233 0.162017)
(0.40326 -0.0232836 0.133668 0.15177 -0.00961965 0.149846)
(0.374447 -0.0220142 0.123489 0.140237 -0.00952369 0.137806)
(0.346409 -0.020397 0.113633 0.128999 -0.0092172 0.126144)
(0.318683 -0.0184326 0.103987 0.11795 -0.00868512 0.114763)
(0.291966 -0.0162258 0.0948145 0.10737 -0.007931 0.103957)
(0.265922 -0.0139299 0.0860495 0.0971963 -0.00701393 0.0936752)
(0.240795 -0.01174 0.0777751 0.0875239 -0.00601878 0.084051)
(0.216456 -0.00981318 0.0699073 0.0783028 -0.00504858 0.0750106)
(0.193207 -0.00820204 0.062505 0.0696066 -0.00415915 0.06662)
(0.17114 -0.0069264 0.0555453 0.0614547 -0.00339848 0.0588523)
(0.150621 -0.00598998 0.0490859 0.0539635 -0.00280726 0.0517554)
(0.131872 -0.00533781 0.0431355 0.0471906 -0.00238752 0.0453102)
(0.115227 -0.00489732 0.0377573 0.0412299 -0.00212121 0.0395497)
(0.100864 -0.00458545 0.0329981 0.0361269 -0.0019777 0.0344864)
(0.088839 -0.00430891 0.0289028 0.0318853 -0.00190731 0.0301491)
(0.0789991 -0.00399689 0.0254562 0.0284458 -0.0018594 0.0265098)
(0.0711287 -0.00360889 0.0226201 0.0257198 -0.00181021 0.0235265)
(0.064905 -0.00309334 0.0203089 0.0235816 -0.00172663 0.021098)
(0.0600704 -0.00243002 0.0184511 0.021941 -0.00159201 0.019144)
(0.0565494 -0.00161016 0.017026 0.0207833 -0.0013927 0.0176354)
(0.054569 -0.000620679 0.0160902 0.0202247 -0.0011235 0.016627)
(0.0548659 0.00060408 0.015824 0.0205879 -0.000773451 0.0163276)
(0.0582363 0.00222515 0.0164412 0.0222335 -0.000290176 0.016984)
(0.0642175 0.00437171 0.0178881 0.0250495 0.000430464 0.0185109)
(0.0701108 0.0067707 0.0195648 0.0279015 0.00142646 0.0202494)
(0.0707385 0.00859685 0.0201403 0.0285471 0.00252409 0.0208615)
(0.060316 0.00859965 0.0178384 0.024486 0.00315493 0.0185602)
(0.0450712 0.00726063 0.014059 0.0184327 0.00320475 0.0149026)
(0.030129 0.00531699 0.00986312 0.0125445 0.00285597 0.0110826)
(0.0185109 0.00331832 0.00598461 0.00788279 0.0022225 0.00768886)
(0.0108001 0.00169137 0.00293047 0.00464714 0.00147579 0.00499944)
(0.0055318 0.00068898 0.00112664 0.00247578 0.000839964 0.00281051)
(0.002064 0.000195757 0.000294986 0.00109606 0.00038793 0.00118185)
(0.000552536 5.40343e-05 7.50949e-05 0.000479164 0.000199721 0.000417915)
(0.000173441 2.05298e-05 3.98968e-05 0.000287899 0.000141638 0.000206605)
(0.000125284 -1.09725e-05 6.78691e-06 0.000233197 0.000118513 0.000164762)
(0.000120216 -1.2068e-06 1.28697e-05 0.000194184 9.62393e-05 0.000143405)
(0.000128983 -2.19866e-05 -1.6158e-05 0.000183436 8.87225e-05 0.00014095)
(0.000161961 -3.32166e-05 2.01882e-05 0.000219799 9.12593e-05 0.00017226)
(0.0778242 -0.00547673 0.0141763 0.0230791 -0.000906854 0.0232837)
(0.101782 -0.0121876 0.0230766 0.0379035 -0.00320433 0.0331891)
(0.123973 -0.0102328 0.0330944 0.0482951 -0.00447987 0.0439299)
(0.118887 -0.00891444 0.0342847 0.0478147 -0.00440742 0.0442442)
(0.11928 -0.00741626 0.035069 0.0479058 -0.00397715 0.0447877)
(0.117239 -0.0065306 0.035067 0.0469718 -0.00367985 0.0444722)
(0.11843 -0.00560559 0.0358502 0.0469813 -0.00338144 0.0448404)
(0.114319 -0.00420736 0.0353334 0.0449512 -0.00282418 0.0435706)
(0.104638 -0.00263838 0.0332143 0.0410164 -0.00192549 0.0403898)
(0.086963 -0.00141611 0.0284639 0.0344138 -0.000961537 0.0344487)
(0.0668245 -0.000906638 0.0223711 0.0269573 -0.000242992 0.0273235)
(0.0510895 -0.00105281 0.0171885 0.0210803 -1.32731e-05 0.0214448)
(0.0451456 -0.00144276 0.0150529 0.0188007 -4.6827e-05 0.0190498)
(0.0437157 -0.00185194 0.0143675 0.0180965 -0.000200968 0.0181995)
(0.0427192 -0.00208935 0.0138121 0.0174398 -0.000383678 0.0173697)
(0.0416151 -0.00213855 0.0132677 0.0167132 -0.000529955 0.0165198)
(0.0400405 -0.00202005 0.0126612 0.0158682 -0.00059626 0.0156167)
(0.0381616 -0.00185074 0.0120208 0.0149862 -0.000610171 0.0147072)
(0.0360541 -0.00167785 0.0113306 0.0140829 -0.000592717 0.0137844)
(0.0342106 -0.00154564 0.0107234 0.0133064 -0.000571983 0.0129795)
(0.0325689 -0.00143844 0.0101682 0.012614 -0.000556609 0.0122542)
(0.0310992 -0.00133353 0.0096626 0.011979 -0.00054004 0.0115801)
(0.0296721 -0.00122648 0.00917656 0.0113624 -0.000524059 0.0109236)
(0.0283019 -0.00111076 0.0087191 0.0107691 -0.00050184 0.0102966)
(0.0268958 -0.000988642 0.00826181 0.0101744 -0.000473185 0.00967399)
(0.0253208 -0.000856456 0.00776124 0.00952952 -0.000433709 0.00901064)
(0.0234609 -0.000722302 0.0071836 0.00879631 -0.000386779 0.00827329)
(0.0212744 -0.000593344 0.00651221 0.00795921 -0.000333156 0.00745363)
(0.0188735 -0.000480935 0.00577555 0.00705796 -0.000280721 0.00658886)
(0.0163703 -0.000385387 0.00500255 0.00612955 -0.000232259 0.00571317)
(0.0138972 -0.000307325 0.00422693 0.00522291 -0.00019082 0.00486445)
(0.0116524 -0.000245824 0.00350363 0.00440974 -0.000159771 0.00410094)
(0.00984271 -0.000199156 0.0028943 0.00376245 -0.000140171 0.00348297)
(0.00860935 -0.00016648 0.00244332 0.00332897 -0.000132366 0.00305076)
(0.00799161 -0.000145289 0.00216654 0.00312276 -0.000134872 0.00281557)
(0.00790447 -0.000130708 0.00203962 0.00311269 -0.000144778 0.00274959)
(0.00819557 -0.000114345 0.00201123 0.00324476 -0.000159044 0.00279921)
(0.00872983 -8.50674e-05 0.00203328 0.00347196 -0.000174152 0.00292002)
(0.0094405 -3.18944e-05 0.00207641 0.00377307 -0.000187539 0.00308878)
(0.0103042 5.59632e-05 0.00211787 0.00414512 -0.00019769 0.00329764)
(0.0113793 0.000190197 0.00214437 0.00461809 -0.000204238 0.00356485)
(0.0128702 0.000385509 0.00215927 0.00528194 -0.000211069 0.00395011)
(0.0151556 0.000672944 0.00217485 0.00630189 -0.00022111 0.00456693)
(0.01866 0.00110122 0.00217324 0.00786483 -0.000226314 0.00556017)
(0.0235574 0.00166635 0.00204723 0.0100355 -0.000214032 0.00702661)
(0.029422 0.00221256 0.00150065 0.0125509 -0.000182363 0.00892942)
(0.0342463 0.0024296 0.000152386 0.0143727 -0.000184183 0.0107553)
(0.0365032 0.002178 -0.00189315 0.0146687 -0.000315233 0.0119735)
(0.0376565 0.00169824 -0.00404362 0.0141131 -0.000531977 0.0129624)
(0.0384526 0.00112922 -0.00572308 0.0133282 -0.000667442 0.0138878)
(0.037991 0.000627116 -0.00608525 0.0123563 -0.000603718 0.0142647)
(0.0336768 0.000294921 -0.00472428 0.010477 -0.00038851 0.0128039)
(0.0223782 0.000174236 -0.0024104 0.00691693 -0.000112156 0.00869186)
(0.0104606 2.96369e-05 -0.000917944 0.00343063 2.72638e-05 0.00428414)
(0.00304228 -6.46125e-05 -0.000313765 0.00106155 2.03904e-05 0.00129401)
(0.000399878 -1.94006e-05 -4.99638e-05 0.00014657 9.54786e-06 0.000180345)
(3.36446e-05 -4.17098e-06 -4.80286e-06 2.26866e-05 3.65771e-06 2.94328e-05)
(1.97685e-05 -2.57064e-06 -7.61418e-07 1.93661e-05 2.69907e-06 2.41825e-05)
(2.79718e-05 -3.30572e-06 -2.48131e-06 2.6053e-05 2.58105e-06 3.09692e-05)
(8.99461e-05 -3.14162e-05 -1.70585e-06 9.38445e-05 4.5983e-06 9.77238e-05)
(0.0392431 -0.0025458 0.00374314 0.0104951 -0.000431026 0.0103571)
(0.0309098 -0.00368203 0.00649479 0.0114633 -0.00103794 0.0100892)
(0.0310365 -0.00238867 0.00799778 0.0120445 -0.00115246 0.0110867)
(0.0251094 -0.00163142 0.00699478 0.0100936 -0.000856561 0.00941965)
(0.0226648 -0.00122694 0.00642917 0.00913988 -0.000704083 0.00858504)
(0.02028 -0.000998724 0.00582645 0.00816935 -0.000597277 0.00776905)
(0.0195805 -0.000837648 0.00567054 0.00783067 -0.000536695 0.00750983)
(0.0176127 -0.000591831 0.0051746 0.00701829 -0.000421585 0.00684244)
(0.0146336 -0.000352189 0.00432867 0.00588033 -0.000262325 0.00580076)
(0.0104967 -0.000212164 0.00301985 0.00435861 -0.000106176 0.00432736)
(0.0069515 -0.000214125 0.00172367 0.00306799 -5.51328e-06 0.00301619)
(0.00518452 -0.000314805 0.000877613 0.00245101 4.00794e-05 0.00235712)
(0.00534972 -0.000499911 0.000525969 0.00259721 7.14155e-05 0.00246872)
(0.00507803 -0.000492108 0.000573208 0.00240145 4.17025e-05 0.00226417)
(0.00402697 -0.000271272 0.000816958 0.00179822 -3.04466e-05 0.00168103)
(0.00355377 -0.000172544 0.000884599 0.00151638 -6.35439e-05 0.00141757)
(0.00335831 -0.000139748 0.000853024 0.00140275 -7.26006e-05 0.00131994)
(0.00322617 -0.000118557 0.000812653 0.00133458 -7.45895e-05 0.00126387)
(0.00312357 -0.000103315 0.00077146 0.00128871 -7.47872e-05 0.00122735)
(0.00309914 -9.665e-05 0.000747277 0.00127777 -7.67568e-05 0.00122266)
(0.0031093 -9.44989e-05 0.000727424 0.00128132 -8.03559e-05 0.0012315)
(0.00312985 -9.27056e-05 0.000709208 0.00128832 -8.45676e-05 0.00124206)
(0.00314868 -9.03596e-05 0.00069101 0.00129474 -8.88757e-05 0.00124984)
(0.00316868 -8.59688e-05 0.000671758 0.00130277 -9.24603e-05 0.00125742)
(0.00319364 -8.10064e-05 0.000649539 0.00131515 -9.55856e-05 0.00126782)
(0.0031913 -7.51232e-05 0.000612696 0.00131975 -9.84273e-05 0.00127099)
(0.00314284 -6.89591e-05 0.000557448 0.00130974 -0.000101069 0.0012616)
(0.00303978 -6.31864e-05 0.000478939 0.00128216 -0.000103583 0.00123852)
(0.0029095 -5.92296e-05 0.000383388 0.00124713 -0.000107166 0.0012118)
(0.00277923 -5.72382e-05 0.000275895 0.00121451 -0.000112724 0.00119159)
(0.00268355 -5.79655e-05 0.000163462 0.00119763 -0.000121142 0.00119028)
(0.00266313 -6.19324e-05 5.48908e-05 0.00121137 -0.000133216 0.00122172)
(0.00275015 -6.91864e-05 -4.17739e-05 0.0012672 -0.000149482 0.00129512)
(0.00296154 -7.93367e-05 -0.000121307 0.00137055 -0.000170236 0.00141236)
(0.003298 -9.07296e-05 -0.000182077 0.00152138 -0.000195614 0.00156737)
(0.00375328 -0.000101698 -0.000230344 0.00171794 -0.000225989 0.00175368)
(0.00433827 -0.000111711 -0.000273641 0.00196679 -0.00026127 0.0019736)
(0.00507081 -0.000120322 -0.00032421 0.00227703 -0.000302472 0.00223392)
(0.00598068 -0.000125428 -0.000393919 0.00266235 -0.000351713 0.00254577)
(0.00712307 -0.000124048 -0.00049841 0.00314797 -0.000412848 0.00292897)
(0.0086142 -0.000115784 -0.000665672 0.00378513 -0.000493909 0.00342744)
(0.0106794 -0.000102264 -0.000938118 0.00467193 -0.000612236 0.00412014)
(0.0137462 -7.9219e-05 -0.00138598 0.00598893 -0.000798322 0.00515136)
(0.0185106 -4.36501e-05 -0.00215506 0.00802557 -0.0010912 0.00676016)
(0.0259182 -4.1475e-05 -0.00350821 0.0111657 -0.00153182 0.00927269)
(0.0372916 -0.000231975 -0.00591355 0.0158661 -0.00216 0.0130947)
(0.0547839 -0.000861738 -0.0101374 0.0227945 -0.00300762 0.0189323)
(0.0779823 -0.00206366 -0.0158267 0.0309195 -0.00392538 0.0263791)
(0.102349 -0.00340989 -0.021155 0.0376884 -0.00467585 0.0336129)
(0.124406 -0.00438499 -0.0247228 0.0422148 -0.00490979 0.0398511)
(0.128831 -0.00427393 -0.0230507 0.0406566 -0.00416103 0.0409096)
(0.105872 -0.00272477 -0.0154346 0.0315289 -0.00283542 0.0332873)
(0.0696579 -0.000627328 -0.00746419 0.0204591 -0.00143756 0.0219244)
(0.035337 0.000195555 -0.00295004 0.0109789 -0.000569323 0.0117053)
(0.0128462 -5.86424e-05 -0.0011342 0.00431088 -0.000104736 0.00464158)
(0.00234813 -6.13489e-05 -0.000255298 0.000788361 1.94566e-05 0.000892427)
(0.000141033 -7.55988e-06 -1.77733e-05 4.81884e-05 2.68672e-06 5.5052e-05)
(8.09947e-06 -7.79908e-07 -7.84315e-07 4.95053e-06 3.28929e-07 6.20144e-06)
(9.5874e-06 -1.2955e-06 -6.48632e-07 8.65246e-06 3.8099e-07 1.02978e-05)
(7.55729e-05 -2.69562e-05 -5.38929e-06 7.77764e-05 3.45136e-06 8.0474e-05)
(0.0200348 -0.00118878 0.000442317 0.00492207 -0.000376982 0.00505287)
(0.00963251 -0.00120672 0.0019372 0.00354167 -0.000370117 0.00316516)
(0.00790527 -0.000590537 0.0019428 0.00306213 -0.000310403 0.00285067)
(0.00550911 -0.000351902 0.00140763 0.00225618 -0.0001874 0.00211644)
(0.00462955 -0.000280556 0.00110318 0.00196823 -0.000141448 0.00184688)
(0.00408887 -0.000271834 0.000823521 0.00181517 -0.000107963 0.0017183)
(0.00426858 -0.000314595 0.000656494 0.00196146 -9.76528e-05 0.00187354)
(0.00457158 -0.000389349 0.000385501 0.00219807 -8.12589e-05 0.00213261)
(0.0054011 -0.000561175 -2.52533e-05 0.00274437 -5.41615e-05 0.00267686)
(0.00721256 -0.000943214 -0.000685633 0.00386276 8.03008e-06 0.00375349)
(0.0109332 -0.00171988 -0.00167941 0.00601858 0.000155684 0.00578444)
(0.0170321 -0.00310788 -0.0031494 0.00937812 0.000447132 0.00891764)
(0.026857 -0.00551192 -0.00548866 0.0143571 0.000884369 0.013555)
(0.0239962 -0.00534096 -0.00526851 0.0125767 0.00084118 0.0117915)
(0.00961219 -0.00213972 -0.00214781 0.00506913 0.000271236 0.00476514)
(0.0028464 -0.000490371 -0.000500727 0.00149407 -1.86022e-07 0.00146032)
(0.00155462 -0.000162062 -0.00017099 0.000797166 -4.91324e-05 0.000815655)
(0.00142149 -0.000114142 -0.000141386 0.000717779 -6.13692e-05 0.000751957)
(0.00152104 -0.000115708 -0.000174047 0.000763778 -7.01977e-05 0.000813479)
(0.00172159 -0.00013487 -0.000231819 0.000862679 -7.9663e-05 0.000931481)
(0.00199455 -0.000164753 -0.000308619 0.000996058 -9.067e-05 0.00108774)
(0.00226859 -0.000191168 -0.000385367 0.00112491 -0.000104001 0.0012394)
(0.00250882 -0.000207661 -0.000449941 0.0012325 -0.000119354 0.00136525)
(0.00274126 -0.000218995 -0.000508906 0.0013348 -0.000136241 0.00148059)
(0.00302127 -0.000236254 -0.00057942 0.00146088 -0.000154185 0.00161935)
(0.00341711 -0.00027 -0.000684153 0.00164329 -0.000174162 0.00182004)
(0.00388947 -0.000315313 -0.000812637 0.00186161 -0.000195604 0.00205941)
(0.00442721 -0.000371813 -0.000963077 0.00210915 -0.000217832 0.00233379)
(0.00503176 -0.000441305 -0.00113492 0.00238577 -0.000240482 0.00264836)
(0.00571533 -0.000525437 -0.00133035 0.00269433 -0.000264208 0.00301211)
(0.00648415 -0.000626003 -0.0015494 0.00303711 -0.000289584 0.0034327)
(0.00732968 -0.00074101 -0.00178772 0.00340792 -0.000318093 0.0039074)
(0.00819193 -0.000858407 -0.00202458 0.00377699 -0.000352259 0.00440103)
(0.00896015 -0.000956056 -0.00222151 0.00409151 -0.000396866 0.00484099)
(0.00949714 -0.00100238 -0.00232999 0.00429033 -0.000458654 0.00513187)
(0.00975773 -0.000975002 -0.00233194 0.00435483 -0.000545914 0.00523555)
(0.00990727 -0.000897441 -0.00226998 0.00436791 -0.000658892 0.00523914)
(0.0104923 -0.000881278 -0.00230147 0.00458377 -0.000784754 0.00543118)
(0.011624 -0.000950117 -0.00246127 0.00504247 -0.000920452 0.00585853)
(0.0131828 -0.00107422 -0.00271117 0.00568452 -0.00107416 0.00644069)
(0.0152443 -0.00126316 -0.00307693 0.00653627 -0.00125253 0.00721737)
(0.017891 -0.00153 -0.00357552 0.00763245 -0.00146954 0.00822823)
(0.0214068 -0.00189257 -0.00424039 0.00908876 -0.00177569 0.00956178)
(0.0265338 -0.00241454 -0.00520153 0.0112044 -0.00224484 0.0115192)
(0.0344045 -0.00323933 -0.00672286 0.0144499 -0.00296941 0.0145309)
(0.0467183 -0.00474637 -0.00912901 0.0195144 -0.00408503 0.0191212)
(0.066825 -0.00757164 -0.0130945 0.0275399 -0.00568293 0.0262929)
(0.101116 -0.0127273 -0.0197978 0.0402379 -0.00775399 0.0379192)
(0.169851 -0.0221937 -0.0337191 0.0644237 -0.010374 0.0603395)
(0.25606 -0.0321932 -0.0475289 0.088876 -0.0114995 0.0847548)
(0.28734 -0.0295417 -0.0463731 0.0905211 -0.011274 0.0893923)
(0.239892 -0.0161668 -0.0318372 0.069627 -0.00916207 0.0705844)
(0.162448 -0.00540368 -0.0170196 0.0461678 -0.00586812 0.0462202)
(0.0894181 -0.000105295 -0.0077643 0.0267985 -0.00317971 0.0258368)
(0.0383591 0.000324371 -0.00315703 0.0123268 -0.00103572 0.0120058)
(0.00962703 -8.55862e-05 -0.000890661 0.00312583 -2.07682e-05 0.00333285)
(0.000762974 -2.90513e-05 -8.66546e-05 0.000248423 1.11312e-05 0.000268786)
(3.02395e-05 -1.60433e-06 -3.26587e-06 1.00645e-05 3.98418e-07 1.10129e-05)
(6.27703e-06 -8.35335e-07 -4.77453e-07 5.15056e-06 2.37527e-07 5.97951e-06)
(7.30165e-05 -2.62609e-05 -7.03013e-06 7.38387e-05 4.21256e-06 7.53614e-05)
(0.0113896 -0.000705763 -0.000352532 0.00271984 -0.000206929 0.00300589)
(0.00323034 -0.000413687 0.000551092 0.00123608 -0.000136923 0.0011615)
(0.00249918 -0.000230976 0.000352998 0.00111454 -9.38518e-05 0.0010614)
(0.00237902 -0.000274096 5.50482e-05 0.00127091 -6.21295e-05 0.00121186)
(0.0035536 -0.000489621 -0.00022592 0.00203769 -7.65547e-05 0.00193992)
(0.00610914 -0.00093575 -0.000667834 0.00352576 -0.000121768 0.00339432)
(0.0108865 -0.00173189 -0.00140328 0.00610048 -0.00023704 0.00597352)
(0.0195189 -0.00310773 -0.00273214 0.0105562 -0.000437054 0.0105215)
(0.0350146 -0.00554613 -0.00522318 0.0184848 -0.000678866 0.0185106)
(0.06223 -0.0101443 -0.00991469 0.0326292 -0.000696871 0.03232)
(0.106656 -0.0187635 -0.0184428 0.0561938 0.000124913 0.0543583)
(0.170441 -0.0335377 -0.0321446 0.0896929 0.00245696 0.0845746)
(0.260171 -0.05707 -0.0527693 0.133058 0.00594147 0.123567)
(0.238727 -0.0563921 -0.0519401 0.120659 0.00660908 0.11066)
(0.110748 -0.0272549 -0.0261369 0.0570995 0.00313588 0.0521474)
(0.033035 -0.00781987 -0.00826801 0.0172968 0.000646547 0.0163012)
(0.0115499 -0.00235193 -0.00292923 0.0061037 5.04224e-05 0.00608836)
(0.00764047 -0.00133975 -0.00196258 0.00407554 -4.73734e-05 0.00422836)
(0.00792508 -0.00131024 -0.00209922 0.00421863 -7.43247e-05 0.00447273)
(0.00991842 -0.00164349 -0.00272488 0.00525146 -8.72325e-05 0.00565005)
(0.0132027 -0.00223951 -0.0037517 0.00692514 -9.60405e-05 0.00754819)
(0.0164148 -0.00277443 -0.00480764 0.0084823 -0.000127675 0.00940006)
(0.0187988 -0.00306971 -0.0056447 0.00953674 -0.000197274 0.0107551)
(0.0206678 -0.0031935 -0.00632007 0.0102926 -0.000292383 0.0117682)
(0.0228002 -0.00333087 -0.00704847 0.0111753 -0.00038601 0.0128584)
(0.0259457 -0.00363696 -0.00805544 0.012549 -0.0004709 0.0144151)
(0.0314985 -0.00439363 -0.00977975 0.0150782 -0.00055268 0.0171708)
(0.0392984 -0.00557304 -0.0121699 0.0186419 -0.000613298 0.0210025)
(0.0489616 -0.00713717 -0.0150957 0.0230523 -0.000622645 0.0257115)
(0.060784 -0.0091738 -0.0186478 0.028411 -0.00055359 0.0314269)
(0.0750865 -0.0118192 -0.0228969 0.0348649 -0.000354451 0.0383107)
(0.0919039 -0.0151535 -0.0278193 0.0423982 1.27459e-05 0.0464105)
(0.109537 -0.0189357 -0.0328406 0.0501972 0.00054076 0.0549754)
(0.124635 -0.0225562 -0.0369336 0.056709 0.00113692 0.0624023)
(0.13458 -0.025532 -0.0393131 0.0607907 0.00164712 0.0672844)
(0.125919 -0.0248073 -0.0364985 0.0563637 0.00176765 0.0630709)
(0.0982157 -0.0195876 -0.0287097 0.0434581 0.00138259 0.0498476)
(0.0706318 -0.0137638 -0.0210448 0.0307077 0.00074704 0.0366372)
(0.0525085 -0.00961424 -0.0158985 0.0222659 0.000105916 0.0279143)
(0.0414921 -0.00693182 -0.012523 0.0171349 -0.000514803 0.02245)
(0.0402112 -0.0065801 -0.0117679 0.0164481 -0.000898398 0.0215391)
(0.0427349 -0.007246 -0.0120363 0.0175082 -0.00115714 0.0223436)
(0.0464351 -0.00825498 -0.012471 0.0191412 -0.00146634 0.0234742)
(0.0520045 -0.00959418 -0.0132245 0.0215362 -0.00191614 0.025277)
(0.0608207 -0.0115595 -0.0147046 0.0252173 -0.00244161 0.0285691)
(0.0731284 -0.0140275 -0.0169259 0.0302566 -0.00326399 0.0333469)
(0.0936662 -0.0185363 -0.0205086 0.0387648 -0.00457194 0.0412329)
(0.128686 -0.0266191 -0.0264321 0.0532262 -0.00631624 0.0542666)
(0.188099 -0.0399752 -0.0365296 0.0753838 -0.00791774 0.074723)
(0.291175 -0.0594395 -0.0506856 0.106474 -0.00888598 0.105096)
(0.368541 -0.0626689 -0.0568174 0.121404 -0.0114638 0.122986)
(0.367055 -0.0413116 -0.0512878 0.110007 -0.0146962 0.115633)
(0.300417 -0.0164446 -0.0353895 0.0863062 -0.0147675 0.0891127)
(0.193195 -0.0023099 -0.0189508 0.0571417 -0.0104775 0.0545341)
(0.0943065 0.00139937 -0.00805631 0.0290608 -0.0044432 0.0265993)
(0.0294404 0.00026311 -0.0022909 0.00915424 -0.000503032 0.00916908)
(0.00319859 -7.16594e-05 -0.000310734 0.00102133 3.04652e-05 0.00106311)
(0.000159118 -6.85112e-06 -1.58387e-05 4.99297e-05 1.64683e-06 5.22643e-05)
(9.46568e-06 -7.76611e-07 -7.90002e-07 5.22141e-06 2.28948e-07 5.83271e-06)
(7.31126e-05 -2.64916e-05 -8.12755e-06 7.22681e-05 4.80933e-06 7.23055e-05)
(0.00778657 -0.000571988 -0.000565288 0.00196753 -0.000305497 0.00235886)
(0.00271776 -0.000419176 -9.89914e-05 0.00141955 -8.41797e-05 0.00141349)
(0.00535388 -0.000840856 -0.00056925 0.00309423 -0.000131174 0.00304221)
(0.0116454 -0.00200208 -0.00153588 0.00695022 -0.000249294 0.00674022)
(0.0238038 -0.0043775 -0.0033936 0.0141695 -0.000526602 0.0135393)
(0.0460165 -0.00890232 -0.00672178 0.0266101 -0.00105366 0.0254928)
(0.0841961 -0.0166443 -0.0125488 0.0462132 -0.00218175 0.0450136)
(0.153807 -0.030097 -0.0230515 0.0795945 -0.00439248 0.0795324)
(0.278422 -0.053723 -0.0427679 0.138005 -0.00778338 0.140216)
(0.495556 -0.0972451 -0.0790521 0.240693 -0.0114751 0.243674)
(0.832933 -0.173126 -0.141059 0.403841 -0.0115886 0.399058)
(1.27009 -0.285374 -0.228893 0.616885 -0.00238269 0.589111)
(1.76087 -0.421466 -0.334698 0.839677 0.0123927 0.78254)
(1.63947 -0.408118 -0.332292 0.783058 0.0216401 0.71242)
(0.951664 -0.245386 -0.211496 0.471258 0.0170513 0.421587)
(0.397421 -0.101451 -0.096646 0.202131 0.00655735 0.184876)
(0.173226 -0.0410402 -0.0440616 0.0880945 0.00177015 0.0847951)
(0.110124 -0.024351 -0.0287321 0.0566483 0.000678051 0.0563809)
(0.10538 -0.0228177 -0.0282659 0.0550262 0.000583679 0.0556564)
(0.130515 -0.0285455 -0.0359308 0.0684714 0.000893864 0.0700082)
(0.170395 -0.0377663 -0.0480254 0.0889328 0.00139586 0.0920546)
(0.204248 -0.04515 -0.0591767 0.105492 0.00161414 0.111431)
(0.225834 -0.0490384 -0.0673776 0.11507 0.00132943 0.124544)
(0.240795 -0.0506205 -0.0738583 0.120976 0.000621794 0.133768)
(0.256016 -0.0516681 -0.080359 0.126967 -0.00023546 0.14221)
(0.275532 -0.0529634 -0.0879344 0.13487 -0.00115291 0.15187)
(0.303081 -0.0555305 -0.0976866 0.146557 -0.00225444 0.165179)
(0.364798 -0.0654855 -0.117157 0.174274 -0.00329797 0.194999)
(0.463871 -0.084048 -0.147129 0.219393 -0.00395133 0.242199)
(0.58877 -0.108381 -0.184482 0.275903 -0.00413133 0.300945)
(0.740366 -0.139305 -0.228486 0.344043 -0.00365285 0.370961)
(0.922681 -0.178307 -0.278366 0.424833 -0.00228119 0.451737)
(1.11643 -0.223037 -0.326042 0.508715 0.000600649 0.532276)
(1.26418 -0.262029 -0.355818 0.570042 0.00505781 0.588195)
(1.3061 -0.282177 -0.355782 0.58433 0.0105042 0.597491)
(1.20731 -0.270908 -0.323824 0.538223 0.0153018 0.549107)
(1.01481 -0.235289 -0.272872 0.452135 0.0180025 0.464318)
(0.79712 -0.190043 -0.217861 0.355447 0.0184885 0.370689)
(0.617725 -0.149804 -0.173352 0.274408 0.0177749 0.29357)
(0.457989 -0.111479 -0.133848 0.20163 0.0157963 0.224463)
(0.320729 -0.0769605 -0.0990413 0.13892 0.0124395 0.16317)
(0.236571 -0.0552562 -0.0771418 0.100422 0.00985025 0.124818)
(0.1768 -0.0405288 -0.0598753 0.0741214 0.00718198 0.0961453)
(0.164833 -0.0389595 -0.0551573 0.0700188 0.00605446 0.0893551)
(0.170462 -0.0411753 -0.0558803 0.0733066 0.00560698 0.0914159)
(0.178007 -0.0437587 -0.0568475 0.0773917 0.00494952 0.0943461)
(0.188871 -0.0469688 -0.0570056 0.0825564 0.00275797 0.0975488)
(0.215858 -0.0533657 -0.0592718 0.0933735 -0.00114178 0.107086)
(0.274145 -0.0678125 -0.0677383 0.114452 -0.00364271 0.12877)
(0.357673 -0.0851723 -0.0797848 0.140634 -0.00497474 0.156493)
(0.433615 -0.0892165 -0.0936158 0.159303 -0.00820842 0.182317)
(0.452252 -0.0724023 -0.0944023 0.155301 -0.0145245 0.181308)
(0.414073 -0.0434992 -0.0771142 0.135487 -0.0210396 0.152279)
(0.340619 -0.0145861 -0.0462491 0.106146 -0.0220023 0.107927)
(0.211885 0.00160552 -0.0190133 0.0637993 -0.0125101 0.0594555)
(0.0734109 0.00169857 -0.00498514 0.0218774 -0.00241377 0.0208363)
(0.0107753 -2.86391e-05 -0.000804333 0.00334464 1.26888e-05 0.00334729)
(0.000698987 -2.34957e-05 -6.10085e-05 0.000216288 5.5937e-06 0.000220248)
(3.34006e-05 -1.49192e-06 -2.60396e-06 1.20381e-05 3.5083e-07 1.26742e-05)
(7.37747e-05 -2.67545e-05 -8.72613e-06 7.07058e-05 5.04066e-06 6.91152e-05)
(0.0132205 -0.00184944 -0.00192429 0.00497495 -0.000414048 0.00601121)
(0.0168218 -0.00275285 -0.00207927 0.00946656 -0.000536924 0.0101219)
(0.0413785 -0.0080864 -0.0061407 0.0238319 -0.00121225 0.0243369)
(0.0893154 -0.0190828 -0.0144497 0.0520359 -0.00177444 0.0516652)
(0.17043 -0.0396428 -0.0293976 0.09871 -0.00264741 0.0942166)
(0.309159 -0.0759303 -0.0538033 0.173037 -0.004329 0.163964)
(0.526694 -0.132356 -0.0909242 0.278257 -0.0088644 0.27039)
(0.903648 -0.224766 -0.150276 0.445243 -0.0195157 0.451493)
(1.5343 -0.375535 -0.249444 0.714493 -0.0369358 0.754711)
(2.57081 -0.633016 -0.411533 1.15633 -0.0619373 1.24267)
(4.03717 -1.02149 -0.651014 1.78995 -0.0850912 1.90825)
(5.62809 -1.45843 -0.933268 2.47835 -0.0858608 2.57786)
(6.7559 -1.77272 -1.15974 2.96701 -0.0651254 2.98001)
(6.75326 -1.78678 -1.21034 3.00159 -0.0321799 2.87811)
(5.21738 -1.40304 -1.03028 2.43117 -0.00128038 2.22642)
(3.21195 -0.873389 -0.719735 1.57363 0.0141189 1.42455)
(2.03114 -0.535562 -0.490918 0.997548 0.013013 0.934989)
(1.59041 -0.406341 -0.397031 0.777565 0.0128013 0.749031)
(1.54647 -0.391445 -0.392113 0.760346 0.0162886 0.735937)
(1.66218 -0.420922 -0.426268 0.822851 0.0212765 0.79544)
(1.78531 -0.453336 -0.465034 0.887921 0.0261374 0.86063)
(1.8519 -0.47043 -0.49385 0.921722 0.0289998 0.905614)
(1.8582 -0.47113 -0.509484 0.92326 0.0287519 0.929789)
(1.8334 -0.461912 -0.515522 0.907847 0.0245508 0.940904)
(1.80294 -0.450658 -0.516698 0.890203 0.0179429 0.943192)
(1.79105 -0.442602 -0.518288 0.879959 0.0115647 0.94155)
(1.79048 -0.438396 -0.520828 0.875512 0.0060632 0.938841)
(1.85555 -0.451466 -0.540101 0.904272 -0.000858791 0.969167)
(2.03637 -0.494413 -0.586165 0.98942 -0.00887409 1.05266)
(2.37837 -0.57918 -0.670807 1.14892 -0.014987 1.20675)
(2.81048 -0.687029 -0.775773 1.3455 -0.0187279 1.39702)
(3.29103 -0.806903 -0.891076 1.56073 -0.0198013 1.60455)
(3.80709 -0.934867 -1.00703 1.78448 -0.0176234 1.81553)
(4.27381 -1.05143 -1.09928 1.97517 -0.0108627 1.98783)
(4.54334 -1.12429 -1.13649 2.0728 0.000114329 2.06094)
(4.52314 -1.13259 -1.10465 2.04715 0.0138494 2.00908)
(4.21923 -1.07553 -1.01195 1.90221 0.0291167 1.84839)
(3.65727 -0.956697 -0.873677 1.65268 0.0424336 1.59742)
(3.06424 -0.824281 -0.739461 1.39264 0.0539869 1.34865)
(2.50597 -0.68735 -0.619368 1.14165 0.0623034 1.11895)
(1.962 -0.546465 -0.505983 0.895474 0.064443 0.899038)
(1.53025 -0.425976 -0.417144 0.694675 0.0626595 0.724666)
(1.09559 -0.301111 -0.321449 0.493954 0.0539288 0.542433)
(0.705895 -0.191659 -0.227224 0.318373 0.0391271 0.37073)
(0.527158 -0.140101 -0.181192 0.237074 0.0297084 0.288839)
(0.452597 -0.115332 -0.158767 0.200033 0.0234494 0.249379)
(0.413289 -0.102386 -0.142571 0.180407 0.0186477 0.223879)
(0.382682 -0.093623 -0.128476 0.165935 0.0132337 0.20645)
(0.36484 -0.0914268 -0.117394 0.163624 0.00618231 0.201881)
(0.360914 -0.0900119 -0.110247 0.168264 -0.00337429 0.203708)
(0.376727 -0.0851593 -0.110239 0.169141 -0.00831265 0.202388)
(0.383419 -0.0752768 -0.100427 0.162168 -0.0105736 0.187964)
(0.366042 -0.0565565 -0.0804143 0.142499 -0.0140785 0.160234)
(0.331098 -0.0320236 -0.053631 0.115963 -0.0168666 0.125002)
(0.286253 -0.00684907 -0.0271526 0.0881231 -0.0156918 0.0896345)
(0.153518 0.00317782 -0.00936887 0.0447327 -0.00637035 0.0432104)
(0.0306741 0.000549889 -0.00154387 0.00921353 -0.000288393 0.00895824)
(0.00259724 -5.34126e-05 -0.000178776 0.000790189 1.17939e-05 0.000786717)
(0.000148117 -4.52574e-06 -9.79218e-06 4.62717e-05 8.98285e-07 4.70091e-05)
(7.67057e-05 -2.70078e-05 -8.89246e-06 6.94703e-05 4.90903e-06 6.62891e-05)
(0.0570469 -0.00994657 -0.00679052 0.0294059 -0.0112894 0.0333398)
(0.0864059 -0.0220902 -0.0120337 0.0507258 -0.00287386 0.0549961)
(0.198222 -0.0591717 -0.0344842 0.117062 0.0065656 0.119128)
(0.41226 -0.129889 -0.0759658 0.244099 0.0141434 0.243695)
(0.719669 -0.238468 -0.144738 0.436212 0.0236892 0.414008)
(1.2725 -0.42256 -0.264054 0.758183 0.0356219 0.696492)
(1.87809 -0.612375 -0.40463 1.08029 0.059227 0.993007)
(2.92129 -0.904042 -0.634493 1.54218 0.0982755 1.46219)
(4.42892 -1.29343 -0.961129 2.15164 0.135327 2.12345)
(6.42982 -1.78687 -1.35853 2.95509 0.12709 2.98834)
(8.53266 -2.27326 -1.74038 3.7991 0.0387178 3.90197)
(10.281 -2.65272 -2.03787 4.48517 -0.0823941 4.65203)
(11.3754 -2.95044 -2.19848 4.95575 -0.159955 5.14428)
(11.915 -3.2166 -2.27731 5.30604 -0.177979 5.41121)
(11.7382 -3.30088 -2.32362 5.43407 -0.154874 5.34801)
(11.0318 -3.15137 -2.33433 5.29492 -0.105826 5.05522)
(10.4746 -2.93984 -2.35384 5.03133 -0.0449186 4.78914)
(10.3384 -2.79399 -2.4152 4.85796 -0.00318274 4.68927)
(10.3542 -2.72228 -2.44154 4.79538 0.00368998 4.6541)
(10.1302 -2.62977 -2.37079 4.66436 -0.00700429 4.50469)
(9.58255 -2.48193 -2.22138 4.41467 -0.017587 4.21879)
(8.70776 -2.26849 -2.02248 4.04063 -0.0147814 3.8268)