/*--------------------------------*- C++ -*----------------------------------*\
| =========                 |                                                 |
| \\      /  F ield         | OpenFOAM: The Open Source CFD Toolbox           |
|  \\    /   O peration     | Version:  2.1.1                                 |
|   \\  /    A nd           | Web:      www.OpenFOAM.org                      |
|    \\/     M anipulation  |                                                 |
\*---------------------------------------------------------------------------*/
FoamFile
{
    version     2.0;
    format      ascii;
    class       volScalarField;
    location    "0.00125";
    object      TLS;
}
// * * * * * * * * * * * * * * * * * * * * * * * * * * * * * * * * * * * * * //

dimensions      [0 1 0 0 0 0 0];

internalField   nonuniform List<scalar> 
36520
(
0.000370539
0.000313362
0.000270205
0.000257319
0.000248151
0.000242471
0.000238009
0.000234911
0.00023309
0.000232796
0.000234174
0.000236977
0.000241018
0.000244811
0.000247861
0.000250439
0.000253074
0.000256115
0.000259675
0.000263806
0.000268445
0.000273357
0.000278695
0.000284434
0.000290708
0.000297443
0.000304778
0.000312726
0.000321436
0.000330936
0.000341321
0.000352544
0.000364568
0.000377171
0.000390043
0.000402761
0.000414934
0.000426181
0.000436314
0.000445165
0.000452339
0.000456884
0.000456827
0.000450551
0.000439855
0.000430133
0.000429189
0.00044645
0.000479015
0.000527043
0.000591204
0.000672038
0.000790205
0.000999993
0.00132063
0.00157398
0.00165829
0.00171305
0.00171601
0.00163304
0.000610306
0.000324008
0.000299319
0.000289437
0.000281106
0.000275275
0.000269556
0.000266146
0.000265683
0.000270576
0.000282925
0.000301965
0.000311935
0.000314739
0.000319155
0.000324028
0.000329264
0.000334532
0.000339744
0.000344026
0.000347615
0.000350791
0.000353696
0.000356232
0.000358699
0.000361844
0.000366073
0.000371687
0.000378681
0.000387043
0.000396711
0.000407092
0.000416868
0.000424084
0.000427242
0.000426468
0.000422893
0.000417377
0.000410117
0.000400709
0.000388524
0.000373282
0.000355282
0.000335237
0.000313735
0.000290324
0.000267106
0.000246767
0.000231449
0.00022138
0.000216006
0.000213252
0.000212551
0.000218025
0.000234612
0.000272604
0.000479325
0.000987388
0.00110512
0.00279327
0.000732056
0.000347194
0.000325259
0.000316393
0.000307808
0.000301135
0.000293327
0.000287591
0.000283168
0.000277268
0.000258631
0.000226271
0.000200026
0.00021226
0.00028959
0.000378435
0.000406039
0.000413747
0.000415457
0.000413226
0.000408991
0.000404555
0.000400219
0.000395702
0.000390695
0.000385528
0.000380279
0.000374401
0.000367262
0.000358393
0.000347931
0.000336863
0.000326736
0.00031869
0.000312882
0.000308464
0.000304456
0.000300015
0.000295068
0.00028946
0.000282988
0.000275582
0.000267109
0.000257319
0.000246209
0.00023397
0.000221104
0.000211029
0.000204958
0.000201614
0.000202076
0.000208576
0.000216558
0.000220759
0.000233525
0.000260408
0.000307705
0.000491425
0.00102841
0.00292732
0.00087094
0.000367752
0.000342176
0.000319906
0.000289273
0.000253799
0.000223443
0.000194866
0.000171546
0.000154905
0.000145363
0.000139416
0.000135508
0.000136589
0.000147645
0.000184781
0.000263038
0.000309577
0.000316611
0.000311437
0.000302821
0.00029739
0.0002957
0.000294954
0.000292345
0.00028635
0.000279668
0.000273266
0.000267326
0.00026188
0.000256961
0.000252671
0.000249346
0.000247535
0.000248041
0.00025206
0.000259264
0.000263234
0.000262208
0.000259199
0.000255127
0.000250832
0.000246421
0.000241487
0.00023571
0.000228983
0.000221005
0.000211402
0.000196591
0.000181408
0.000172881
0.00018228
0.000206328
0.000225145
0.000235059
0.000256143
0.000298524
0.000334224
0.000851771
0.00296512
0.00100249
0.000318761
0.000247124
0.000195368
0.00017461
0.000164222
0.000157775
0.000152379
0.000147894
0.000143966
0.000140235
0.000136225
0.000131985
0.000131819
0.000138344
0.000151189
0.000173792
0.000198632
0.000211823
0.000215231
0.000213713
0.000213558
0.000215821
0.000219338
0.000222097
0.000222495
0.000219287
0.000214821
0.000210384
0.000206107
0.000201978
0.000197892
0.00019387
0.000189895
0.000185754
0.00018347
0.000185132
0.000191214
0.000201368
0.000216409
0.000222556
0.000222573
0.000221707
0.00022025
0.000218407
0.000217143
0.000214675
0.000209314
0.000198075
0.000172816
0.000144108
0.000143011
0.000165588
0.000205101
0.000232864
0.000253875
0.000293632
0.00032518
0.000494211
0.00298065
0.00109434
0.000190292
0.000173556
0.000166813
0.00016248
0.000158397
0.000153912
0.000149403
0.000144997
0.000140743
0.000136579
0.000132356
0.000127426
0.000127225
0.000132785
0.000142499
0.000154074
0.000165414
0.000174001
0.000177602
0.00017808
0.0001789
0.000180699
0.000183268
0.000186187
0.000188674
0.000190096
0.000188771
0.000185639
0.000182335
0.000179139
0.000175952
0.00017271
0.000169611
0.000166829
0.00016497
0.000164159
0.00016441
0.000165034
0.000166727
0.000170841
0.000176465
0.000185154
0.000188221
0.000188894
0.000190638
0.000193999
0.000193938
0.000177051
0.000136253
9.47752e-05
7.20307e-05
7.18603e-05
8.33782e-05
0.000134144
0.000240731
0.000287687
0.000322345
0.000368258
0.00299609
0.000921227
0.000173053
0.000167871
0.000163707
0.000158777
0.000153541
0.000148063
0.000142477
0.000137223
0.000132472
0.000128285
0.000124994
0.000122477
0.000122323
0.000126563
0.000134455
0.000143252
0.000151165
0.000155255
0.000156244
0.00015711
0.000158606
0.000160491
0.000162284
0.000164156
0.000165979
0.000167357
0.000168107
0.000167782
0.000166088
0.000164099
0.000162193
0.000160163
0.000158052
0.000156256
0.000154888
0.000153773
0.000153519
0.000153682
0.000153929
0.000154695
0.000155215
0.000156259
0.000159733
0.000163579
0.000167148
0.000168832
0.000164262
0.000152653
0.000119885
6.03599e-05
4.00919e-05
3.75171e-05
3.99573e-05
5.5715e-05
0.000171356
0.000277631
0.00031755
0.000342362
0.00300641
0.000615554
0.000170938
0.000163089
0.000156959
0.000150743
0.000142799
0.000138842
0.000133872
0.000129203
0.000125566
0.000122969
0.000121157
0.000120386
0.000121722
0.000125822
0.000129796
0.000132353
0.00013388
0.000134753
0.000135734
0.000137348
0.000139975
0.000143691
0.000147229
0.000149253
0.000150422
0.000150666
0.00015033
0.000149836
0.000149188
0.000148313
0.00014747
0.000146409
0.00014421
0.00014064
0.000139359
0.000139975
0.00014164
0.000142989
0.000143539
0.000144452
0.000145827
0.000147639
0.00015075
0.000153723
0.000153942
0.000153144
0.000156298
0.000162082
0.000162741
0.00011996
3.66854e-05
3.23773e-05
3.42981e-05
4.29324e-05
0.000133661
0.000277363
0.000317052
0.000342416
0.00298672
0.000541152
0.000155896
0.000144995
0.000140647
0.000140422
0.000138997
0.00013651
0.000131485
0.000121569
0.000102576
8.184e-05
7.53268e-05
8.19534e-05
0.000103894
0.000120118
0.000124329
0.000125208
0.000125498
0.000126455
0.000128401
0.000130474
0.000132039
0.000133743
0.000136081
0.000139041
0.000141527
0.000142857
0.000142949
0.000142368
0.000141597
0.000140529
0.000139186
0.000137736
0.00013625
0.000134568
0.000132468
0.000129964
0.000127336
0.000125157
0.000123853
0.000123534
0.00012409
0.0001263
0.000132127
0.000143293
0.000155289
0.000159159
0.000162018
0.000165888
0.000171329
0.000152115
3.8347e-05
3.05216e-05
3.30555e-05
4.05103e-05
0.000108898
0.000300689
0.000342
0.000363322
0.00285784
0.000569782
0.000158794
0.000146326
0.000142829
0.000143846
0.000143376
0.000143069
0.000140267
0.000133733
0.000123143
0.000109214
9.47929e-05
9.20409e-05
0.000100797
0.000121666
0.000132186
0.000133514
0.000133306
0.000132312
0.000131569
0.000131441
0.000132984
0.000136421
0.000141689
0.00014598
0.00014677
0.00014717
0.000147298
0.000146637
0.000145685
0.000144175
0.000141712
0.00013866
0.000136026
0.000134486
0.00013411
0.000133952
0.000133896
0.000134214
0.0001348
0.000135177
0.000136195
0.000139956
0.000147674
0.000155003
0.000160743
0.00016529
0.000168433
0.000178628
0.000197523
0.00015978
4.22485e-05
3.52534e-05
3.82359e-05
4.69899e-05
0.000125759
0.000322703
0.000358448
0.000375544
0.00281559
0.000614565
0.000162434
0.000148499
0.00014235
0.000143379
0.000144656
0.000146385
0.000146956
0.000143497
0.000126428
9.15125e-05
6.70558e-05
6.43531e-05
7.69696e-05
0.00011753
0.000140766
0.000143531
0.000144601
0.000143813
0.000142658
0.000142032
0.000141963
0.000142699
0.000143763
0.000143251
0.000141951
0.000141736
0.000142601
0.000141881
0.00013956
0.00014126
0.000143247
0.000144293
0.000144451
0.000144128
0.000143467
0.000142383
0.000141248
0.000141134
0.000141636
0.000142535
0.00014389
0.000146672
0.000151345
0.000156256
0.000160511
0.000165204
0.000171933
0.000183444
0.000193932
0.000154676
3.86726e-05
3.33365e-05
3.5688e-05
4.46874e-05
0.000140901
0.000303256
0.000339332
0.000360323
0.00278981
0.000622651
0.00017228
0.000159539
0.000151137
0.000145668
0.000144638
0.000146243
0.000145982
0.000144617
0.000133601
8.92157e-05
5.55821e-05
5.65864e-05
7.29998e-05
0.000118817
0.000135524
0.000137753
0.000138666
0.000138582
0.000138155
0.000138112
0.000138111
0.00013763
0.000135104
0.00013152
0.000135541
0.000141418
0.000143582
0.000143324
0.00013354
0.000129943
0.000135442
0.000141464
0.000144143
0.000144186
0.000135526
0.000117659
0.000117591
0.000123934
0.000138306
0.000140634
0.000140834
0.000143169
0.000148702
0.000155611
0.000159498
0.000163348
0.000168034
0.000179113
0.000184631
0.000157639
3.78274e-05
3.10596e-05
3.22761e-05
3.64729e-05
9.42114e-05
0.000255794
0.000291559
0.000319989
0.00286962
0.000599644
0.000174465
0.0001596
0.00015208
0.000149918
0.000149441
0.000148224
0.000145665
0.000137904
0.000112892
7.11691e-05
4.30945e-05
3.34721e-05
3.36135e-05
4.33881e-05
8.91328e-05
0.000134703
0.00013815
0.000139108
0.000139885
0.00014029
0.000140324
0.000139742
0.000137604
0.000132898
0.000134275
0.000140514
0.000142418
0.00014405
0.000144643
0.000131674
0.000117672
0.000128727
0.00014112
0.000144496
0.000144053
0.000143128
0.000130344
0.000117219
0.000122221
0.000138423
0.000147288
0.000149374
0.000151553
0.000141392
0.000138611
0.000152582
0.000171552
0.000179688
0.000183043
0.000155188
3.76778e-05
3.06426e-05
3.18671e-05
3.60513e-05
9.23565e-05
0.000250322
0.000286934
0.000317128
0.00287341
0.00059618
0.000163495
0.000134244
0.000127529
0.000124752
0.000122894
0.000126783
0.000135366
0.000140775
0.000135749
8.62625e-05
4.10778e-05
2.80333e-05
2.65389e-05
2.84613e-05
4.25481e-05
0.000105065
0.000144563
0.000146568
0.00014445
0.000141425
0.000140973
0.000141456
0.000142108
0.00014326
0.000144564
0.000144461
0.000145488
0.000147468
0.000147879
0.000145611
0.000144148
0.000145111
0.00014596
0.000146115
0.000145838
0.000145678
0.000145448
0.000144224
0.000142957
0.000143922
0.000146036
0.000148752
0.000148489
0.000143034
0.000142064
0.00015074
0.000164128
0.00018648
0.000193004
0.000106097
3.56736e-05
3.39079e-05
3.63236e-05
4.90394e-05
0.000174851
0.000295819
0.00033618
0.000359411
0.00282044
0.00059052
0.000179884
0.000142403
0.000124444
9.5105e-05
7.2132e-05
7.14061e-05
8.97062e-05
0.000128146
0.000127411
0.000102329
5.65019e-05
3.30102e-05
2.63615e-05
2.59205e-05
2.9568e-05
5.81244e-05
0.000130345
0.000138638
0.000140485
0.000141368
0.000141676
0.000141587
0.000141987
0.000143715
0.000145303
0.000147238
0.000146976
0.000136615
0.000131118
0.000132334
0.000137923
0.000146409
0.000150147
0.00015202
0.000152011
0.000150207
0.000142005
0.000125271
0.000126405
0.00014051
0.000150422
0.000150274
0.000148233
0.000145015
0.000147508
0.000155681
0.000169737
0.000195167
0.000201238
9.08916e-05
3.66334e-05
3.67418e-05
4.03269e-05
6.59592e-05
0.000243454
0.000326411
0.00036075
0.000376263
0.00290704
0.000595988
0.000170472
0.00014364
0.00011411
0.000103753
0.00011295
0.000127062
0.00013052
0.000129458
0.000114815
7.03791e-05
3.92654e-05
3.18794e-05
3.30158e-05
4.11215e-05
6.71925e-05
0.000114941
0.000132673
0.00013524
0.000135378
0.000135574
0.000136511
0.000138473
0.000141084
0.000141799
0.00013871
0.000127645
0.000124302
0.000125475
0.000132161
0.000145308
0.00015068
0.000150549
0.000145416
0.000110609
0.000103326
0.000120946
0.000147048
0.000148656
0.0001507
0.000158806
0.000158776
0.000147351
0.000144171
0.00014696
0.000154725
0.000171281
0.000188801
0.000200093
0.000204317
9.54766e-05
3.56154e-05
3.57908e-05
3.92108e-05
6.44898e-05
0.000244155
0.000323562
0.000355321
0.000370984
0.00294093
0.000652544
0.000166096
0.000155925
0.000149112
0.000146331
0.000143053
0.000137621
0.000132201
0.00012748
0.000121774
0.000111097
9.99304e-05
9.9281e-05
0.000109723
0.000122681
0.000132437
0.000140144
0.000144676
0.000145609
0.000145502
0.000145788
0.000146206
0.000146496
0.000146094
0.000144095
0.00014458
0.000146218
0.000147846
0.000150283
0.000152691
0.000153055
0.000149165
0.000132286
0.000127393
0.000127109
0.000129583
0.000140422
0.000151831
0.000154918
0.000156342
0.000157508
0.000157793
0.000158135
0.000160662
0.000163125
0.000167348
0.000172365
0.000174257
0.000174984
0.000171876
7.66954e-05
3.35471e-05
3.29444e-05
3.63459e-05
5.27878e-05
0.000184231
0.000284844
0.000317697
0.000339827
0.00300332
0.000952477
0.000181745
0.000176075
0.000171694
0.000166312
0.000160325
0.000154211
0.000148446
0.000143446
0.000138993
0.00013534
0.000133178
0.000132541
0.000135135
0.00013941
0.000145031
0.000152394
0.000158282
0.000159977
0.000159385
0.000158272
0.000157098
0.00015633
0.000156367
0.000157841
0.000161053
0.000163907
0.000164954
0.000164076
0.000162444
0.000160983
0.000159883
0.000158992
0.000158159
0.000157607
0.00015769
0.000158116
0.000158671
0.000159126
0.000159598
0.000160063
0.000159795
0.000158457
0.000156529
0.000154429
0.000152566
0.000151926
0.0001529
0.000151832
0.000121438
5.84955e-05
3.84806e-05
3.51647e-05
3.80411e-05
5.40996e-05
0.000166453
0.000266485
0.000304906
0.000332295
0.00300729
0.000995744
0.000213318
0.000187358
0.000180469
0.000176589
0.000172243
0.00016782
0.000163589
0.000159595
0.000155799
0.000152059
0.000148461
0.000144998
0.0001456
0.000149006
0.000154671
0.000163044
0.000171683
0.000176322
0.000176183
0.000173048
0.000170059
0.000168381
0.000168463
0.000171108
0.000177634
0.000187543
0.000189786
0.000188089
0.00018646
0.000185555
0.00018565
0.00018659
0.000188072
0.000190017
0.000192427
0.00019424
0.000194899
0.000193821
0.000190915
0.000186164
0.000180256
0.000174103
0.00016803
0.000162268
0.000158189
0.000155327
0.000152813
0.000149284
0.000138575
0.000105258
7.11147e-05
5.89891e-05
6.02037e-05
8.02975e-05
0.00018966
0.000272816
0.000305822
0.000350231
0.00299204
0.000890934
0.000359936
0.000278767
0.000213192
0.000191272
0.00018171
0.000175481
0.000170379
0.000165917
0.000161793
0.000157934
0.000155425
0.000153446
0.000154216
0.000158495
0.000167499
0.000185798
0.00020815
0.00021587
0.000210991
0.000201551
0.000194103
0.0001918
0.000196018
0.000210933
0.000237562
0.000256361
0.000256658
0.000254895
0.0002534
0.00025226
0.000251139
0.00024947
0.000246812
0.000242941
0.000237797
0.000231362
0.000223869
0.000215602
0.000206994
0.000198478
0.000190254
0.000182354
0.000174834
0.000167547
0.000160421
0.000153453
0.000150102
0.000150977
0.000156298
0.000164024
0.000162608
0.000156257
0.000156547
0.000174572
0.000229355
0.000273202
0.000306187
0.000423408
0.00297374
0.000779364
0.000372175
0.000355552
0.00034435
0.00031886
0.000286677
0.000256118
0.000227568
0.000203495
0.000185581
0.000175295
0.000170981
0.000169311
0.000174631
0.000192653
0.000232189
0.000284967
0.000307773
0.000307645
0.000298576
0.00028572
0.000275206
0.00027373
0.000283693
0.000300239
0.00031003
0.000310382
0.000306468
0.00030176
0.000296572
0.000290915
0.000284694
0.00027782
0.000270225
0.000261862
0.000252751
0.000242923
0.000232508
0.000221763
0.000211026
0.000200625
0.000190808
0.000181698
0.000173289
0.000165646
0.000159147
0.000153698
0.000151239
0.000152789
0.000159369
0.000170062
0.000180014
0.000187887
0.000196744
0.000211502
0.00023331
0.000275737
0.000310213
0.000616177
0.00296482
0.00070026
0.000350478
0.000333744
0.000330169
0.000323411
0.000319042
0.000313907
0.000312609
0.000315406
0.000324296
0.000336859
0.000344311
0.00034212
0.000357926
0.000384954
0.00040502
0.00041286
0.000413818
0.000411698
0.00040771
0.000402311
0.000396771
0.000392697
0.000390148
0.000387467
0.000383168
0.000377257
0.000369603
0.000360489
0.000349723
0.000337622
0.000324569
0.00031091
0.000296994
0.000282905
0.000268527
0.000253778
0.000238878
0.000224268
0.000210349
0.000197447
0.00018571
0.000175118
0.000165595
0.000156908
0.000150426
0.000146571
0.000145426
0.000146963
0.000152884
0.000164304
0.000178282
0.000190352
0.000196839
0.000207156
0.000234752
0.000279137
0.000350987
0.00100287
0.00295077
0.000593609
0.000328016
0.000307115
0.000301287
0.000294508
0.000290299
0.000286098
0.000284702
0.000286443
0.000293014
0.000305254
0.000319834
0.000327367
0.000331494
0.000336117
0.000341213
0.000346844
0.000352694
0.000358888
0.000365323
0.000371858
0.000378117
0.000383891
0.00038879
0.000392754
0.000395489
0.000396717
0.000398942
0.000403332
0.000408896
0.000414039
0.000417102
0.000416657
0.00041166
0.000401924
0.000387969
0.000370523
0.00035025
0.000327432
0.000302338
0.000276093
0.000250019
0.000225803
0.000204022
0.000188232
0.000178271
0.000173417
0.000172964
0.000176749
0.000184323
0.000190333
0.000190658
0.000189367
0.000192162
0.000206339
0.000241107
0.000366183
0.000955423
0.0011388
0.00284728
0.000346442
0.000310502
0.000275442
0.000265717
0.000258369
0.000253938
0.000250604
0.000248494
0.00024745
0.00024752
0.000248674
0.000250708
0.000253472
0.000256394
0.000259499
0.000262664
0.000266162
0.000270072
0.000274529
0.000279503
0.000285068
0.000291042
0.00029744
0.000304012
0.000310873
0.000317966
0.000325541
0.000333543
0.000342205
0.000351567
0.000361575
0.000371982
0.000382628
0.000393261
0.00040364
0.000413402
0.000422218
0.000429669
0.000435354
0.000439265
0.000441706
0.000443342
0.000444912
0.00044792
0.000457718
0.000476743
0.000505772
0.000545396
0.000597511
0.000664645
0.00074768
0.000850101
0.000971497
0.00111835
0.00133651
0.00162684
0.00172198
0.00176437
0.00176813
0.00171685
0.000367078
0.000320343
0.00028254
0.000271708
0.000263245
0.000258758
0.000255128
0.00025293
0.000251599
0.000250929
0.000251153
0.000251887
0.000253563
0.000255722
0.000258769
0.000262223
0.000266253
0.000270688
0.00027554
0.000280827
0.000286586
0.000292784
0.000299487
0.000306598
0.000314207
0.000322208
0.000330746
0.000339814
0.000349531
0.000359848
0.000370786
0.00038223
0.000394037
0.000405844
0.000417227
0.000427706
0.000436953
0.000444561
0.000450104
0.000453363
0.000454352
0.000453586
0.00045189
0.000452254
0.00045949
0.00047638
0.000503641
0.000541422
0.000589828
0.000649657
0.000721702
0.000808434
0.00091095
0.00103375
0.0012265
0.00158571
0.00173689
0.00178066
0.00177979
0.00170919
0.00062213
0.000345466
0.000322518
0.000317633
0.000313067
0.000312551
0.000309609
0.000308576
0.000306612
0.000305779
0.000305667
0.00030771
0.000310498
0.000315373
0.000320799
0.000327405
0.000334981
0.000342569
0.000350382
0.000357565
0.000364339
0.000370713
0.000376468
0.000381814
0.000386847
0.000391535
0.000396253
0.000401103
0.000406134
0.000410773
0.000414233
0.000415532
0.000413775
0.000408527
0.000400148
0.000389418
0.000376725
0.000361988
0.000345002
0.000325477
0.000303296
0.000278971
0.000253097
0.000231769
0.000215246
0.000204078
0.000197695
0.000195002
0.000194229
0.000193853
0.000192736
0.00018994
0.000185196
0.000182933
0.000190835
0.00021935
0.000305797
0.000858192
0.00110596
0.00283367
0.000758254
0.000374241
0.000356969
0.000357401
0.000356487
0.000360527
0.000358795
0.000359548
0.00035716
0.00035638
0.000356673
0.000360322
0.000364941
0.000372482
0.000379465
0.000386361
0.000392088
0.000394864
0.000394965
0.000392331
0.000387787
0.000381902
0.000375067
0.000367665
0.000359809
0.000351447
0.000342658
0.000333487
0.00032384
0.000313827
0.000303647
0.000293467
0.000283474
0.000273744
0.000264211
0.000254637
0.000244862
0.000234743
0.000224313
0.000213643
0.000202836
0.000192109
0.000181708
0.000171885
0.000162736
0.000156543
0.000153836
0.000154363
0.000157968
0.000163913
0.000171183
0.000177899
0.00018322
0.00018501
0.000191124
0.000215193
0.00025708
0.000318088
0.000948303
0.00295442
0.000879277
0.000401339
0.000388252
0.000393973
0.000394137
0.000395192
0.000386453
0.000375861
0.000362715
0.000349352
0.000335646
0.000321971
0.000308932
0.000297253
0.000287788
0.000280426
0.000274902
0.000271063
0.000268077
0.000265271
0.0002625
0.000259897
0.000257406
0.000254988
0.000252506
0.000250044
0.000247769
0.000245789
0.000244078
0.000242564
0.000241035
0.000238886
0.000235399
0.000230135
0.000223191
0.000215031
0.00020622
0.000197154
0.000188103
0.000179285
0.000170727
0.000162415
0.000154222
0.00014596
0.000137683
0.000128794
0.000121527
0.00011701
0.000122698
0.000132282
0.000143345
0.000154856
0.000164945
0.000175025
0.000189054
0.000213798
0.000252517
0.000288612
0.000547719
0.00298206
0.000998252
0.000415505
0.000384149
0.000342069
0.00030638
0.000280868
0.000265008
0.000252117
0.000241326
0.000231733
0.000223203
0.0002158
0.000209649
0.00020477
0.000201078
0.000198423
0.000196808
0.000196245
0.000196482
0.000196723
0.000196597
0.00019703
0.000197841
0.000198933
0.000199776
0.000200283
0.000200173
0.000200089
0.000200309
0.000200933
0.000202275
0.000204428
0.000206745
0.000207731
0.000206053
0.00020149
0.000195808
0.000189339
0.0001822
0.000174698
0.00016721
0.000159956
0.000152906
0.000145696
0.000136837
0.000125937
0.000116731
0.000113085
0.000113407
0.000118235
0.000132416
0.000142934
0.000141669
0.000136227
0.000138356
0.00017919
0.000245507
0.000284609
0.00034754
0.00298801
0.00110092
0.000308798
0.000239839
0.000216757
0.000209638
0.000204611
0.000200348
0.000195558
0.000190783
0.000186473
0.000182656
0.000179387
0.000176716
0.000174637
0.000172983
0.000171616
0.000170517
0.000169744
0.000169466
0.000169436
0.000169165
0.000169096
0.000169373
0.000169969
0.000170693
0.000171224
0.000170765
0.000169819
0.00016888
0.000167858
0.000166863
0.000166246
0.000166441
0.000167656
0.000169737
0.000172345
0.000174464
0.000174254
0.000174185
0.000171109
0.000164897
0.000158253
0.000151713
0.000144845
0.000138033
0.000132043
0.00012494
0.00011949
0.000116419
0.000112528
0.00011684
0.000111749
8.42246e-05
6.59268e-05
6.55635e-05
0.000103813
0.000223612
0.000273373
0.000308048
0.00299575
0.00113415
0.000190782
0.000178295
0.000174179
0.000174846
0.000176239
0.000177236
0.000175966
0.000174043
0.000171909
0.000169749
0.000167546
0.000165322
0.000163237
0.000161286
0.000159534
0.000158079
0.000156834
0.000156002
0.000155478
0.000154882
0.000154704
0.000154826
0.000155169
0.000155697
0.000156131
0.000155962
0.000154954
0.000153881
0.000152612
0.000151139
0.000149681
0.000148493
0.000147656
0.000146981
0.000146402
0.000145517
0.000143872
0.000142938
0.000145982
0.000149229
0.000148637
0.000146086
0.000142358
0.000138441
0.000135486
0.000133076
0.000131189
0.00013108
0.000128799
9.96925e-05
5.94356e-05
3.84326e-05
3.39023e-05
3.94378e-05
8.02577e-05
0.000221927
0.000260446
0.00029353
0.00300151
0.000945056
0.000163189
0.000155355
0.000153291
0.000156842
0.000160586
0.000162095
0.000161464
0.000161291
0.000159852
0.000157084
0.000153877
0.000150684
0.000147663
0.000145166
0.000143184
0.000141835
0.000140655
0.000139695
0.000139362
0.000139334
0.000139467
0.000139752
0.00014011
0.000140555
0.000140713
0.000140394
0.000139641
0.000138718
0.000137589
0.000136149
0.000134514
0.000132964
0.000131755
0.000130786
0.000130165
0.000129926
0.000130236
0.000130405
0.000130899
0.000131535
0.000131751
0.000132149
0.00013264
0.000133074
0.000133932
0.000136526
0.000140385
0.000144147
0.000146716
9.24667e-05
3.61923e-05
2.80504e-05
2.97336e-05
3.65331e-05
0.000101205
0.000245409
0.000278241
0.000307766
0.00299844
0.000574819
0.000148282
0.000136592
0.000131839
0.000133092
0.000141055
0.000140728
0.000138609
0.000140902
0.000141283
0.000139619
0.000137019
0.000134423
0.000132601
0.000131128
0.000129873
0.000129293
0.000129423
0.000129712
0.000130001
0.000130398
0.000130821
0.00013132
0.000131881
0.000132586
0.000133373
0.000133902
0.000133882
0.000133432
0.000132687
0.000131942
0.000131583
0.000131661
0.000132199
0.000133445
0.00013503
0.000136211
0.000136962
0.000137121
0.000136895
0.00013653
0.000136558
0.000137273
0.000138995
0.000141103
0.000143781
0.000148056
0.000153959
0.000162439
0.00016545
0.000102156
3.08591e-05
2.85696e-05
3.08566e-05
4.11998e-05
0.000160408
0.000277486
0.000314976
0.000341984
0.00297208
0.000507238
0.000142868
0.000132299
0.000126516
0.000121309
0.000115861
0.000113933
0.000118779
0.000124167
0.000127402
0.00012946
0.0001307
0.000130793
0.000130385
0.00012978
0.000128714
0.000127319
0.000125876
0.00012504
0.000125646
0.00012773
0.000128541
0.000128831
0.000129618
0.000131161
0.000132843
0.000134021
0.000134694
0.000133683
0.000130548
0.000126484
0.000121946
0.000117221
0.000113106
0.000109726
0.000107077
0.000105178
0.000103983
0.000103306
0.000103084
0.000103546
0.000105157
0.000109321
0.000118518
0.000130659
0.000136408
0.000139967
0.000147046
0.000169767
0.000185251
0.000106225
3.41514e-05
3.37471e-05
3.68329e-05
4.96188e-05
0.000193968
0.000328002
0.000361255
0.00037904
0.00287469
0.000534156
0.000145986
0.00012152
0.00011776
0.000114478
0.000104542
8.7161e-05
8.22256e-05
9.63251e-05
0.000124634
0.000134466
0.000136248
0.000136702
0.000138048
0.000140027
0.000141785
0.000143189
0.000144211
0.000144886
0.000145236
0.00014535
0.000145458
0.000145801
0.00014634
0.00014678
0.000147135
0.000147408
0.000146603
0.000144451
0.000141895
0.000139736
0.000138402
0.000137809
0.000136781
0.000134815
0.000131934
0.000127877
0.000122213
0.00011541
0.000109922
0.000108516
0.000109568
0.00011363
0.000122084
0.000130594
0.000137463
0.000146663
0.000161126
0.000191513
0.000202283
0.000104551
3.76034e-05
3.83896e-05
4.23842e-05
6.32713e-05
0.000244883
0.00035073
0.000379085
0.000391271
0.00286757
0.000568555
0.000166501
9.15037e-05
6.63488e-05
5.31769e-05
3.903e-05
2.88529e-05
2.69639e-05
2.99145e-05
5.35588e-05
0.000109109
0.000110163
0.000106109
0.000115902
0.000131627
0.000135029
0.000135597
0.000136593
0.000137574
0.000137192
0.000133562
0.000130257
0.000134799
0.00014502
0.000148645
0.000147363
0.000138435
0.00013946
0.000141188
0.000142911
0.000143649
0.000143611
0.000142846
0.000141389
0.000139555
0.000137317
0.000133676
0.000126632
0.000117339
0.000114122
0.000115495
0.00012132
0.000128828
0.000133761
0.000140341
0.000152034
0.000167416
0.000185649
0.00020368
0.000205603
6.83476e-05
3.78683e-05
3.94608e-05
4.43581e-05
8.3721e-05
0.000284518
0.000354209
0.000379973
0.000389911
0.00287257
0.000575145
0.000154624
0.00013319
0.000124353
0.000108498
7.76055e-05
5.2534e-05
4.58681e-05
4.94781e-05
6.40793e-05
6.28927e-05
5.45615e-05
5.63761e-05
7.52626e-05
0.000117943
0.000131879
0.000134915
0.000137243
0.000138916
0.000139393
0.000137762
0.000133876
0.000135024
0.000140279
0.000146361
0.000148812
0.000149435
0.000142495
0.000139642
0.000143469
0.000147301
0.000148361
0.000149068
0.000149653
0.000149991
0.000150185
0.000150013
0.000149209
0.000147243
0.000142505
0.000134767
0.000130139
0.000132073
0.000138591
0.000150135
0.000158037
0.000165095
0.000177452
0.000199211
0.000202709
8.06958e-05
3.78466e-05
3.87039e-05
4.28332e-05
6.96714e-05
0.000254241
0.000341162
0.000370585
0.00038229
0.0028606
0.000564676
0.000155643
0.00014527
0.0001337
0.000130449
0.000127235
0.000121204
0.000113821
0.000101429
7.95468e-05
5.88623e-05
5.26515e-05
5.88811e-05
9.05514e-05
0.000138294
0.000147315
0.000149288
0.000150127
0.000150569
0.000150977
0.00015142
0.000151735
0.000151657
0.000151061
0.000150401
0.000150794
0.000151986
0.000153113
0.000153711
0.00015392
0.000153702
0.00015324
0.000153207
0.000153145
0.000153317
0.000154033
0.000154296
0.000153744
0.000152782
0.00014994
0.000143834
0.00013865
0.000139151
0.000143132
0.000151603
0.000157227
0.000162236
0.000170018
0.000183284
0.000197924
0.000141314
3.84073e-05
3.57975e-05
3.85052e-05
4.79558e-05
0.000148177
0.00031044
0.000345549
0.000364223
0.00282002
0.000507179
0.000166287
0.000155992
0.000149396
0.000148276
0.000143361
0.000139745
0.000136745
0.000131017
0.000118591
0.000112995
0.000116945
0.000129352
0.000139553
0.000144262
0.000147956
0.000150321
0.000151652
0.000152206
0.000152376
0.000152377
0.000152157
0.000151497
0.000150423
0.000149108
0.000147325
0.000147367
0.000148368
0.000142673
0.000141311
0.000141187
0.000141446
0.000141977
0.000142197
0.00014153
0.000139903
0.000136676
0.000134306
0.000134376
0.000135609
0.000138486
0.000142283
0.000146141
0.000151273
0.000156173
0.000161578
0.000168669
0.000179543
0.000201572
0.000208983
0.000171488
4.28265e-05
3.52844e-05
3.65125e-05
4.11903e-05
9.93089e-05
0.000274762
0.000307262
0.000329593
0.00280794
0.000475583
0.000190621
0.000184463
0.000178106
0.000172538
0.000166652
0.000160001
0.000151715
0.000145921
0.000142263
0.000140532
0.00014023
0.000141453
0.000143461
0.000144187
0.000143452
0.000141779
0.000139768
0.000138657
0.000138974
0.000140444
0.000142514
0.000144615
0.00014644
0.000147025
0.000139155
0.00013846
0.00013986
0.000143288
0.000146334
0.000144298
0.000127749
0.000117439
0.000128772
0.000140679
0.000140034
0.000131423
0.000124989
0.00013235
0.000142382
0.00014577
0.000146588
0.000146455
0.00014317
0.000150076
0.00015816
0.000168168
0.000180719
0.000191511
0.000196673
0.000164538
4.47207e-05
3.30972e-05
3.39771e-05
3.80513e-05
8.44647e-05
0.000242895
0.000272691
0.000296368
0.00294385
0.000585026
0.000188469
0.000180562
0.0001736
0.000167726
0.000162073
0.000156533
0.000151047
0.000145639
0.000142068
0.000140034
0.000139359
0.000139757
0.000140022
0.000140341
0.000140051
0.00013936
0.000138428
0.000137697
0.000137469
0.0001379
0.000139072
0.000140692
0.000142223
0.000142301
0.000141567
0.000142062
0.000143292
0.000144444
0.000144547
0.000142196
0.000137116
0.000135539
0.000137496
0.000142018
0.000143228
0.000141992
0.000141599
0.0001447
0.00014974
0.00015348
0.000157334
0.000160117
0.000157081
0.000156649
0.000161268
0.00016683
0.000174194
0.000179323
0.000178721
0.000115096
4.1256e-05
3.31419e-05
3.41074e-05
3.8489e-05