/*--------------------------------*- C++ -*----------------------------------*\
| =========                 |                                                 |
| \\      /  F ield         | OpenFOAM: The Open Source CFD Toolbox           |
|  \\    /   O peration     | Version:  2.1.1                                 |
|   \\  /    A nd           | Web:      www.OpenFOAM.org                      |
|    \\/     M anipulation  |                                                 |
\*---------------------------------------------------------------------------*/
FoamFile
{
    version     2.0;
    format      ascii;
    class       volVectorField;
    location    "0.00125";
    object      U;
}
// * * * * * * * * * * * * * * * * * * * * * * * * * * * * * * * * * * * * * //

dimensions      [0 1 -1 0 0 0 0];

internalField   nonuniform List<vector> 
36520
(
(-0.508205 -0.927608 -0.779149)
(-0.415251 -0.0642308 0.000717279)
(-1.70071 0.192402 0.195417)
(-2.18752 0.531727 0.149705)
(-2.64452 0.651173 0.123305)
(-2.89837 0.778791 0.0940626)
(-3.16119 0.997978 0.10896)
(-3.58554 1.29826 0.150373)
(-4.31417 1.58781 0.207825)
(-5.32391 1.68124 0.233673)
(-6.30993 1.41326 0.188784)
(-6.98336 0.864889 0.080935)
(-7.10092 0.197996 -0.0469076)
(-6.74477 -0.321214 -0.143105)
(-6.1133 -0.593636 -0.180642)
(-5.49334 -0.581468 -0.156074)
(-5.0734 -0.400897 -0.106048)
(-4.89372 -0.181253 -0.0594061)
(-4.87277 -0.00284253 -0.0322592)
(-4.92534 0.119989 -0.019005)
(-4.98257 0.198026 -0.0180385)
(-5.03402 0.259269 -0.0168142)
(-5.06959 0.317887 -0.0142729)
(-5.11128 0.384515 -0.00974594)
(-5.16304 0.456834 -0.00225038)
(-5.24606 0.528489 0.0085621)
(-5.36248 0.592079 0.022059)
(-5.52077 0.639991 0.0359927)
(-5.71309 0.670659 0.0493151)
(-5.9374 0.682349 0.0592284)
(-6.17561 0.675317 0.0632767)
(-6.41062 0.65328 0.0592521)
(-6.61494 0.625501 0.0477124)
(-6.77391 0.600823 0.0302263)
(-6.87812 0.591227 0.0130325)
(-6.93884 0.610752 0.0015309)
(-6.97232 0.660795 -0.00300763)
(-7.00773 0.744837 4.74146e-05)
(-7.07415 0.856037 0.0120814)
(-7.20178 0.985774 0.0353228)
(-7.42801 1.11401 0.0714702)
(-7.77232 1.21542 0.125871)
(-8.24389 1.25677 0.204322)
(-8.90778 1.19273 0.31608)
(-9.85122 0.954424 0.469413)
(-11.0452 0.504502 0.643865)
(-12.4308 -0.0961966 0.815912)
(-14.0242 -0.849005 0.93308)
(-15.7191 -1.69734 1.00193)
(-17.0957 -2.71831 0.83861)
(-17.7848 -3.90631 0.510919)
(-17.6233 -5.06248 0.107245)
(-16.2846 -6.13781 -0.220989)
(-14.2811 -6.94802 -0.469802)
(-11.0318 -7.59494 -0.766816)
(-8.00799 -7.60276 -0.779781)
(-4.82788 -7.2095 -0.658879)
(-2.94383 -6.49935 -0.479331)
(-1.23282 -5.93855 -0.360722)
(-0.558453 -5.57926 -0.296133)
(-2.13908 -0.829901 -0.603801)
(-2.83471 0.335129 0.200336)
(-3.78257 0.430669 0.410282)
(-4.26311 0.744013 0.299294)
(-4.68089 0.749519 0.260817)
(-4.91518 0.85133 0.183477)
(-5.1454 1.02614 0.243267)
(-5.52789 1.33929 0.365367)
(-6.26408 1.62476 0.549035)
(-7.27326 1.73245 0.633139)
(-8.28853 1.41674 0.526048)
(-8.95251 0.791203 0.227703)
(-9.03706 0.0434086 -0.106256)
(-8.63932 -0.52097 -0.374016)
(-7.97499 -0.807382 -0.474054)
(-7.34057 -0.766167 -0.40813)
(-6.93267 -0.55151 -0.268737)
(-6.76829 -0.307827 -0.139481)
(-6.76602 -0.121691 -0.0669091)
(-6.82646 -0.00597962 -0.0390808)
(-6.87929 0.0701837 -0.0462322)
(-6.92659 0.124721 -0.0569692)
(-6.94752 0.182303 -0.0620547)
(-6.97999 0.242389 -0.0544845)
(-7.01523 0.309211 -0.0348233)
(-7.08577 0.372416 -0.00431365)
(-7.18271 0.429433 0.0359774)
(-7.32302 0.471166 0.0794063)
(-7.49193 0.498365 0.122719)
(-7.69441 0.505904 0.159936)
(-7.90717 0.493337 0.182536)
(-8.11719 0.465323 0.183805)
(-8.29336 0.429337 0.163237)
(-8.42153 0.396094 0.12893)
(-8.49334 0.378821 0.0985528)
(-8.53038 0.389755 0.0793271)
(-8.53627 0.426448 0.0850787)
(-8.54715 0.492234 0.114375)
(-8.58607 0.579109 0.169141)
(-8.67715 0.685772 0.253168)
(-8.84583 0.796279 0.371844)
(-9.10774 0.888568 0.535796)
(-9.46375 0.937301 0.772651)
(-9.96359 0.886518 1.09265)
(-10.6892 0.659055 1.50072)
(-11.6463 0.247411 1.94136)
(-12.8051 -0.239546 2.346)
(-14.1557 -0.888441 2.65989)
(-15.673 -1.72604 2.6949)
(-17.0558 -2.91604 2.13707)
(-17.9199 -4.35688 1.10186)
(-17.973 -5.83155 0.0642623)
(-16.9627 -7.16657 -0.825367)
(-14.8197 -8.08806 -1.70389)
(-11.2405 -8.47539 -2.39499)
(-8.00532 -8.31801 -2.41985)
(-4.64362 -7.77568 -2.0259)
(-2.82278 -6.92135 -1.45933)
(-1.09009 -6.27584 -1.0909)
(-0.575086 -5.86532 -0.894192)
(-2.58108 -0.769291 -0.130454)
(-3.64249 0.414788 0.485578)
(-4.51445 0.562925 0.664243)
(-4.99027 0.816137 0.497093)
(-5.33323 0.773454 0.433688)
(-5.48787 0.850966 0.302083)
(-5.65424 1.02058 0.396348)
(-5.96693 1.40896 0.572301)
(-6.6991 1.78132 0.851756)
(-7.7544 1.97397 0.983101)
(-8.85984 1.61036 0.811717)
(-9.55997 0.845319 0.354683)
(-9.62319 -0.0706518 -0.152571)
(-9.14187 -0.756854 -0.56253)
(-8.37343 -1.06924 -0.72011)
(-7.66349 -0.976614 -0.612308)
(-7.2368 -0.680697 -0.399099)
(-7.08685 -0.370771 -0.205636)
(-7.10676 -0.151008 -0.101693)
(-7.17835 -0.027534 -0.0586633)
(-7.23248 0.0505045 -0.066358)
(-7.27214 0.0965995 -0.0826706)
(-7.27422 0.152688 -0.0874161)
(-7.29273 0.219445 -0.0710317)
(-7.31008 0.298283 -0.0401725)
(-7.36683 0.370646 0.00808646)
(-7.44774 0.438962 0.0737575)
(-7.57597 0.49007 0.143844)
(-7.73495 0.525953 0.211199)
(-7.93369 0.540252 0.263751)
(-8.14654 0.530917 0.288189)
(-8.35829 0.500476 0.272671)
(-8.53672 0.455388 0.21575)
(-8.66377 0.410536 0.137266)
(-8.73117 0.385513 0.0684007)
(-8.75288 0.39086 0.018761)
(-8.74545 0.430895 0.0057007)
(-8.73661 0.503377 0.0311141)
(-8.75064 0.602948 0.095363)
(-8.80954 0.732253 0.209626)
(-8.93702 0.873039 0.381211)
(-9.14047 1.01029 0.632099)
(-9.412 1.1353 1.00759)
(-9.78309 1.21864 1.52434)
(-10.3035 1.17847 2.16108)
(-10.9414 0.95865 2.83689)
(-11.568 0.568217 3.44792)
(-12.1134 -0.06629 3.90529)
(-12.6783 -0.785917 3.9444)
(-13.0521 -2.02829 3.31838)
(-13.7019 -3.74812 1.88411)
(-15.1573 -5.6481 0.236868)
(-16.1359 -7.39481 -1.00042)
(-15.0907 -8.86973 -2.60861)
(-11.5608 -9.34509 -3.99802)
(-7.92045 -8.93219 -4.10766)
(-4.34676 -8.21249 -3.3897)
(-2.52311 -7.18413 -2.39173)
(-0.906772 -6.43593 -1.76014)
(-0.509911 -5.97896 -1.43296)
(-2.7319 -0.753315 0.400517)
(-3.84027 0.519148 0.696746)
(-4.72433 0.731039 0.813297)
(-5.23555 0.908257 0.60493)
(-5.54129 0.87577 0.525966)
(-5.6323 0.915146 0.376288)
(-5.70896 1.11213 0.497975)
(-5.95494 1.59028 0.700302)
(-6.69299 2.11234 1.06351)
(-7.8567 2.40726 1.21922)
(-9.11325 1.99285 1.01543)
(-9.8777 1.00058 0.448758)
(-9.91278 -0.185074 -0.158542)
(-9.32045 -1.07517 -0.648438)
(-8.4017 -1.44466 -0.837867)
(-7.58604 -1.2813 -0.689768)
(-7.12483 -0.863514 -0.422277)
(-6.99483 -0.473196 -0.183144)
(-7.03976 -0.217494 -0.0658356)
(-7.13208 -0.0855208 -0.0267754)
(-7.18241 -0.0054104 -0.056376)
(-7.21475 0.0525522 -0.106182)
(-7.19621 0.13163 -0.142071)
(-7.19661 0.227123 -0.150684)
(-7.19459 0.324745 -0.123871)
(-7.22866 0.417429 -0.0585449)
(-7.28855 0.508269 0.0372698)
(-7.39854 0.579101 0.143702)
(-7.54032 0.631159 0.249595)
(-7.72226 0.660424 0.338662)
(-7.9208 0.665189 0.389854)
(-8.11702 0.645913 0.379369)
(-8.27753 0.609762 0.301116)
(-8.38501 0.567877 0.17118)
(-8.43874 0.546322 0.0363412)
(-8.4509 0.561561 -0.0643556)
(-8.44172 0.610401 -0.108617)
(-8.43267 0.69425 -0.0939187)
(-8.43397 0.804939 -0.0291673)
(-8.46292 0.945313 0.0947565)
(-8.53189 1.09825 0.285917)
(-8.62995 1.2604 0.562013)
(-8.71634 1.45215 0.971701)
(-8.75347 1.66054 1.53175)
(-8.71864 1.80812 2.16879)
(-8.48332 1.78968 2.90543)
(-7.78258 1.57975 3.58999)
(-6.4925 1.09834 4.08423)
(-4.75477 0.408869 4.28223)
(-3.68673 -0.687171 3.97136)
(-3.95482 -2.31408 2.7188)
(-6.34773 -4.26209 0.997621)
(-10.8766 -6.82767 -0.608603)
(-13.1445 -9.00338 -2.62861)
(-11.5655 -10.4643 -5.33811)
(-7.77521 -10.0065 -6.02199)
(-3.86233 -8.96381 -4.81201)
(-2.04242 -7.60307 -3.27273)
(-0.625697 -6.68593 -2.36927)
(-0.411485 -6.15478 -1.91417)
(-2.64592 -0.417144 1.06115)
(-3.96613 0.686989 0.991617)
(-4.84951 0.869967 1.04963)
(-5.34077 0.998894 0.797512)
(-5.58848 0.934074 0.67314)
(-5.64974 0.872216 0.526804)
(-5.6298 1.07211 0.711561)
(-5.84209 1.70504 0.921039)
(-6.5915 2.47099 1.26093)
(-7.87097 2.97505 1.3658)
(-9.25236 2.56139 1.07646)
(-10.0433 1.31154 0.416168)
(-10.0099 -0.225972 -0.225074)
(-9.29465 -1.4004 -0.684201)
(-8.20572 -1.83085 -0.875784)
(-7.26277 -1.56162 -0.701961)
(-6.75661 -0.974789 -0.414395)
(-6.64205 -0.469012 -0.176372)
(-6.69624 -0.162126 -0.0726295)
(-6.79021 -0.025873 -0.0607673)
(-6.81377 0.0480288 -0.120271)
(-6.79896 0.100401 -0.187803)
(-6.72681 0.182511 -0.2391)
(-6.6658 0.284823 -0.244028)
(-6.59264 0.403475 -0.205069)
(-6.55306 0.52784 -0.127495)
(-6.54602 0.648687 -0.00630088)
(-6.58064 0.743905 0.139232)
(-6.63996 0.8156 0.277375)
(-6.7235 0.858732 0.383404)
(-6.80665 0.867464 0.425198)
(-6.87095 0.839026 0.379186)
(-6.90148 0.785294 0.239041)
(-6.91928 0.72664 0.039202)
(-6.96724 0.696663 -0.154521)
(-7.05021 0.724835 -0.299211)
(-7.15298 0.820792 -0.369924)
(-7.24119 0.986505 -0.37561)
(-7.29989 1.18429 -0.333295)
(-7.35611 1.42328 -0.212385)
(-7.39386 1.70276 -0.0215352)
(-7.40223 2.00194 0.216043)
(-7.35725 2.37991 0.601233)
(-7.25722 2.85795 1.08857)
(-7.05915 3.33407 1.6223)
(-6.72179 3.75713 2.22376)
(-5.97655 3.93803 2.91637)
(-4.57871 3.73471 3.51132)
(-2.40287 3.01363 3.98739)
(1.26736 1.30764 4.05963)
(3.84587 -0.425786 3.16865)
(3.05572 -1.72566 2.03244)
(0.343983 -3.74229 0.858461)
(-4.82388 -7.20715 -1.59604)
(-8.10305 -10.1978 -5.63879)
(-7.31664 -11.2874 -8.0255)
(-3.13976 -10.0176 -6.35134)
(-1.34331 -8.15102 -4.03581)
(-0.250552 -7.00913 -2.85444)
(-0.280014 -6.38097 -2.28431)
(-3.0261 -0.0521588 1.26344)
(-4.09646 0.890312 1.02473)
(-4.95928 1.11193 1.13856)
(-5.50889 1.18792 0.8498)
(-5.72944 1.09615 0.794247)
(-5.72183 0.999436 0.68037)
(-5.50113 1.30606 0.893734)
(-5.57825 2.13515 1.06629)
(-6.19122 3.16425 1.32821)
(-7.41755 3.84759 1.31875)
(-8.79791 3.38029 0.937186)
(-9.50999 1.76368 0.303758)
(-9.2903 -0.277918 -0.254029)
(-8.56161 -1.84465 -0.568222)
(-7.4762 -2.32929 -0.671912)
(-6.45072 -1.89041 -0.50857)
(-5.8923 -1.13547 -0.266702)
(-5.74457 -0.545501 -0.0906954)
(-5.7373 -0.233291 -0.0171699)
(-5.71918 -0.105835 -0.0154709)
(-5.58657 -0.061203 -0.0849156)
(-5.40097 -0.0277733 -0.196414)
(-5.15601 0.0675297 -0.312139)
(-4.90829 0.222583 -0.406319)
(-4.63275 0.410638 -0.460693)
(-4.37091 0.581667 -0.429035)
(-4.14731 0.731427 -0.291475)
(-3.91943 0.83709 -0.106544)
(-3.69704 0.904758 0.0651143)
(-3.43715 0.934208 0.207898)
(-3.1333 0.89968 0.29906)
(-2.76161 0.790044 0.302373)
(-2.42187 0.633899 0.20119)
(-2.20924 0.482108 0.0103361)
(-2.24067 0.380748 -0.245808)
(-2.49213 0.40094 -0.504085)
(-2.83279 0.526816 -0.707076)
(-3.14466 0.720261 -0.826949)
(-3.38293 0.97175 -0.92427)
(-3.66442 1.27814 -0.954665)
(-3.84798 1.61262 -0.865314)
(-3.88849 1.93537 -0.676225)
(-3.87178 2.32785 -0.294419)
(-3.70117 2.92352 0.303875)
(-3.18066 3.46812 0.844491)
(-2.46673 3.84419 1.33332)
(-1.21343 4.03727 1.83593)
(0.864471 3.7101 2.34078)
(3.94208 2.52472 2.57528)
(7.54675 0.734983 2.59554)
(9.9414 -0.331657 2.37744)
(11.5039 -1.09008 1.10536)
(11.6601 -1.98019 -0.0409845)
(10.6697 -3.27505 -1.12368)
(6.75324 -5.7855 -3.79311)
(-3.87784 -11.0994 -8.59908)
(-2.03495 -11.3283 -7.94004)
(-0.355495 -8.81482 -4.6331)
(0.221382 -7.38702 -3.18835)
(-0.118793 -6.64153 -2.52585)
(-3.21272 1.79987 2.06868)
(-4.15827 1.11222 1.30748)
(-4.99615 1.37768 1.34558)
(-5.47116 1.44197 0.982613)
(-5.4872 1.28784 0.864959)
(-5.26183 1.05549 0.757273)
(-4.66854 1.30501 1.14104)
(-4.40074 2.25757 1.44633)
(-4.57383 3.53646 1.61657)
(-5.25777 4.38046 1.35818)
(-5.90963 3.99893 0.753866)
(-5.79657 2.11473 0.100286)
(-5.25926 -0.472038 -0.326839)
(-4.84889 -2.39655 -0.246997)
(-4.44815 -2.9665 -0.0263853)
(-3.78618 -2.21227 0.0115429)
(-3.27907 -1.16812 -0.00911012)
(-3.09459 -0.435991 0.0185598)
(-2.94523 -0.0882157 0.0129779)
(-2.76768 0.0264059 -0.0645967)
(-2.48509 0.049801 -0.232682)
(-2.19667 0.091233 -0.449893)
(-1.83048 0.202641 -0.648632)
(-1.43127 0.368218 -0.791261)
(-0.993491 0.549878 -0.870495)
(-0.586116 0.729621 -0.841802)
(-0.269095 0.935052 -0.718864)
(0.113243 1.11397 -0.516458)
(0.571094 1.21294 -0.279681)
(1.14696 1.24234 -0.0956938)
(1.77498 1.19169 0.00145026)
(2.46747 1.05666 0.0303618)
(3.16455 0.850317 0.0117722)
(3.74685 0.615169 -0.0544556)
(4.11329 0.400869 -0.15354)
(4.25572 0.251487 -0.290349)
(4.1929 0.215193 -0.44668)
(3.89674 0.303643 -0.630972)
(3.69679 0.498326 -0.829085)
(3.43512 0.797535 -1.05354)
(3.09926 1.20506 -1.2122)
(3.03973 1.57627 -1.32238)
(2.76317 1.9668 -1.19775)
(2.84586 2.43986 -0.798299)
(3.94582 2.77481 -0.523483)
(5.47978 2.99205 -0.291828)
(6.59872 3.10539 0.297237)
(7.25305 2.92623 1.24003)
(8.14444 2.48319 1.82072)
(9.67856 1.89552 2.39402)
(14.7458 0.692914 1.17556)
(17.7953 -0.297732 -0.257459)
(18.5017 -0.952043 -0.910187)
(18.1214 -1.59154 -1.3923)
(16.6934 -2.47754 -2.19183)
(8.58774 -6.45673 -5.28652)
(-0.167917 -12.2827 -8.32911)
(0.939495 -9.59967 -5.00438)
(0.789231 -7.78716 -3.32012)
(0.0673274 -6.90949 -2.60369)
(-3.86481 1.27111 1.34534)
(-4.33059 1.33114 0.632642)
(-4.30334 2.00089 0.919005)
(-4.46531 1.79353 0.379761)
(-3.5721 1.09926 0.761979)
(-2.53896 0.423388 1.17179)
(-1.1495 0.665642 1.82094)
(0.137403 1.95829 2.06791)
(1.21207 3.49743 1.86547)
(1.92874 4.51567 1.1214)
(2.80205 4.35355 0.0804072)
(4.052 2.75812 -0.778941)
(4.58383 0.628214 -1.08011)
(4.23953 -1.41501 -0.498563)
(3.41626 -2.23277 0.384725)
(3.53949 -1.95446 0.717596)
(4.21928 -1.22158 0.509301)
(4.60506 -0.643441 0.230164)
(4.81914 -0.460576 0.056736)
(4.89739 -0.526248 -0.0436815)
(4.9718 -0.684757 -0.160829)
(4.95485 -0.757445 -0.33038)
(4.92065 -0.638675 -0.565417)
(4.86468 -0.297554 -0.856627)
(4.86585 0.180756 -1.08384)
(5.01034 0.61492 -1.14103)
(5.29002 0.945599 -1.04043)
(5.63606 1.18625 -0.861637)
(6.03406 1.34626 -0.646241)
(6.66543 1.43195 -0.424715)
(7.41121 1.42971 -0.235803)
(8.20397 1.31293 -0.118198)
(9.01383 1.10144 -0.0705105)
(9.75541 0.83932 -0.0951676)
(10.3546 0.570061 -0.168675)
(10.7428 0.352071 -0.25126)
(10.9273 0.222386 -0.363565)
(10.9008 0.201023 -0.465584)
(10.8915 0.232019 -0.686861)
(10.7689 0.400506 -0.960913)
(10.5672 0.710066 -1.25746)
(10.6101 1.11519 -1.57064)
(10.4253 1.6841 -1.79131)
(10.5367 2.29832 -1.88087)
(11.4109 2.67463 -1.94294)
(12.3836 3.09345 -1.554)
(12.9338 3.30992 -0.553344)
(13.4653 3.21766 0.424751)
(14.1091 3.01069 0.280146)
(15.6982 2.64825 -0.843843)
(21.1217 1.49123 -1.27105)
(21.7548 -0.363364 -0.765741)
(21.2977 -0.903732 -0.896132)
(20.6409 -1.358 -1.17252)
(19.559 -1.99391 -1.63902)
(15.2351 -4.52282 -3.23125)
(2.96363 -12.2936 -6.72917)
(2.28721 -10.4636 -5.00235)
(1.43959 -8.17623 -3.25682)
(0.273145 -7.15357 -2.53573)
(-3.50027 17.3308 3.8224)
(-4.41519 4.48787 0.786378)
(-3.15834 1.53518 0.894187)
(-2.49801 0.818867 0.169476)
(-1.07972 0.460692 0.305712)
(0.799169 0.777519 0.557653)
(3.64521 0.96843 1.02859)
(7.18295 0.991377 1.26909)
(11.0555 1.06302 1.14168)
(14.4975 0.957231 0.639062)
(16.3337 0.470335 0.0840224)
(16.6103 -0.00956006 -0.212585)
(15.8778 -0.437704 -0.341105)
(14.2496 -0.686098 -0.339467)
(13.7798 -0.691146 -0.0862692)
(14.5771 -0.708522 0.212433)
(15.8142 -0.549398 0.286979)
(16.6683 -0.361731 0.205911)
(17.0785 -0.264812 0.141015)
(17.1153 -0.217483 0.14596)
(16.9343 -0.190044 0.186394)
(16.432 -0.162796 0.20673)
(15.6857 -0.0700925 0.0531356)
(14.6335 0.140427 -0.345152)
(13.5232 0.419685 -0.870487)
(12.8908 0.593192 -1.23088)
(12.8755 0.624285 -1.28965)
(13.2459 0.565355 -1.09709)
(13.7957 0.488676 -0.772868)
(14.4111 0.449639 -0.55266)
(15.1966 0.385673 -0.397328)
(16.056 0.27268 -0.258334)
(16.952 0.157812 -0.164772)
(17.7966 0.111894 -0.13272)
(18.476 0.11502 -0.135078)
(18.9212 0.0936786 -0.118809)
(19.1698 0.0609827 -0.0758205)
(19.268 0.0466941 -0.0651012)
(19.2691 0.0526232 -0.0819387)
(19.1846 0.0705044 -0.105229)
(18.9845 0.114147 -0.197287)
(18.7852 0.218511 -0.407821)
(18.6939 0.380339 -0.720035)
(18.8012 0.606255 -1.08785)
(19.25 0.885733 -1.52044)
(19.8937 1.07575 -1.486)
(20.6148 1.14337 -0.459917)
(22.6857 1.08696 0.769335)
(25.5715 0.507957 0.718421)
(26.2776 0.0334514 -0.112963)
(25.2837 0.312469 -1.29291)
(24.1401 -0.119012 -0.523085)
(22.6026 -0.760182 -0.551767)
(21.6634 -1.13514 -0.739937)
(20.5577 -1.67707 -1.03109)
(17.6398 -3.8888 -1.99889)
(6.41083 -12.221 -4.71585)
(3.86098 -11.5305 -4.21731)
(2.2085 -8.82334 -2.77997)
(0.506672 -7.62728 -2.15635)
(-2.33404 19.4206 6.92194)
(-3.37107 3.68608 2.07511)
(-1.4877 1.2034 1.30065)
(-0.374692 0.899489 0.326403)
(1.74639 0.225971 -0.0898547)
(3.39115 0.0408804 -0.440166)
(5.57587 0.250869 -0.434664)
(8.67433 0.817472 0.0498656)
(11.6789 0.76042 0.799792)
(14.0533 0.36404 1.34457)
(15.958 0.014686 1.11337)
(17.3962 -0.116953 0.552704)
(17.7939 -0.335812 0.190692)
(17.6947 -0.426819 -0.265304)
(17.8476 -0.332964 -0.799792)
(18.8761 -0.228631 -0.99532)
(20.1303 -0.202435 -0.77378)
(20.8152 -0.177574 -0.355202)
(20.9722 -0.150769 0.00262261)
(20.837 -0.14394 0.229087)
(20.627 -0.158504 0.35719)
(20.4423 -0.173844 0.414154)
(20.2469 -0.178548 0.398118)
(19.8732 -0.14921 0.301527)
(18.9971 -0.0136586 0.00288465)
(17.419 0.233161 -0.614078)
(15.8715 0.456469 -1.09395)
(15.3201 0.514436 -1.09057)
(15.5251 0.404415 -0.883499)
(16.361 0.241688 -0.540623)
(17.3529 0.135094 -0.283198)
(18.3781 0.0528127 -0.157228)
(19.3631 0.00148087 -0.123533)
(20.1811 0.00979639 -0.12793)
(20.6942 0.0391545 -0.152437)
(20.9272 0.0515511 -0.178761)
(21.0585 0.0493952 -0.188418)
(21.152 0.0404625 -0.164053)
(21.1847 0.0421757 -0.155661)
(21.1824 0.0439863 -0.149069)
(21.1741 0.0531624 -0.153991)
(21.1175 0.0684064 -0.222334)
(20.9941 0.131646 -0.458298)
(20.9439 0.271473 -0.720385)
(21.0916 0.437212 -0.831429)
(21.6784 0.542107 -0.59561)
(23.4421 0.357454 0.163861)
(27.2083 -0.0262706 0.839161)
(29.6515 -0.195558 0.853594)
(29.5973 -0.0884613 0.533115)
(27.9771 0.76775 -0.3735)
(24.2872 -0.179731 -0.0554875)
(22.752 -0.722858 -0.211638)
(21.7371 -1.10181 -0.434329)
(20.5672 -1.67142 -0.784343)
(17.61 -3.98013 -1.73943)
(6.6503 -12.4126 -3.4967)
(4.03561 -11.8546 -2.94081)
(2.33953 -9.11105 -1.99501)
(0.552541 -7.86818 -1.58541)
(-1.90988 11.2773 4.85573)
(-2.37035 1.9209 2.10866)
(0.653127 0.653104 0.940589)
(1.51833 0.504923 0.207166)
(2.41788 0.247992 -0.0253156)
(3.17286 0.199705 -0.509493)
(5.26849 0.532493 -0.71435)
(8.68979 1.17868 -0.194037)
(12.7804 1.59964 1.25896)
(16.4467 1.213 2.10056)
(19.0621 0.48053 1.1157)
(20.3953 0.0742112 0.0674435)
(20.5532 -0.155447 -0.377899)
(20.0541 -0.31471 -0.772909)
(19.0231 -0.196389 -1.55555)
(19.1085 -0.262975 -2.07736)
(20.3185 -0.456255 -1.72985)
(21.5502 -0.342017 -0.76853)
(21.9288 -0.191665 -0.0801108)
(21.8565 -0.121051 0.216294)
(21.6678 -0.104055 0.327215)
(21.4793 -0.109555 0.352847)
(21.2962 -0.114873 0.311673)
(21.0489 -0.119041 0.230463)
(20.5529 -0.137485 0.160839)
(19.4239 -0.181525 -0.00449633)
(17.2255 -0.166183 -0.339717)
(15.4027 -0.0125434 -0.715045)
(14.9551 0.168123 -0.815677)
(15.2404 0.235848 -0.741895)
(16.3643 0.25065 -0.528785)
(17.8737 0.22083 -0.319195)
(19.3617 0.153798 -0.180842)
(20.5758 0.0902928 -0.0979493)
(21.3205 0.0539745 -0.0636972)
(21.5599 0.0507101 -0.087018)
(21.5603 0.0505189 -0.123611)
(21.5359 0.0328453 -0.145226)
(21.5412 0.0208691 -0.12267)
(21.5637 -0.0208661 -0.0442041)
(21.6314 -0.0696909 -0.00107019)
(21.6377 -0.110922 0.00224296)
(21.6034 -0.117466 -0.026479)
(21.3852 -0.0212922 -0.0744805)
(21.0842 0.396375 -0.180517)
(21.4041 1.22789 -0.207677)
(22.993 2.09954 -0.0626247)
(27.2461 1.67268 0.361568)
(30.0147 0.332193 0.514598)
(29.6106 -0.199626 0.613286)
(27.7945 0.376619 1.27588)
(24.155 -0.286354 0.363908)
(22.8386 -0.783993 0.0352602)
(21.8655 -1.1941 -0.20776)
(20.6307 -1.81559 -0.630522)
(16.9266 -4.62635 -1.84212)
(6.64785 -12.6268 -2.47125)
(4.30086 -12.073 -1.87425)
(2.48234 -9.35952 -1.25461)
(0.592214 -8.07971 -1.01459)
(-3.25778 1.71225 2.75729)
(-3.57385 1.06529 1.58791)
(-1.40667 1.47908 1.19273)
(-1.70644 0.854568 0.719791)
(-0.193133 0.219998 0.113206)
(0.975546 0.306106 -0.747703)
(2.85522 1.20015 -1.11263)
(5.09431 2.45471 -0.686182)
(8.10018 3.60114 0.888509)
(13.5016 3.5626 2.45751)
(20.6319 1.23619 1.68069)
(23.5035 -0.433196 0.470802)
(23.7711 -1.0439 -0.0897385)
(23.2272 -1.33404 -0.603775)
(20.8579 -1.13541 -1.57466)
(17.7563 -0.803639 -3.00868)
(17.5336 -0.751599 -2.90167)
(17.9408 -0.420793 -1.58896)
(18.2174 -0.191916 -0.312414)
(18.174 -0.115867 0.299925)
(18.007 -0.127006 0.523811)
(17.7581 -0.168055 0.578583)
(17.3022 -0.21175 0.553844)
(16.5994 -0.291197 0.529538)
(15.772 -0.458516 0.552911)
(14.8766 -0.713135 0.503582)
(14.0154 -0.86197 0.066437)
(13.4537 -0.537321 -0.480709)
(13.1694 0.0265891 -0.666589)
(13.34 0.39454 -0.621545)
(13.8987 0.636328 -0.473979)
(14.7322 0.76554 -0.331048)
(15.6439 0.699883 -0.288661)
(16.4274 0.499496 -0.276116)
(16.9098 0.32834 -0.224276)
(17.0819 0.189037 -0.192236)
(17.0886 0.0572227 -0.24729)
(16.9949 -0.0239094 -0.267583)
(16.9978 -0.02591 -0.21912)
(16.9654 0.0414823 -0.0700099)
(16.9429 0.0414533 0.0465284)
(16.8715 0.0108415 0.166112)
(16.7996 0.079212 0.314602)
(16.9455 0.12108 0.419956)
(17.2584 0.382102 0.58646)
(17.7141 1.43374 0.932324)
(19.3801 3.27961 1.25296)
(23.4536 3.43491 1.21801)
(28.1247 0.969762 0.928489)
(27.8616 -1.20508 0.929367)
(26.7186 -1.35508 1.15966)
(24.0125 -0.692761 0.312022)
(22.7071 -1.03256 0.103925)
(21.8851 -1.37005 0.032773)
(20.9673 -1.84258 -0.0605182)
(18.4175 -3.57373 -0.37579)
(7.23199 -11.542 -0.510086)
(3.97596 -11.576 -0.420087)
(2.30367 -9.25182 -0.359405)
(0.535445 -8.03972 -0.339609)
(-3.31684 1.23414 -2.47363)
(-3.92548 1.1758 -0.302778)
(-2.42758 2.2074 0.259776)
(-2.82053 1.89796 1.01641)
(-1.14942 1.23089 0.984886)
(0.880166 0.795922 0.0788675)
(3.93649 1.32845 -0.485322)
(7.13045 2.45677 -0.194175)
(10.6355 3.67848 1.47115)
(16.8199 3.13998 2.53904)
(22.5705 0.733661 1.31089)
(25.2759 -1.05968 0.151561)
(25.9166 -1.67568 -0.294056)
(25.7305 -1.86188 -0.486531)
(24.899 -1.79824 -0.830453)
(22.3879 -1.3993 -1.92097)
(19.0589 -0.919471 -2.88488)
(18.3205 -0.399824 -1.58643)
(17.9545 -0.0165217 -0.0493914)
(17.7156 0.0678213 0.59982)
(17.508 0.0480842 0.781506)
(17.2729 -0.028047 0.771889)
(16.8501 -0.128157 0.63155)
(16.2403 -0.263 0.364309)
(15.6307 -0.460386 -0.0524092)
(14.9595 -0.714852 -0.565944)
(13.9643 -0.85976 -0.835683)
(13.0357 -0.591574 -0.613658)
(12.5362 -0.0197428 -0.256221)
(12.5314 0.48119 -0.0514133)
(13.0291 0.760675 0.0966677)
(14.014 0.754177 0.224709)
(15.0719 0.609878 0.300712)
(15.938 0.434362 0.313474)
(16.4842 0.244866 0.246971)
(16.6793 0.116474 0.106591)
(16.6462 0.10775 0.0180849)
(16.3597 0.14811 -0.0264323)
(16.1741 0.140974 0.0157764)
(16.08 0.126912 0.232238)
(15.8613 0.157406 0.483917)
(15.6708 0.223991 0.67778)
(15.3207 0.368956 0.948594)
(15.0175 0.709558 1.44237)
(15.2118 1.30146 2.09593)
(16.3099 2.23436 2.68881)
(19.1539 3.13006 3.19074)
(24.0344 2.66354 3.14391)
(27.8173 0.31305 1.64499)
(27.0847 -1.48892 0.802269)
(26.0102 -1.41547 1.2505)
(23.9912 -0.622898 0.48411)
(22.6994 -1.00358 0.104884)
(21.873 -1.36899 0.0364506)
(20.9327 -1.88537 0.136465)
(18.3251 -3.65289 0.728475)
(7.01942 -11.3942 1.89573)
(3.87005 -11.5139 0.896775)
(2.26249 -9.24281 0.371175)
(0.525845 -8.04346 0.222875)
(-1.50833 11.3493 -4.40528)
(-1.01518 0.819284 0.268614)
(0.676428 1.24393 2.11487)
(2.02403 1.20804 3.10193)
(5.55971 0.486368 2.17666)
(8.33662 -0.123935 0.482361)
(9.27259 0.363282 -0.553495)
(10.6852 2.00556 -0.925411)
(14.2954 4.72898 -0.935439)
(20.1007 5.14666 -1.06645)
(27.2293 1.47281 -0.360613)
(29.8507 -1.07524 -0.0821148)
(29.908 -1.74485 -0.0469284)
(29.3177 -2.07067 -0.0602705)
(28.6775 -2.04022 -0.294598)
(27.6413 -1.89296 -0.722445)
(24.6319 -1.54053 -1.73948)
(21.8166 -0.655294 -1.75993)
(21.3659 -0.127545 -0.299727)
(21.1836 0.0218418 0.330093)
(21.1202 0.0368029 0.483884)
(21.0566 0.0302199 0.496678)
(20.9702 0.0106604 0.411487)
(20.8226 -0.0424813 0.231958)
(20.4751 -0.114868 0.0223266)
(19.6294 -0.207043 -0.107175)
(17.5103 -0.193895 -0.059155)
(14.8684 0.0272059 0.0851516)
(13.7537 0.289797 0.210362)
(13.7837 0.392287 0.236969)
(14.5394 0.386634 0.187752)
(16.1301 0.267597 0.124309)
(17.8202 0.160442 0.0764541)
(19.2745 0.0818325 0.0215493)
(20.2028 0.0245098 0.00321891)
(20.6092 -0.0167927 0.00935985)
(20.6827 -0.0509221 0.0105014)
(20.6403 -0.0701697 0.0372739)
(20.5174 -0.0707357 0.11981)
(20.2961 -0.0533055 0.302157)
(20.2514 -0.0675009 0.500379)
(20.1143 -0.060728 0.762067)
(19.6253 0.0304876 1.20071)
(18.2532 0.436188 2.01748)
(16.9047 1.18323 2.98398)
(17.188 1.80027 3.50121)
(18.6656 2.56175 3.59386)
(22.3917 2.40727 3.20473)
(25.5024 0.505804 1.78642)
(24.6611 -0.98312 0.687743)
(24.3253 -0.65953 0.590768)
(23.5363 -0.500349 0.280111)
(22.6653 -0.801293 0.131373)
(21.6883 -1.20919 0.208736)
(20.2367 -2.00725 0.68813)
(14.7497 -5.8335 2.75176)
(5.0695 -12.7439 3.80349)
(3.65425 -11.9347 2.26114)
(2.27294 -9.34172 1.21652)
(0.546116 -8.08908 0.868477)
(-2.11457 18.6857 -6.05044)
(-1.98565 4.30717 -0.598501)
(2.90148 1.38939 1.23587)
(10.7796 0.707358 0.734472)
(20.0109 -0.527041 -0.261951)
(24.508 -1.37888 -0.358125)
(25.5897 -1.17335 -0.116563)
(24.9728 -0.816385 0.515465)
(24.4556 0.561465 1.49764)
(26.6307 1.98259 -0.405359)
(29.73 1.75822 -3.04456)
(32.0517 -0.151004 -2.28877)
(33.1756 -1.63205 -0.97559)
(33.4351 -2.22851 -0.308283)
(32.9671 -2.40394 -0.043372)
(31.4 -2.30934 0.134167)
(27.8828 -2.22303 0.425907)
(20.4154 -1.69206 0.826524)
(18.1163 -0.425326 0.803653)
(17.5829 0.0504911 0.834481)
(17.5557 0.129691 0.813217)
(17.4849 0.128357 0.751457)
(17.1445 0.107954 0.641419)
(16.2053 0.0642535 0.443204)
(14.7435 0.0633536 0.275525)
(12.9862 0.166044 0.445915)
(11.5737 0.352276 0.796982)
(11.0643 0.419518 0.862994)
(11.138 0.391873 0.68461)
(11.6506 0.352301 0.424219)
(12.4287 0.283035 0.169729)
(13.3161 0.185807 -0.000674521)
(14.2192 0.0928477 -0.0449247)
(14.936 0.0309073 0.0331213)
(15.2385 0.0381189 0.177748)
(15.2376 0.081202 0.28345)
(14.9977 0.12372 0.388712)
(14.5081 0.204148 0.541838)
(14.2258 0.28261 0.766892)
(14.1676 0.393203 1.11191)
(14.4794 0.492283 1.53723)
(14.6638 0.70818 2.09489)
(14.7197 1.12639 2.84882)
(14.8885 1.68853 3.65539)
(15.3646 2.08774 4.23979)
(16.3543 2.39378 4.64118)
(17.8344 2.68971 4.3842)
(20.5071 2.4772 3.30653)
(23.7245 0.906991 1.6504)
(24.1439 -0.564364 0.339367)
(24.0133 -0.495983 0.269024)
(23.25 -0.68659 0.278766)
(22.2413 -0.978802 0.343949)
(21.0131 -1.38309 0.526455)
(18.8998 -2.43728 1.09196)
(9.28641 -8.79145 3.2981)
(3.14787 -13.672 4.13607)
(2.86161 -11.6536 2.89025)
(1.99443 -9.11294 1.83032)
(0.475628 -7.91146 1.3916)
(-3.18294 15.5104 -3.56361)
(-3.16506 3.74737 -1.80671)
(1.26754 0.884349 -3.17088)
(8.1137 -0.555954 -2.61974)
(11.0179 -1.02909 -1.47093)
(10.4699 -0.643763 -0.0829506)
(10.0591 0.492819 0.959967)
(12.3072 3.61385 0.488878)
(17.496 5.60929 -1.20612)
(26.6779 3.47295 -2.2593)
(31.5401 -0.379983 -1.61829)
(31.4493 -1.7597 -0.840226)
(29.8042 -1.82449 -0.462141)
(27.8779 -1.05836 0.0330061)
(26.5633 -0.475831 0.810547)
(23.8843 -0.298484 1.9743)
(16.1884 0.0863405 3.49005)
(12.6494 0.078274 2.64427)
(11.8932 0.171761 1.32931)
(11.9061 0.192485 0.864089)
(12.3257 0.160967 0.785146)
(12.6429 0.204057 0.828273)
(12.6348 0.255904 0.896483)
(12.2534 0.305641 1.00264)
(11.264 0.354924 1.05576)
(10.1096 0.408013 0.974299)
(9.51907 0.407012 0.84605)
(9.61247 0.376236 0.765607)
(10.1273 0.341176 0.66731)
(10.6578 0.345249 0.602745)
(11.0283 0.35826 0.506985)
(11.3306 0.304935 0.393541)
(11.5568 0.233021 0.353077)
(11.6135 0.263376 0.396121)
(11.6287 0.315527 0.498741)
(11.7681 0.317335 0.602424)
(11.8572 0.360018 0.763386)
(11.996 0.428942 0.8674)
(12.1216 0.542938 0.977487)
(12.3329 0.674059 1.13226)
(12.8504 0.802329 1.29562)
(13.573 1.1456 1.78522)
(14.2704 1.63485 2.752)
(15.3761 2.14941 3.93416)
(16.5245 2.57544 4.66697)
(18.0158 2.85723 4.95038)
(19.6021 3.00804 4.68096)
(22.2891 2.6239 3.60075)
(24.4967 0.710464 1.5296)
(23.9693 -0.891758 -0.120219)
(23.7556 -0.650611 -0.137235)
(22.7809 -0.778936 0.278583)
(21.9853 -0.982641 0.549314)
(20.9601 -1.30506 0.860035)
(19.0257 -2.29666 1.38572)
(8.77464 -9.33349 3.31072)
(2.89163 -14.0532 4.12467)
(2.66461 -11.4006 3.49128)
(1.84976 -8.87179 2.41281)
(0.422458 -7.70243 1.88994)
(-4.09213 0.555808 -2.07569)
(-4.31657 0.799224 -1.75305)
(-4.42469 1.07199 -2.6582)
(-4.64389 0.533201 -1.9035)
(-3.25581 -0.165383 -0.8274)
(-1.83786 -0.106389 -0.162624)
(0.0937322 0.374727 -0.968344)
(1.85875 0.832443 -2.55578)
(3.21484 1.02735 -4.58932)
(5.35633 0.914313 -5.36013)
(10.4333 0.0487603 -3.90453)
(14.0474 -0.89323 -1.41793)
(14.2885 -1.14974 0.341127)
(11.6309 -0.322695 1.17377)
(7.86912 1.12904 2.74393)
(5.24448 1.95316 4.88147)
(4.52455 1.98132 4.54081)
(4.71731 1.76852 2.69655)
(4.87111 1.42948 1.40077)
(4.98631 0.986074 0.853947)
(5.26717 0.516856 0.712484)
(5.57823 0.100615 0.802306)
(5.70141 -0.260267 1.00033)
(5.66608 -0.583931 1.19937)
(5.55597 -0.73413 1.30247)
(5.52163 -0.606632 1.26524)
(5.68537 -0.16991 1.0415)
(5.98827 0.371779 0.792977)
(6.35796 0.834858 0.655374)
(6.77368 1.11414 0.604779)
(7.19333 1.17234 0.530071)
(7.64711 1.02728 0.435089)
(8.19096 0.715221 0.412538)
(8.8029 0.386718 0.460844)
(9.29335 0.0987487 0.516324)
(9.5551 -0.101721 0.626027)
(9.71923 -0.213681 0.818281)
(9.8672 -0.240779 1.05596)
(10.0082 -0.174228 1.3106)
(10.26 0.0714229 1.57529)
(10.5694 0.487268 1.91718)
(11.0011 1.2922 2.56177)
(11.614 2.28544 3.31404)
(12.8878 3.18554 4.01172)
(14.6037 3.72163 4.46508)
(16.5003 3.98835 4.55178)
(18.7842 3.99804 3.66499)
(21.4015 2.69217 1.78412)
(22.3841 0.142104 0.334644)
(21.7094 -1.25357 -0.0887684)
(21.5496 -0.933736 -0.0978033)
(21.3525 -0.825576 0.244119)
(20.8932 -1.05347 0.797298)
(20.0653 -1.50586 1.41949)
(18.4231 -2.46691 2.17844)
(10.2918 -7.96757 4.20142)
(1.98091 -13.7569 4.94362)
(1.87716 -10.6151 3.97507)
(1.32313 -8.28847 2.78484)
(0.239782 -7.23898 2.22124)
(-3.62565 1.61351 -2.06397)