/*--------------------------------*- C++ -*----------------------------------*\
| =========                 |                                                 |
| \\      /  F ield         | OpenFOAM: The Open Source CFD Toolbox           |
|  \\    /   O peration     | Version:  2.1.1                                 |
|   \\  /    A nd           | Web:      www.OpenFOAM.org                      |
|    \\/     M anipulation  |                                                 |
\*---------------------------------------------------------------------------*/
FoamFile
{
    version     2.0;
    format      ascii;
    class       volVectorField;
    location    "0.00125";
    object      UFLUK;
}
// * * * * * * * * * * * * * * * * * * * * * * * * * * * * * * * * * * * * * //

dimensions      [0 1 -1 0 0 0 0];

internalField   nonuniform List<vector> 
36520
(
(-6.81913e-05 -0.779119 0.927727)
(-9.29567e-05 0.000754332 0.0644031)
(9.93339e-06 0.195491 -0.192131)
(1.49746e-05 0.149819 -0.531368)
(2.26609e-05 0.123473 -0.650717)
(2.75595e-05 0.094292 -0.778247)
(3.17483e-05 0.109253 -0.997352)
(3.66216e-05 0.150737 -1.29755)
(4.25425e-05 0.208267 -1.58698)
(4.94558e-05 0.234202 -1.68027)
(5.44187e-05 0.189406 -1.41212)
(5.72462e-05 0.0816401 -0.863601)
(4.59557e-05 -0.0461288 -0.196591)
(1.79158e-05 -0.142316 0.322707)
(-1.60118e-06 -0.179889 0.595228)
(3.97447e-06 -0.155359 0.583193)
(2.87376e-05 -0.105335 0.40281)
(6.20496e-05 -0.0586441 0.183401)
(9.55222e-05 -0.0313983 0.00525484)
(0.000124753 -0.0180083 -0.117308)
(0.000146362 -0.0168798 -0.195116)
(0.000160823 -0.0154753 -0.256182)
(0.00017129 -0.0127473 -0.314716)
(0.000174081 -0.00804114 -0.381381)
(0.00016539 -0.000390312 -0.45388)
(0.000147623 0.0105416 -0.525848)
(0.000129315 0.0241112 -0.589867)
(0.000122648 0.0380731 -0.63828)
(0.000142571 0.0513997 -0.669471)
(0.000200128 0.0613397 -0.681647)
(0.000293176 0.0654971 -0.675013)
(0.000402925 0.0617102 -0.653284)
(0.000499026 0.0505427 -0.625756)
(0.00055093 0.0335252 -0.601304)
(0.00053929 0.0168273 -0.59192)
(0.000461041 0.00577043 -0.611629)
(0.000324255 0.00155172 -0.661803)
(0.000148501 0.0047292 -0.745914)
(-4.28529e-05 0.0166341 -0.857124)
(-0.000240788 0.0394619 -0.986823)
(-0.000459097 0.07488 -1.11498)
(-0.000694423 0.128197 -1.21627)
(-0.00084382 0.205273 -1.25754)
(-0.000702049 0.315621 -1.19469)
(-0.000787217 0.462821 -0.989433)
(-0.00151141 0.617785 -0.640968)
(-0.00124394 0.773773 -0.151589)
(-0.000433339 0.890078 0.556307)
(-7.67139e-05 0.965109 1.41497)
(9.04607e-05 0.808816 2.46923)
(0.000107884 0.48831 3.6978)
(0.000133668 0.0913813 4.90788)
(0.000383819 -0.226501 6.07823)
(0.000290434 -0.469069 6.94772)
(-0.000108808 -0.766382 7.59696)
(-8.38737e-05 -0.779714 7.60305)
(-1.10121e-05 -0.658875 7.20953)
(-5.67434e-07 -0.479331 6.49935)
(-1.25428e-08 -0.360722 5.93855)
(-1.56522e-10 -0.296133 5.57926)
(-4.30166e-05 -0.60365 0.830149)
(-3.22543e-05 0.200581 -0.334822)
(4.32063e-05 0.410623 -0.430286)
(5.29248e-05 0.299718 -0.743594)
(5.60924e-05 0.261327 -0.749073)
(5.2878e-05 0.184058 -0.850881)
(5.59835e-05 0.243921 -1.02569)
(6.76418e-05 0.366092 -1.33886)
(8.32185e-05 0.549843 -1.62433)
(9.46384e-05 0.63402 -1.73205)
(9.30159e-05 0.526979 -1.41637)
(8.13976e-05 0.228659 -0.79086)
(6.94536e-05 -0.105241 -0.04307)
(6.13136e-05 -0.37297 0.521293)
(6.62039e-05 -0.47299 0.807679)
(8.73756e-05 -0.40701 0.766446)
(0.000117821 -0.26752 0.551778)
(0.000147384 -0.138121 0.308089)
(0.000169859 -0.0653652 0.121951)
(0.000178637 -0.0373275 0.00624153)
(0.000173546 -0.0442596 -0.0699284)
(0.000154519 -0.0547812 -0.124482)
(0.000117571 -0.0596718 -0.182093)
(6.34642e-05 -0.0519408 -0.242228)
(-2.07703e-06 -0.032174 -0.309123)
(-6.98664e-05 -0.00163499 -0.372423)
(-0.000128536 0.0385982 -0.429557)
(-0.000164026 0.0818953 -0.471415)
(-0.000165547 0.125047 -0.498697)
(-0.000129146 0.162124 -0.506246)
(-7.02507e-05 0.184616 -0.493695)
(-1.45746e-05 0.185806 -0.465711)
(2.16721e-05 0.165167 -0.429771)
(3.67648e-05 0.130786 -0.396589)
(3.81207e-05 0.100338 -0.37939)
(3.17979e-05 0.0810521 -0.390408)
(1.79123e-05 0.0867477 -0.427182)
(-6.30961e-06 0.11596 -0.49303)
(-4.21021e-05 0.170573 -0.579936)
(-8.89649e-05 0.254337 -0.686587)
(-0.000152848 0.372618 -0.797027)
(-0.000264909 0.535977 -0.889584)
(-0.000884702 0.770284 -0.947015)
(-0.0134855 1.07228 -0.93521)
(-0.0282351 1.43912 -0.80738)
(-0.020532 1.86545 -0.462931)
(-0.0132272 2.26725 -0.00773348)
(-0.0071855 2.58352 0.624547)
(-0.00308582 2.62328 1.4501)
(-0.00100208 2.06984 2.62969)
(0.00114678 1.03825 4.06634)
(0.00397545 0.00681328 5.55615)
(0.00638886 -0.870659 6.9403)
(0.0150301 -1.7276 7.95056)
(0.000418954 -2.39151 8.4892)
(-0.00104513 -2.41938 8.31926)
(-6.06477e-05 -2.02588 7.77576)
(-3.92624e-06 -1.45933 6.92135)
(-1.504e-07 -1.0909 6.27584)
(-3.99875e-09 -0.894192 5.86532)
(-3.25033e-05 -0.130178 0.769478)
(-1.51652e-05 0.485899 -0.414646)
(2.99365e-05 0.664631 -0.562793)
(2.61486e-05 0.497516 -0.816033)
(1.58593e-05 0.434147 -0.773377)
(6.0395e-06 0.302566 -0.850916)
(3.27579e-06 0.396871 -1.02055)
(7.27817e-06 0.572861 -1.40896)
(1.22164e-05 0.852355 -1.78137)
(1.51929e-05 0.983721 -1.97406)
(1.46516e-05 0.812347 -1.61049)
(1.34736e-05 0.355333 -0.845498)
(7.18006e-06 -0.151832 0.0704412)
(-4.44223e-06 -0.561888 0.756642)
(-5.84671e-06 -0.719649 1.06904)
(-1.48786e-06 -0.611861 0.976392)
(3.66045e-06 -0.398607 0.680462)
(9.41068e-06 -0.205095 0.370522)
(1.44219e-05 -0.101113 0.15072)
(1.59613e-05 -0.0580543 0.0271637)
(1.39181e-05 -0.0657274 -0.050975)
(9.63715e-06 -0.0820242 -0.097172)
(1.90402e-06 -0.0867556 -0.153322)
(-1.03732e-05 -0.0703608 -0.220083)
(-2.60523e-05 -0.0395216 -0.298952)
(-4.33535e-05 0.00825802 -0.372884)
(-5.52651e-05 0.0720881 -0.447423)
(-4.87029e-05 0.140309 -0.504973)
(-1.96321e-05 0.20577 -0.547715)
(-1.44411e-06 0.256155 -0.570009)
(-7.5948e-07 0.278371 -0.569002)
(-9.01904e-07 0.260737 -0.546675)
(-1.02335e-06 0.202035 -0.508622)
(-1.12116e-06 0.122192 -0.469285)
(-1.20235e-06 0.0523004 -0.448426)
(-1.2414e-06 0.00235612 -0.455216)
(-1.28389e-06 -0.0110071 -0.496532)
(-1.33316e-06 0.0140313 -0.570446)
(-1.39331e-06 0.0777324 -0.671935)
(-1.45849e-06 0.191386 -0.803361)
(-0.000138258 0.362271 -0.947043)
(-0.00351924 0.612237 -1.0902)
(-0.0221123 0.984457 -1.23251)
(-0.118084 1.47345 -1.34474)
(-0.258412 2.07999 -1.32226)
(-0.30528 2.71745 -1.14556)
(-0.26856 3.26792 -0.824721)
(-0.180831 3.66922 -0.259381)
(-0.095758 3.68176 0.404498)
(-0.0338678 3.0592 1.59787)
(0.0105903 1.64867 3.30107)
(0.0359062 0.0376319 5.24102)
(0.0544581 -1.17475 7.07312)
(0.0967865 -2.75552 8.65357)
(0.205968 -3.99224 9.36992)
(-0.00903857 -4.10282 8.93927)
(-0.000537612 -3.38943 8.213)
(-1.98933e-05 -2.39172 7.18414)
(-1.05529e-06 -1.76014 6.43593)
(-5.87157e-08 -1.43296 5.97896)
(-4.74231e-05 0.400762 0.753338)
(-3.29967e-05 0.69701 -0.519174)
(4.04807e-07 0.813609 -0.73111)
(-2.57315e-07 0.605285 -0.90838)
(-2.66783e-06 0.526419 -0.875912)
(-3.37093e-06 0.376844 -0.915297)
(-4.60239e-06 0.49866 -1.1123)
(-1.22118e-05 0.701119 -1.59053)
(-2.4697e-05 1.06459 -2.11275)
(-3.83022e-05 1.2208 -2.40785)
(-6.0152e-05 1.01787 -1.99368)
(-4.75411e-05 0.451402 -1.0047)
(-6.24068e-06 -0.157001 0.173324)
(-1.76877e-05 -0.650742 1.05367)
(-3.47916e-05 -0.844421 1.41853)
(-1.07155e-05 -0.696227 1.25831)
(3.77278e-06 -0.429086 0.839235)
(-1.52694e-07 -0.191645 0.44294)
(-1.31832e-05 -0.0765717 0.179231)
(-2.19271e-05 -0.0400803 0.0382697)
(-2.18104e-05 -0.0724332 -0.0514758)
(-1.38276e-05 -0.124762 -0.118465)
(-1.92724e-06 -0.162776 -0.205147)
(-1.00846e-06 -0.173215 -0.307043)
(-0.000131858 -0.14811 -0.410739)
(-0.000620279 -0.0846901 -0.510407)
(-0.00101057 0.00914086 -0.608852)
(-0.00112137 0.113387 -0.687906)
(-0.00131332 0.21685 -0.748789)
(-0.00146527 0.303235 -0.787505)
(-0.0014535 0.351611 -0.802217)
(-0.00124638 0.338357 -0.793074)
(-0.000865936 0.257636 -0.766515)
(-0.000439202 0.125851 -0.732531)
(0.000118396 -0.00985599 -0.715838)
(0.000559659 -0.110515 -0.732546)
(0.000632667 -0.154534 -0.780999)
(0.000661267 -0.140698 -0.867299)
(0.000739349 -0.0781386 -0.983668)
(0.000923024 0.0423024 -1.13085)
(0.000838198 0.227559 -1.2914)
(-0.00167205 0.494897 -1.46213)
(-0.0163094 0.887676 -1.66276)
(-0.0756681 1.4113 -1.87795)
(-0.203509 1.98543 -1.99703)
(-0.321258 2.65925 -1.91891)
(-0.431079 3.31496 -1.7163)
(-0.492382 3.75365 -1.30564)
(-0.442266 3.78435 -0.683497)
(-0.205714 3.31749 0.358592)
(-0.024854 2.08636 1.90972)
(0.083101 0.453875 3.88874)
(0.118563 -1.04278 6.5176)
(0.113221 -2.92197 8.72991)
(0.0398363 -5.42851 10.2064)
(-0.00151298 -6.06261 9.87177)
(-0.00346668 -4.8093 8.96718)
(-0.000191785 -3.27268 7.60316)
(-6.60721e-06 -2.36927 6.68593)
(-6.07661e-07 -1.91417 6.15478)
(-5.13765e-05 1.06141 0.417032)
(-4.25116e-05 0.991964 -0.687105)
(-3.55448e-05 1.05024 -0.870218)
(-2.55218e-05 0.798528 -0.999755)
(-4.92554e-06 0.67494 -0.935989)
(-1.98531e-07 0.529814 -0.876089)
(-6.36904e-05 0.716477 -1.07895)
(-0.000207511 0.929329 -1.71626)
(-0.000274875 1.27911 -2.47656)
(-0.000202251 1.40113 -2.97545)
(-0.00285791 1.02975 -2.82154)
(-0.00382065 0.255636 -1.8662)
(-0.00476305 -0.45523 -0.520099)
(-0.0124669 -0.873621 0.720892)
(-0.0147341 -0.994128 1.36314)
(-0.00737729 -0.779895 1.28383)
(-0.00419921 -0.464774 0.799708)
(-0.0032498 -0.219337 0.320097)
(-0.00309627 -0.117897 0.00703524)
(-0.00340762 -0.112379 -0.149715)
(-0.00410641 -0.180159 -0.251957)
(-0.00472767 -0.254457 -0.328864)
(-0.0046393 -0.310351 -0.427735)
(-0.00379583 -0.318852 -0.541982)
(-0.00297553 -0.283755 -0.672641)
(-0.00281528 -0.211299 -0.813025)
(-0.00362675 -0.0983003 -0.960067)
(-0.00559606 0.0369966 -1.08839)
(-0.00905336 0.163795 -1.19687)
(-0.0140784 0.257439 -1.28039)
(-0.0191873 0.285936 -1.33322)
(-0.0205221 0.22588 -1.35195)
(-0.015018 0.0721585 -1.34382)
(-0.00358662 -0.138546 -1.32177)
(0.00792516 -0.339226 -1.3144)
(0.0129617 -0.476499 -1.32302)
(0.0117266 -0.526083 -1.35239)
(0.00932753 -0.506309 -1.44242)
(0.00783129 -0.444101 -1.58239)
(0.006043 -0.310287 -1.78007)
(0.00415102 -0.118929 -2.05175)
(0.00254453 0.113661 -2.3567)
(-0.000481071 0.491638 -2.74255)
(-0.0114837 0.966041 -3.23169)
(-0.0438315 1.47353 -3.72394)
(-0.132558 2.03243 -4.1567)
(-0.289476 2.66931 -4.33261)
(-0.428704 3.16879 -4.1115)
(-0.437446 3.48154 -3.38422)
(-0.242413 3.31475 -1.60423)
(-0.0568108 2.34261 0.149457)
(0.0234853 1.35751 1.23199)
(0.0540479 0.351022 3.20357)
(0.043747 -1.87112 6.68938)
(0.0259677 -5.7734 9.81115)
(0.0561665 -8.09951 11.062)
(0.134594 -6.35032 10.0184)
(-0.00145336 -4.03527 8.15168)
(-4.45228e-05 -2.85443 7.00914)
(-4.7676e-06 -2.28431 6.38097)
(-5.8944e-05 1.26363 0.0513621)
(-0.000102642 1.02299 -0.899385)
(-0.000528723 1.13354 -1.13957)
(-0.00138169 0.849352 -1.23183)
(-0.00270197 0.832758 -1.10338)
(-0.00346274 0.719674 -1.1127)
(-0.00258811 0.87025 -1.63321)
(0.00121505 0.939524 -2.72905)
(0.00112565 1.09569 -4.03143)
(-0.00797246 0.979368 -5.01852)
(-0.0167677 0.483555 -4.88699)
(-0.0180325 -0.572574 -3.4765)
(-0.00331111 -1.52146 -1.56088)
(0.00603325 -1.55426 -0.0401822)
(-0.0254828 -1.11772 0.771912)
(-0.0488372 -0.803184 0.862071)
(-0.0306829 -0.482466 0.443317)
(-0.0263092 -0.271894 -0.0170682)
(-0.0263447 -0.203147 -0.323674)
(-0.0288719 -0.232824 -0.515692)
(-0.035631 -0.339265 -0.649227)
(-0.0542959 -0.476053 -0.75255)
(-0.0868473 -0.605712 -0.890691)
(-0.109646 -0.708982 -1.07405)
(-0.101942 -0.771895 -1.2892)
(-0.0755432 -0.749023 -1.49177)
(-0.0459218 -0.622604 -1.68295)
(-0.0326911 -0.465559 -1.87245)
(-0.0422135 -0.344543 -2.05607)
(-0.0640708 -0.267852 -2.21075)
(-0.090261 -0.246178 -2.31079)
(-0.110587 -0.305081 -2.34635)
(-0.0986261 -0.465969 -2.32306)
(-0.0404805 -0.726268 -2.24633)
(0.0125145 -1.01998 -2.1466)
(0.0272478 -1.25596 -2.08967)
(0.0279612 -1.43555 -2.06116)
(0.0279131 -1.50116 -2.07687)
(0.00607667 -1.54315 -2.16474)
(-0.0228235 -1.4942 -2.31596)
(-0.0119435 -1.31459 -2.49671)
(0.0143668 -1.0385 -2.7204)
(0.0184933 -0.552272 -3.04493)
(0.00066969 0.0794938 -3.62642)
(-0.0223631 0.617187 -4.17984)
(-0.0721136 1.10931 -4.5692)
(-0.191194 1.6085 -4.76502)
(-0.430259 2.09269 -4.42202)
(-0.844569 2.31294 -3.15107)
(-0.80373 1.9234 -1.17398)
(-0.203317 1.45813 -0.0618869)
(-0.0499595 0.37452 0.376924)
(0.0144942 -0.549817 1.16738)
(0.0620141 -1.46098 2.5283)
(0.151788 -4.00077 5.21546)
(0.456097 -8.68221 10.8452)
(0.259392 -7.9408 11.3257)
(-0.00723629 -4.63087 8.81459)
(-0.000297933 -3.18826 7.38712)
(-2.95689e-05 -2.52585 6.64154)
(-0.0127051 2.06476 -1.82106)
(-0.0305567 1.30324 -1.16497)
(-0.034037 1.39851 -1.41992)
(0.0470703 1.22948 -1.44933)
(-0.000989953 0.701105 -2.02691)
(-0.00744609 0.421395 -2.00631)
(-0.0243169 0.607804 -2.48713)
(-0.0662689 0.712545 -3.76053)
(-0.127597 0.538684 -5.39963)
(-0.171324 -0.573642 -6.31323)
(-0.114759 -2.46141 -4.94561)
(-0.0454008 -3.83511 -2.13398)
(-0.00437859 -4.62765 0.687048)
(0.0427407 -4.57417 2.57653)
(0.0937274 -3.9232 2.91367)
(-0.0464098 -2.32915 0.231409)
(-0.263033 -0.545508 -1.18267)
(-0.193551 -0.48139 -1.6646)
(-0.150808 -0.511429 -1.98866)
(-0.113135 -0.656386 -2.17532)
(-0.0883304 -0.914684 -2.26693)
(-0.0875006 -1.19146 -2.35131)
(-0.129465 -1.44397 -2.4738)
(-0.198978 -1.67502 -2.61396)
(-0.232067 -1.85685 -2.74723)
(-0.252717 -1.99152 -2.83427)
(-0.384968 -2.01019 -2.93398)
(-0.407745 -1.75729 -3.19121)
(-0.23028 -1.37241 -3.51)
(-0.146456 -0.992518 -3.82727)
(-0.190663 -0.751059 -4.04138)
(-0.212324 -0.877564 -4.08228)
(-0.165599 -2.15409 -3.41111)
(-0.0475595 -2.90854 -2.67007)
(0.0165134 -2.55663 -3.07242)
(0.00562542 -2.42835 -3.09211)
(0.00527822 -1.62823 -3.40803)
(0.0732952 -1.2842 -3.39675)
(0.0944777 -1.55307 -3.31185)
(0.0196089 -2.00531 -3.26818)
(-0.114058 -1.94941 -3.4559)
(-0.371233 -1.7767 -3.63726)
(-0.669897 -1.66285 -3.67844)
(-0.681849 -1.66542 -3.53386)
(-0.492228 -1.34967 -3.69158)
(-0.483473 -0.861545 -4.00443)
(-0.897181 0.0977992 -4.06127)
(-1.28946 1.472 -3.49744)
(-1.3246 2.30622 -2.47766)
(-1.46357 2.60521 -1.79468)
(-1.5324 1.14491 -0.645417)
(-0.519889 -1.05207 -0.25943)
(-0.0219139 -1.45512 0.135131)
(0.156864 -1.83501 0.842741)
(0.618912 -2.52652 1.90629)
(0.953056 -5.34804 6.35307)
(0.437814 -8.33008 12.2803)
(0.123307 -5.00413 9.60006)
(-0.000190398 -3.31947 7.78779)
(-0.000144338 -2.60366 6.90952)
(-0.0408495 1.35205 -1.27272)
(0.00485553 0.714653 -1.29477)
(0.0843548 1.28928 -1.90244)
(-0.0197592 -0.81932 -1.49968)
(-0.0133692 -0.841282 -0.715353)
(-0.016999 -0.973803 -0.0724666)
(-0.0787523 -0.604264 -1.55675)
(-0.189986 1.50861 -4.92841)
(-0.204645 1.24628 -7.08517)
(-0.145026 0.0954042 -8.71117)
(-0.0852355 -2.04448 -8.79723)
(-0.037105 -5.54273 -5.11106)
(0.00173258 -6.64548 -0.629954)
(0.0349776 -6.18767 2.31607)
(0.0735572 -5.33781 3.32527)
(0.149474 -5.03388 1.99504)
(-0.0534821 -0.969178 -4.05522)
(-0.112566 -0.610079 -4.70585)
(-0.108291 -0.688482 -4.88144)
(-0.154273 -0.490697 -4.75979)
(-0.250009 -0.365386 -4.44255)
(-0.261098 -0.499663 -4.12623)
(-0.150652 -0.688959 -3.97738)
(-0.0458828 -1.07134 -4.11369)
(-0.0673047 -1.6784 -4.45877)
(-0.198916 -2.13291 -4.76142)
(-0.339037 -2.22687 -5.01798)
(-0.445731 -2.1261 -5.23516)
(-0.491776 -1.94111 -5.40604)
(-0.429981 -1.68813 -5.55893)
(-0.336701 -1.30802 -5.70641)
(-0.371693 -0.925037 -5.74547)
(-0.69059 -0.681604 -5.63602)
(-1.15318 -0.518956 -5.41435)
(-0.845927 -0.442352 -5.20635)
(-0.0810868 -0.48056 -4.98353)
(0.282153 -0.602034 -4.73602)
(0.247778 -0.719585 -4.51053)
(0.0695243 -0.928181 -4.26841)
(-0.00185744 -1.15112 -4.1276)
(0.0256094 -1.31984 -4.11084)
(0.0717188 -1.49602 -4.20221)
(0.109227 -1.63012 -4.48708)
(0.0737339 -1.52511 -4.7976)
(-0.270992 -0.918065 -4.68811)
(-0.889184 0.359365 -3.33245)
(-0.496694 1.13009 -2.90564)
(-0.114474 1.69603 -2.25701)
(-0.220701 1.15059 -1.83241)
(-0.696187 -0.152264 -1.58295)
(-1.62188 -1.06573 -1.15353)
(-1.58374 -0.861588 0.425734)
(-0.342903 -1.58784 0.232026)
(0.457197 -1.782 0.816752)
(1.01113 -2.01694 1.73363)
(1.04948 -3.31709 4.4697)
(0.611438 -6.73614 12.2885)
(0.215288 -5.00175 10.4641)
(-0.0056925 -3.25351 8.17945)
(-0.000546072 -2.53562 7.15369)
(0.000571666 3.25516 -17.5321)
(0.000824857 0.100262 -4.78044)
(0.0012988 -0.251728 -2.01641)
(0.00169186 -1.36954 -1.45851)
(0.000582224 -1.54186 -1.2435)
(-0.0148424 -1.57581 -1.69475)
(-0.10801 -1.33602 -2.03013)
(-0.209898 -1.37508 -2.19319)
(-0.214355 -1.83361 -2.3525)
(-0.132831 -2.68103 -2.33556)
(-0.0481135 -3.55968 -1.97173)
(0.00711674 -4.14759 -1.65325)
(0.0662519 -4.51784 -1.38479)
(0.100476 -4.71389 -1.28269)
(0.0647183 -4.65395 -1.36486)
(0.021189 -4.56637 -1.41081)
(0.0103249 -4.71175 -1.63471)
(0.0102786 -4.99533 -1.88179)
(0.0131983 -5.1951 -2.01348)
(0.0135525 -5.24529 -2.06519)
(0.0099005 -5.19117 -2.07155)
(0.00631914 -5.1117 -2.05339)
(0.00549228 -5.17359 -2.08178)
(0.00594418 -5.44651 -2.21347)
(0.00501219 -5.80817 -2.4171)
(-0.00356568 -5.98661 -2.56115)
(-0.0349543 -5.86739 -2.62502)
(-0.0559954 -5.54638 -2.57617)
(-0.0689832 -5.11531 -2.51752)
(-0.0819655 -4.80469 -2.47312)
(-0.0773774 -4.59475 -2.36367)
(-0.0550562 -4.42892 -2.18156)
(-0.031781 -4.31764 -1.98843)
(-0.0161935 -4.26405 -1.86694)
(-0.00862362 -4.23018 -1.8133)
(-0.00622043 -4.15862 -1.75612)
(-0.00633196 -4.04229 -1.69197)
(-0.00594398 -3.93765 -1.63619)
(-0.0038034 -3.82752 -1.57833)
(-0.000898468 -3.6893 -1.51182)
(0.00142427 -3.5825 -1.45547)
(0.00508413 -3.56826 -1.45061)
(0.0135706 -3.65555 -1.50613)
(0.0254411 -3.80722 -1.6302)
(0.0295933 -4.03062 -1.81774)
(0.0172115 -3.81648 -1.93847)
(0.00464713 -2.62838 -1.94843)
(0.00203123 -1.22296 -1.82981)
(0.00233192 -1.12915 -1.18623)
(-0.0866278 -1.81137 -0.597009)
(-2.12881 -1.52155 -0.397298)
(-1.84091 -0.73764 0.149333)
(-0.908044 -1.41312 0.52446)
(0.583705 -1.49241 0.836752)
(0.869667 -1.50919 1.45878)
(1.01128 -2.16532 3.80524)
(0.716048 -4.73819 12.2095)
(0.318476 -4.21648 11.5309)
(-0.0340966 -2.76565 8.83246)
(-0.00226775 -2.15588 7.62759)
(0.000466945 6.37724 -19.5297)
(0.00068767 1.45822 -3.83492)
(0.00112763 0.17208 -1.46355)
(0.00105463 -1.13471 -1.22911)
(0.000847291 -1.84936 -0.625904)
(7.90793e-05 -2.40686 -0.486658)
(-0.00730545 -2.55683 -0.726759)
(-0.0869483 -2.25144 -1.28578)
(-0.169787 -1.72893 -1.21192)
(-0.119391 -1.43324 -0.899252)
(-0.0563346 -1.91549 -0.709277)
(-0.0184827 -2.70359 -0.728115)
(0.01117 -3.27202 -0.609123)
(0.0392069 -3.9322 -0.577937)
(0.0450622 -4.62683 -0.665938)
(0.0168177 -4.88999 -0.766124)
(0.00282849 -4.70011 -0.786743)
(0.00184791 -4.35915 -0.813387)
(0.0026353 -4.15593 -0.868697)
(0.00354892 -4.11423 -0.918497)
(0.00550392 -4.16004 -0.947078)
(0.00958158 -4.26896 -0.971077)
(0.0152857 -4.46337 -1.00308)
(0.0184655 -4.76036 -1.06806)
(0.0138102 -5.23049 -1.2322)
(0.00580024 -5.89777 -1.4868)
(-0.00305458 -6.27822 -1.69194)
(-0.0298287 -6.08467 -1.71233)
(-0.0552477 -5.66483 -1.5736)
(-0.0592166 -5.12586 -1.39471)
(-0.0622607 -4.72437 -1.21898)
(-0.0515031 -4.48956 -1.07939)
(-0.027419 -4.37409 -1.00528)
(-0.00843731 -4.31883 -1.01159)
(-0.000366042 -4.29391 -1.04269)
(0.00166161 -4.26263 -1.05175)
(0.00178048 -4.19031 -1.03792)
(0.00203754 -4.04946 -1.00595)
(0.00259752 -3.89037 -0.971798)
(0.00259416 -3.69873 -0.924997)
(0.00312715 -3.48858 -0.875566)
(0.0056262 -3.32569 -0.823446)
(0.00892352 -3.30866 -0.810913)
(0.00938016 -3.29107 -0.869542)
(0.00642018 -3.10274 -0.954689)
(0.00268959 -2.56617 -0.986814)
(0.00132964 -1.56138 -0.747395)
(0.00335936 -0.73007 -0.334015)
(0.00812191 -0.568517 -0.135609)
(-0.0330697 -0.719237 -0.205796)
(-1.38423 -0.791767 -0.892787)
(-1.24165 -0.448686 0.00540108)
(-0.510792 -0.981454 0.671201)
(0.416322 -1.11896 1.11074)
(0.702468 -1.28413 1.63865)
(0.942343 -1.93458 3.95949)
(0.710904 -3.52216 12.4097)
(0.331002 -2.93979 11.8548)
(-0.0353809 -1.97733 9.11612)
(-0.00266264 -1.58484 7.86835)
(0.000143996 4.40732 -11.3593)
(0.000231423 1.52112 -2.04123)
(0.000420913 -0.273952 -0.880577)
(0.000606528 -1.55962 -0.831031)
(0.000588096 -1.99201 -0.607734)
(-0.000216901 -2.63644 -0.583768)
(-0.0180384 -2.98971 -0.902029)
(-0.125584 -2.67748 -1.41656)
(-0.139155 -1.46968 -1.97998)
(-0.116773 -1.01477 -1.75949)
(-0.08056 -2.50478 -1.21142)
(-0.0366879 -4.02963 -0.99592)
(0.0253221 -4.88231 -0.869278)
(0.0954918 -5.6436 -0.765403)
(0.125702 -6.70609 -0.901009)
(0.0410835 -7.33569 -0.846899)
(0.000573498 -7.01571 -0.64899)
(-0.00319092 -6.06697 -0.751776)
(-0.00327913 -5.41248 -0.908353)
(-0.00133398 -5.19776 -1.00204)
(0.000702244 -5.20237 -1.05008)
(0.00342307 -5.32729 -1.0852)
(0.00655047 -5.55621 -1.13014)
(0.00676113 -5.84807 -1.18691)
(0.00379322 -6.12287 -1.22736)
(0.00141242 -6.42903 -1.19941)
(-0.00154997 -6.76145 -1.18291)
(-0.0471695 -6.98645 -1.20835)
(-0.588847 -6.94032 -0.682111)
(-0.388295 -6.50699 -1.62104)
(0.0607618 -6.1617 -1.59728)
(0.0253883 -5.96305 -1.18246)
(0.00333979 -5.79058 -1.16261)
(0.000179771 -5.69455 -1.19816)
(-4.14492e-05 -5.66077 -1.22721)
(-0.000714556 -5.66552 -1.26567)
(-0.00173107 -5.64209 -1.30512)
(-0.00124646 -5.56405 -1.27452)
(7.85264e-05 -5.38768 -1.21683)
(0.000675705 -5.09981 -1.10114)
(0.00136194 -4.77603 -0.982241)
(0.00346418 -4.43771 -0.858664)
(0.006505 -4.07497 -0.753555)
(0.00789756 -3.66017 -0.733476)
(0.00636482 -3.24774 -1.01223)
(0.0020109 -2.7603 -1.70107)
(-0.00204663 -2.17372 -2.45459)
(0.0101785 -1.43179 -1.95497)
(0.0288519 -1.04956 -0.568483)
(-0.209843 -0.722023 -0.0864489)
(-1.58535 1.06478 -0.429165)
(-1.37658 -0.0213811 0.182602)
(-0.526801 -0.72687 0.406408)
(0.519156 -0.817075 0.772541)
(0.875689 -1.05836 1.57357)
(1.01382 -1.99757 4.57812)
(0.722236 -2.49557 12.6257)
(0.337891 -1.87055 12.0739)
(-0.0288653 -1.23671 9.36173)
(-0.00293 -1.014 8.07975)
(0.0442197 3.10435 -1.85402)
(0.0134398 1.09787 -1.43702)
(-0.00380535 0.238031 -1.94167)
(-0.00240127 -0.673645 -1.49316)
(-0.00537414 -1.6081 -1.03061)
(-0.024989 -2.62698 -1.34627)
(-0.0348896 -3.21042 -2.23677)
(-0.208375 -3.11416 -3.418)
(-0.705982 -1.81824 -4.71743)
(-1.36004 -0.61219 -5.03235)
(-1.01141 -2.08399 -3.24428)
(-0.153786 -3.87889 -2.06198)
(0.0754442 -4.78574 -1.83465)
(0.14748 -5.61896 -1.85958)
(0.185065 -6.80714 -2.32871)
(0.152182 -8.37794 -2.76314)
(-0.0402159 -8.89214 -2.03354)
(-0.117961 -7.89224 -2.04968)
(-0.120097 -6.70882 -2.3082)
(-0.0642936 -6.12446 -2.4636)
(-0.0159292 -5.97011 -2.46848)
(-0.003498 -6.01753 -2.46694)
(-0.124854 -6.14002 -2.5289)
(-0.495063 -6.15685 -2.7092)
(-0.17625 -5.74687 -3.38327)
(3.68244 -5.0037 -3.42884)
(4.95701 -5.50642 3.75868)
(-2.2875 -5.26159 5.0988)
(-6.45618 -2.93991 3.87894)
(-5.4327 -2.36465 3.9523)
(0.610193 -5.7008 -3.81613)
(1.27138 -4.34237 -5.17438)
(1.05964 -5.54156 -3.94705)
(0.393802 -6.4637 -2.06279)
(-1.11251 -6.57977 -1.2541)
(-4.51596 -5.867 -0.76793)
(-5.30786 -5.61258 0.128645)
(1.94567 -5.94119 -2.61299)
(3.39025 -3.90279 -4.38651)
(2.4786 -4.47603 -3.67013)
(-0.053193 -5.59014 -0.552677)
(-0.20321 -4.88854 1.15802)
(0.3962 -4.23775 0.558839)
(0.70734 -3.46922 -0.284877)
(0.266743 -2.0282 -1.98336)
(-0.0591095 -0.726636 -3.00078)
(-0.141197 -0.287084 -4.30456)
(0.163876 -0.471773 -3.81099)
(0.892264 -0.543371 -0.805355)
(-1.98412 1.17992 1.15258)
(-1.94207 1.14261 1.34784)
(-1.78106 -0.00901448 0.64679)
(-1.01727 -0.772204 0.72418)
(0.761285 -0.657914 0.807717)
(1.30501 -0.212478 1.58793)
(1.19822 -0.388478 3.53778)
(0.774321 -0.510923 11.5403)
(0.323027 -0.41955 11.5763)
(-0.0363088 -0.350697 9.252)
(-0.00210168 -0.339281 8.03971)
(-0.283685 -2.14738 -1.06274)
(-0.240901 -0.835137 -0.881909)
(-0.0248899 -0.64176 -1.82232)
(-0.0197937 -0.312984 -1.48449)
(-0.0514022 -0.758277 -1.18681)
(-0.120832 -1.33912 -2.1442)
(-0.288394 -2.04023 -2.9347)
(-1.58604 -2.43451 -3.02569)
(-2.77793 -0.524843 -2.94666)
(-2.89019 0.0634603 -1.88142)
(-2.16933 -2.11647 0.667326)
(-0.886462 -4.03631 2.16125)
(-0.247357 -5.04732 1.51732)
(0.390932 -5.57832 0.528522)
(1.28731 -5.85924 -1.10492)
(2.92217 -5.85704 -3.13873)
(4.80253 -7.28455 -2.85118)
(0.193788 -7.89293 3.22243)
(-0.00100904 -6.45911 3.01107)
(-0.000948788 -5.93178 2.87127)
(-0.00101737 -5.88953 2.76933)
(-0.0187289 -5.9896 2.83688)
(-0.128702 -6.20073 2.95725)
(-0.557519 -6.44455 3.20821)
(-0.779883 -6.40936 4.22976)
(3.0264 -5.42849 5.83106)
(8.32201 -4.50898 3.30363)
(1.29854 -6.2139 4.39328)
(-1.76455 -3.4129 5.34556)
(-4.44648 -2.44197 4.04774)
(-5.44968 -2.96731 2.56765)
(-0.680632 -5.07129 2.19935)
(4.35097 -4.97275 0.589353)
(2.2618 -5.75823 0.534833)
(0.460659 -6.11839 0.733084)
(-0.0759823 -6.03765 1.97697)
(-1.37044 -4.66788 4.18753)
(-3.41981 -4.02676 4.13418)
(-2.16564 -4.17181 4.03229)
(4.56778 -4.75391 0.283569)
(3.41951 -4.50585 0.329144)
(0.830959 -4.21533 0.787433)
(-0.0680227 -3.20696 0.936918)
(-1.33878 -1.94134 0.0219114)
(-2.28256 0.194923 -2.31038)
(-0.0387948 1.82965 -3.88926)
(0.967642 1.92866 -3.98949)
(0.763866 1.60533 -3.09781)
(0.981069 -0.00258075 -0.322157)
(-2.27014 0.979224 1.21882)
(-2.25233 1.17839 1.2787)
(-1.93 -0.0297565 0.316008)
(-0.993625 -0.799914 1.66995)
(0.623107 -0.520105 2.26137)
(1.30758 -0.00579044 2.29922)
(1.24586 0.719634 3.70991)
(0.789546 1.8952 11.3968)
(0.322531 0.897351 11.5138)
(-0.034818 0.379884 9.24101)
(-0.00198055 0.223197 8.04342)
(-6.6807e-05 -4.88162 -11.2603)
(-0.000120431 -0.434743 -0.675132)
(-0.00275639 0.598215 -0.992908)
(-0.0034531 1.00809 -0.86448)
(-0.00358873 -0.346565 -0.112695)
(-0.00273294 -2.34319 0.421707)
(0.00319794 -3.46184 -0.2572)
(0.0401819 -3.24476 -3.55571)
(-2.02621 1.38262 -4.98231)
(-3.23796 0.0442959 -4.00828)
(-3.99841 -0.638564 -0.493686)
(-2.41838 -2.71451 1.90808)
(-0.456151 -3.51866 2.31677)
(0.0655069 -4.02121 2.36989)
(0.604416 -4.85709 2.08421)
(1.6769 -5.82811 1.29347)
(1.92462 -7.35172 1.57808)
(0.144897 -7.64792 1.69633)
(-0.00701123 -6.31852 1.23889)
(-0.0094073 -5.82176 1.13852)
(-0.00600275 -5.77982 1.15968)
(-0.0016777 -5.83875 1.18974)
(0.000183675 -5.95921 1.22331)
(0.00242553 -6.1616 1.28688)
(0.00574027 -6.41339 1.37368)
(0.00527164 -6.6113 1.46467)
(-0.000101094 -6.55088 1.41561)
(-0.00777003 -6.18561 1.11422)
(-0.164799 -5.83946 -0.596231)
(-0.881233 -3.79641 -4.24457)
(-0.796316 -5.39304 -0.603489)
(-0.0772783 -5.11132 1.4169)
(0.00450921 -5.30328 0.977781)
(0.00102462 -5.40205 0.940158)
(-0.00205265 -5.43829 1.00293)
(-0.00270754 -5.41535 1.04459)
(-0.00298189 -5.34909 1.06094)
(-0.00489012 -5.20032 1.05993)
(-0.00624572 -4.94813 1.00969)
(-0.00224167 -4.55304 0.930102)
(0.00337005 -4.09284 0.883876)
(0.00637457 -3.51408 0.812005)
(0.00305321 -2.68524 0.634253)
(-0.0117976 -1.34062 0.114117)
(-0.0250516 0.254653 -0.743111)
(-0.0111259 1.32817 -1.44548)
(0.0274311 1.80292 -2.30582)
(0.0994647 1.61394 -2.23446)
(0.093471 0.309282 -0.243618)
(-1.03998 -0.440892 1.2034)
(-1.6835 0.366519 0.621756)
(-1.08115 -0.469332 0.0700277)
(-0.204994 -0.755069 1.34505)
(0.453358 -0.310886 1.91933)
(0.848574 0.391131 2.57701)
(1.07738 2.63559 6.01015)
(0.710397 3.77945 12.757)
(0.170764 2.35469 11.8981)
(-0.0360589 1.22903 9.33764)
(-0.00237785 0.868995 8.08896)
(-0.000110937 -6.56356 -18.5806)
(-0.0069868 -1.03317 -4.18459)
(-0.0292388 0.150009 -1.14367)
(-0.0570741 -0.66384 -0.420649)
(-0.0583906 -1.84724 0.857504)
(-0.017868 -2.16704 1.75748)
(0.0197547 -2.27984 1.61958)
(0.0415392 -1.97996 1.3334)
(0.0288488 -1.16391 0.00158634)
(-0.0568115 -3.1575 -1.39899)
(-1.01316 -5.83275 -1.24401)
(-3.07766 -4.20806 1.19562)
(-1.84666 -3.27207 3.513)
(-0.328474 -3.66476 3.41821)
(0.272514 -4.08667 3.51154)
(1.12682 -4.75791 3.38798)
(3.60411 -4.78475 3.24436)
(3.77048 -4.62194 2.74602)
(0.0433492 -5.17577 1.60822)
(-0.00394164 -5.14639 1.18471)
(0.00183474 -5.23139 1.14701)
(0.00286444 -5.37832 1.17008)
(0.00535917 -5.56077 1.20722)
(0.0112292 -5.77215 1.25426)
(0.0103556 -5.85115 1.21753)
(0.00127803 -5.46704 1.00116)
(-0.044712 -4.88024 0.353902)
(-1.45546 -3.92865 -2.65079)
(-2.82967 0.563537 -4.92094)
(-1.60382 1.33104 -4.89003)
(3.67242 3.88985 -2.05005)
(4.63512 -1.85526 2.70118)
(1.07335 -4.55336 1.47455)
(0.163841 -4.73845 0.911428)
(0.0286042 -4.68686 -0.311222)
(-0.0342194 -4.48912 -0.632914)
(-0.182262 -4.26181 0.0456465)
(-0.562013 -3.78022 0.56247)
(-0.51186 -3.28418 0.375828)
(0.610041 -2.64631 0.220457)
(1.30969 -1.75697 0.424568)
(0.41136 -1.08372 0.0563033)
(-0.0808822 -0.155001 -0.937823)
(-0.098698 1.01331 -1.46178)
(-0.0566747 2.00637 -1.79891)
(-0.00281929 2.78375 -2.09071)
(0.0350841 2.82891 -2.38394)
(0.0932226 1.96966 -2.17528)
(0.059561 0.453763 -0.653075)
(-1.28656 -0.055036 0.749881)
(-1.33606 0.340336 0.505742)
(-0.919367 -0.317931 0.452451)
(0.0240919 -0.489956 1.029)
(0.502008 -0.146618 1.58528)
(0.893314 0.650816 2.64998)
(0.953488 3.14219 8.86911)
(0.577217 4.11044 13.6778)
(-0.182639 2.92036 11.6312)
(-0.0183862 1.83682 9.10893)
(-0.00117702 1.39188 7.91132)
(-0.000154053 -4.0486 -15.3527)
(-0.00878063 -2.28369 -3.55953)
(-0.0399152 -4.22618 -0.460723)
(-0.016004 -4.14148 1.14008)
(0.00219458 -3.41315 1.78542)
(0.0149015 -2.32245 1.58888)
(0.0247771 -1.39204 0.730656)
(0.0258607 -0.190038 -0.738742)
(-3.08791 -2.15016 -3.61379)
(-3.0838 -4.7778 -2.35254)
(-2.12407 -4.99095 1.75254)
(-0.555076 -4.87289 3.40007)
(-0.105992 -4.99935 3.9317)
(0.253337 -4.60548 4.32371)
(0.844029 -2.69651 5.44289)
(1.57798 0.968334 6.45018)
(2.83663 2.59622 5.89721)
(2.16542 -2.30905 3.37384)
(-0.342199 -4.1582 2.50572)
(-0.104276 -4.74021 2.15963)
(-0.0126019 -4.84166 2.05886)
(0.0125587 -4.76301 1.95325)
(0.0242428 -4.62235 1.85194)
(0.0141583 -4.41877 1.7386)
(-0.0342103 -4.22277 1.58423)
(-0.190634 -4.0936 1.40939)
(-0.502932 -4.02071 1.19833)
(-1.09213 -4.06098 0.361469)
(3.37757 3.28797 2.76269)
(3.73002 1.84598 3.18043)
(2.88905 1.46119 3.48759)
(0.727622 2.00083 3.70586)
(-1.5558 1.81935 -4.10491)
(-5.2983 -0.540719 -2.2712)
(-4.28134 -2.2849 -1.19175)
(0.888804 -3.31541 -0.553548)
(2.86315 -2.35164 0.38521)
(1.22402 -2.10996 1.19235)
(0.024295 -1.3988 1.5984)
(0.238199 -0.812432 1.50239)
(0.524188 0.444808 1.63506)
(-2.74929 2.4596 0.230515)
(-2.86004 3.80259 -1.31435)
(-0.517957 6.03504 -1.83148)
(0.266649 6.4218 -1.97097)
(0.757288 6.2576 -2.16024)
(0.769893 5.72028 -2.32057)
(0.432895 4.65629 -2.02615)