/*--------------------------------*- C++ -*----------------------------------*\
| =========                 |                                                 |
| \\      /  F ield         | OpenFOAM: The Open Source CFD Toolbox           |
|  \\    /   O peration     | Version:  2.1.1                                 |
|   \\  /    A nd           | Web:      www.OpenFOAM.org                      |
|    \\/     M anipulation  |                                                 |
\*---------------------------------------------------------------------------*/
FoamFile
{
    version     2.0;
    format      ascii;
    class       volScalarField;
    location    "0.0012";
    object      alpha1;
}
// * * * * * * * * * * * * * * * * * * * * * * * * * * * * * * * * * * * * * //

dimensions      [0 0 0 0 0 0 0];

internalField   nonuniform List<scalar> 
36520
(
-2.0841e-12
-2.00027e-13
-2.83533e-13
-3.72527e-13
-5.30839e-13
-7.45758e-13
-9.96543e-13
-1.2682e-12
-1.53303e-12
-1.7617e-12
-1.8514e-12
-1.76935e-12
-1.68867e-12
-1.70025e-12
-1.84524e-12
-2.10134e-12
-2.4615e-12
-2.94279e-12
-3.58243e-12
-4.41715e-12
-5.47959e-12
-6.79225e-12
-8.35645e-12
-1.01328e-11
-1.20354e-11
-1.39381e-11
-1.57044e-11
-1.72468e-11
-1.86116e-11
-2.00886e-11
-2.22329e-11
-2.57575e-11
-3.12854e-11
-3.90723e-11
-4.8816e-11
-5.96766e-11
-7.04402e-11
-7.9553e-11
-8.55256e-11
-8.73722e-11
-8.48145e-11
-7.70417e-11
-6.11634e-11
-3.50624e-11
-8.62684e-12
2.91227e-12
2.86623e-11
8.09627e-11
1.55565e-10
2.04825e-10
1.04003e-10
-1.37071e-12
-7.55681e-12
-4.50521e-12
-2.85342e-13
-4.88475e-15
-4.08836e-17
-2.52455e-19
-1.25697e-21
-3.98156e-24
-4.78646e-12
-3.39847e-12
-4.10493e-12
-4.99583e-12
-6.1359e-12
-7.38928e-12
-8.75997e-12
-1.01547e-11
-1.14494e-11
-1.23394e-11
-1.29264e-11
-1.32282e-11
-1.38078e-11
-1.48164e-11
-1.64525e-11
-1.86783e-11
-2.16184e-11
-2.53393e-11
-2.98451e-11
-3.50638e-11
-4.07967e-11
-4.68086e-11
-5.26591e-11
-5.78314e-11
-6.15812e-11
-6.32025e-11
-6.20527e-11
-5.78957e-11
-5.10539e-11
-4.28015e-11
-3.51194e-11
-3.00383e-11
-2.82629e-11
-2.91874e-11
-3.14944e-11
-3.41735e-11
-3.67747e-11
-3.88497e-11
-3.96048e-11
-3.81235e-11
-3.39471e-11
-2.68439e-11
-1.761e-11
3.10613e-16
2.8694e-10
8.39988e-09
4.46658e-08
1.35484e-07
2.91674e-07
4.06959e-07
2.03211e-07
4.30164e-08
1.37916e-10
-5.1848e-11
-4.94584e-12
-1.39708e-13
-1.67861e-15
-1.38362e-17
-8.36778e-20
-2.99837e-22
-1.13735e-11
-9.65096e-12
-1.08902e-11
-1.22658e-11
-1.35683e-11
-1.46493e-11
-1.56775e-11
-1.64402e-11
-1.68834e-11
-1.63771e-11
-1.49212e-11
-1.35149e-11
-1.23769e-11
-1.15058e-11
-1.13269e-11
-1.18382e-11
-1.28659e-11
-1.43307e-11
-1.60885e-11
-1.80609e-11
-2.0076e-11
-2.19776e-11
-2.34216e-11
-2.41335e-11
-2.36823e-11
-2.15439e-11
-1.81464e-11
-1.12355e-11
-4.23703e-12
1.84727e-19
1.00342e-19
9.07643e-21
-1.92154e-20
-6.70419e-21
-8.36954e-21
3.20784e-21
2.09517e-19
1.23851e-18
3.05154e-18
4.75981e-18
-1.79731e-17
4.71909e-15
8.07916e-10
1.3714e-08
1.01525e-07
6.74263e-07
3.39535e-06
1.129e-05
2.29964e-05
2.96009e-05
1.42646e-05
3.01351e-06
8.45212e-08
-3.4357e-10
-3.83901e-11
-1.83889e-12
-3.20427e-14
-3.57103e-16
-2.65479e-18
-1.08477e-20
-1.64255e-11
-1.27037e-11
-1.29726e-11
-1.32325e-11
-1.34232e-11
-1.3564e-11
-1.42008e-11
-1.47617e-11
-1.49587e-11
-1.27962e-11
-4.5557e-12
-1.7301e-15
-2.60694e-16
-1.31884e-17
1.11759e-18
-1.79996e-19
-1.9647e-19
-3.75482e-19
1.35718e-12
3.58134e-12
5.10959e-12
4.22485e-12
1.04467e-12
-4.20867e-18
1.66513e-17
1.18639e-12
8.49745e-10
2.87131e-09
5.47386e-09
9.43499e-09
1.45749e-08
2.02941e-08
2.50647e-08
2.73419e-08
2.6578e-08
2.388e-08
2.1584e-08
2.01472e-08
2.05024e-08
2.27155e-08
2.69701e-08
3.64572e-08
6.22405e-08
1.61211e-07
6.32684e-07
3.26502e-06
1.75547e-05
7.22083e-05
0.000186533
0.000270777
0.00015088
3.44637e-05
1.02748e-06
-1.7773e-09
-1.82153e-10
-1.53332e-11
-3.99427e-13
-6.18387e-15
-5.83844e-17
-2.85997e-19
-1.54942e-11
-1.00771e-11
-8.04404e-12
-3.87313e-12
1.65755e-18
3.14882e-18
-5.22657e-17
7.45018e-17
-1.1161e-11
-4.44573e-14
-8.02911e-13
2.3782e-10
5.83194e-10
1.11442e-09
1.91563e-09
3.21139e-09
5.32866e-09
8.38002e-09
1.24961e-08
1.77476e-08
2.49034e-08
3.43797e-08
4.66893e-08
6.29405e-08
8.67321e-08
1.22681e-07
1.76044e-07
2.56814e-07
3.74283e-07
5.39394e-07
7.53229e-07
9.86538e-07
1.15903e-06
1.20544e-06
1.1356e-06
9.88148e-07
8.14511e-07
6.57297e-07
5.301e-07
4.56718e-07
4.25981e-07
4.6773e-07
6.10583e-07
1.09515e-06
2.86244e-06
9.83277e-06
3.99219e-05
0.000160576
0.000536645
0.000924445
0.000737346
0.000295468
5.08058e-05
1.41144e-06
-4.4337e-10
-8.82957e-11
-3.69404e-12
-8.04391e-14
-1.00028e-15
-5.68035e-18
-8.4253e-12
-1.3392e-18
1.13309e-11
6.2683e-11
1.43445e-10
1.84234e-10
7.39981e-11
-4.88438e-15
-1.71598e-13
1.95317e-09
3.29963e-09
9.28685e-09
1.73603e-08
2.89179e-08
4.90407e-08
8.41753e-08
1.41398e-07
2.21907e-07
3.26456e-07
4.56359e-07
6.16094e-07
8.21794e-07
1.151e-06
1.73038e-06
2.56762e-06
3.52748e-06
4.46903e-06
5.49015e-06
6.73184e-06
7.97796e-06
8.958e-06
9.70515e-06
9.95508e-06
1.01515e-05
1.04026e-05
1.06668e-05
1.09962e-05
1.12137e-05
1.158e-05
1.22848e-05
1.34479e-05
1.45043e-05
1.63772e-05
2.28628e-05
3.97589e-05
8.15326e-05
0.000224435
0.00071965
0.00257645
0.00662882
0.00832377
0.00695863
0.00255792
0.00012748
5.83617e-09
-3.13082e-10
-2.66956e-11
-7.97217e-13
-1.20306e-14
-8.01019e-17
1.87606e-16
7.75974e-10
3.4829e-09
5.78889e-09
1.4346e-10
1.63192e-08
1.29851e-07
5.59499e-07
1.48393e-06
2.70355e-06
1.93799e-06
3.97283e-07
4.78435e-07
7.81139e-07
1.20189e-06
1.75011e-06
2.41047e-06
3.08978e-06
3.7688e-06
4.51965e-06
5.24151e-06
5.95219e-06
6.93005e-06
8.60926e-06
1.09341e-05
1.29126e-05
1.51809e-05
1.99797e-05
2.39442e-05
2.64337e-05
2.89485e-05
3.11073e-05
3.37037e-05
3.3146e-05
2.93311e-05
2.95136e-05
3.11236e-05
3.01939e-05
2.94432e-05
3.12872e-05
4.02168e-05
6.90582e-05
0.00012632
0.000188502
0.000267742
0.000455209
0.000928994
0.00290772
0.0158393
0.050302
0.0841911
0.0736357
0.0256061
0.0012839
1.37894e-06
-2.73204e-10
-1.331e-10
-5.57071e-12
-1.03258e-13
-8.11325e-16
3.83357e-09
9.29115e-09
1.10601e-14
2.47957e-07
1.92728e-06
4.8394e-06
1.29688e-05
2.88191e-05
4.98061e-05
6.50172e-05
4.61365e-05
1.21493e-05
4.20467e-06
5.81701e-06
8.05685e-06
1.04353e-05
1.25902e-05
1.40429e-05
1.56377e-05
1.76397e-05
1.99575e-05
2.17742e-05
2.29875e-05
2.4394e-05
2.67675e-05
3.08316e-05
3.68375e-05
4.49901e-05
5.42681e-05
6.33491e-05
7.32951e-05
9.03758e-05
0.000128551
0.000184201
0.000199499
0.000188344
0.000161541
0.000142968
0.000141126
0.000137301
0.000122392
9.87189e-05
8.92551e-05
0.000127626
0.000213052
0.000252333
0.000288999
0.000560261
0.00353357
0.102979
0.428119
0.339037
0.075689
0.00279395
5.13239e-06
-3.12327e-09
-5.69655e-10
-2.92317e-11
-6.52525e-13
-6.01129e-15
-3.55787e-16
1.57405e-15
4.3503e-14
1.2415e-13
1.38955e-05
9.74664e-05
0.00037044
0.00106128
0.0017339
0.00144554
0.000566526
0.000168208
9.92164e-05
8.50854e-05
8.72275e-05
9.50516e-05
9.09383e-05
6.78149e-05
5.55865e-05
5.65424e-05
6.09085e-05
6.37713e-05
6.56992e-05
6.92199e-05
7.61069e-05
8.90048e-05
0.000110654
0.000142668
0.000186976
0.000244977
0.000309893
0.000373148
0.000440969
0.000515659
0.000596773
0.000681787
0.000758169
0.000810889
0.000838045
0.00085176
0.000835543
0.00071822
0.000447227
0.000182697
0.000138395
0.00013828
0.000138262
0.00013036
0.000918325
0.0836943
0.667114
0.566173
0.123417
0.00496577
1.68554e-05
-1.24012e-08
-2.01657e-09
-1.30682e-10
-3.63226e-12
-4.03019e-14
1.09256e-16
-3.76079e-15
9.32608e-15
2.0317e-14
1.08528e-05
6.98182e-05
0.000200229
0.000411892
0.000744867
0.0010019
0.000815955
0.00037464
0.000215036
0.000218326
0.000248847
0.00029497
0.000328764
0.000327327
0.000322258
0.000299551
0.000240962
0.000155652
0.000105108
0.00010398
0.000121658
0.000159586
0.000212052
0.000273995
0.000356463
0.000469786
0.000601492
0.000716431
0.000784984
0.000813785
0.000843537
0.000872109
0.000894045
0.000908981
0.000923778
0.000932277
0.000873709
0.000718455
0.000568773
0.000538309
0.000547546
0.000530365
0.000352544
0.000130363
0.00139491
0.0940958
0.589101
0.468853
0.0993829
0.00405854
1.34608e-05
-1.07433e-08
-2.19988e-09
-1.52648e-10
-4.42734e-12
-5.07085e-14
4.32793e-14
1.52274e-14
-1.63232e-14
1.32194e-14
5.40827e-07
1.59254e-05
0.000100694
0.000571014
0.00184579
0.00240227
0.00162477
0.000362826
2.79137e-05
1.65469e-05
2.58396e-05
5.34085e-05
8.9037e-05
0.00011303
0.000126878
0.000126283
0.000105398
8.15387e-05
7.99893e-05
0.000101826
0.000135854
0.000136298
0.000145875
0.000215421
0.000264412
0.000257025
0.000243917
0.00024471
0.000253022
0.000267382
0.000289992
0.000320948
0.00034601
0.000350103
0.000355891
0.000360657
0.000335781
0.000252984
0.000182615
0.000183124
0.000196773
0.00020005
0.000135305
9.97598e-05
0.00116977
0.102789
0.660153
0.503597
0.0928402
0.00281332
2.64051e-06
-8.67998e-09
-2.7068e-09
-1.72949e-10
-4.8424e-12
-5.50936e-14
2.30369e-07
4.84472e-08
6.01252e-08
5.7717e-07
6.29683e-07
3.47794e-07
3.47081e-07
5.94241e-05
0.00111791
0.00135077
0.000577199
1.59828e-05
8.3316e-06
1.51939e-05
2.36507e-05
2.95125e-05
3.49615e-05
4.2207e-05
5.39618e-05
5.50858e-05
4.65356e-05
5.58117e-05
0.000140223
0.000161645
0.000117607
6.13535e-05
6.13729e-05
0.000223562
0.000486098
0.000408202
0.000204182
0.000107891
9.51043e-05
0.000147469
0.00065602
0.00077223
0.00074882
0.0003373
0.00018886
0.000200659
0.000230772
0.000207225
0.000151532
0.000113239
0.000125707
0.000146004
9.97703e-05
9.9742e-05
0.000681227
0.072895
0.748692
0.78342
0.20844
0.00817159
1.9224e-05
-2.31757e-08
-2.42237e-09
-1.28301e-10
-3.10563e-12
-3.05013e-14
2.21133e-07
9.37992e-07
1.78377e-06
3.57646e-06
7.67995e-06
3.08354e-05
0.000194986
0.00118536
0.00577995
0.0137843
0.0125143
0.00509232
0.000551638
2.22033e-05
1.1921e-05
1.19264e-05
1.18944e-05
1.18692e-05
1.18942e-05
1.50931e-05
2.14245e-05
3.02529e-05
9.49426e-05
0.00016169
0.00014534
6.13731e-05
6.1359e-05
6.69366e-05
0.000180543
0.000647872
0.000701223
0.000337177
0.000113668
7.79309e-05
8.09089e-05
0.00017552
0.000650061
0.00073991
0.000512275
0.000150312
8.42772e-05
9.01935e-05
0.000152816
0.000544249
0.00049754
0.000196298
9.97449e-05
9.97542e-05
0.000724619
0.0687244
0.713741
0.736622
0.206521
0.0085989
2.24978e-05
-2.30113e-08
-2.26969e-09
-1.2063e-10
-2.95314e-12
-2.92633e-14
1.87515e-13
-2.13398e-13
1.3973e-05
2.86951e-05
3.97242e-05
4.47953e-05
0.000150033
0.00162524
0.0118821
0.0465131
0.0574934
0.0338587
0.00656733
0.000249709
1.29022e-05
1.71236e-05
4.20626e-05
9.11374e-05
0.000128998
0.00013188
0.000122885
0.000101329
7.08521e-05
6.019e-05
5.65865e-05
6.23573e-05
8.14763e-05
0.0001099
0.00014749
0.000205169
0.000247901
0.000246444
0.000248428
0.000259077
0.000269906
0.000280793
0.000307522
0.000347617
0.000349477
0.000329413
0.000271614
0.000221308
0.000242558
0.00037922
0.000399313
0.000336557
0.00013639
0.000150276
0.00437181
0.190422
0.554893
0.331175
0.0510111
0.001191
-5.04147e-08
-1.54936e-08
-2.04624e-09
-1.22683e-10
-3.51154e-12
-4.10202e-14
2.94101e-13
-1.89618e-12
0.000648534
0.00153811
0.00106412
0.000244653
0.000287916
0.00118392
0.00730322
0.032964
0.0712181
0.0578197
0.0183082
0.0011453
7.40422e-05
0.000118594
0.000141756
0.000136631
0.000110898
9.10031e-05
8.99839e-05
8.59138e-05
6.17091e-05
2.85652e-05
2.55298e-05
2.90518e-05
0.000138614
0.000506713
0.000548895
0.000548787
0.000366637
0.000221009
0.000136734
9.73099e-05
0.000105438
0.000220108
0.000563553
0.000940401
0.000782699
0.000382967
0.000302281
0.000327281
0.000377317
0.000424534
0.000406465
0.000320441
0.000117284
0.000161874
0.00693976
0.25742
0.486293
0.223626
0.021997
0.000263445
-5.51356e-08
-8.95059e-09
-1.03846e-09
-5.91775e-11
-1.6466e-12
-1.87936e-14
-1.81813e-12
-4.49278e-11
0.000142733
3.16072e-05
1.04694e-05
2.98501e-05
0.000267104
0.00227299
0.0121169
0.0229209
0.0174936
0.00593837
0.000854678
7.81471e-05
5.39516e-05
6.78541e-05
8.00986e-05
9.66702e-05
0.000123165
0.000137453
0.000128822
8.51364e-05
4.6719e-05
3.90147e-05
0.000101025
0.000542859
0.000610421
0.000610299
0.000391046
0.000183311
0.000206443
0.000237233
0.000350232
0.00133621
0.00188088
0.00100667
0.000318281
0.000228806
0.000235779
0.000261396
0.000349579
0.000378351
0.000381943
0.000382122
0.000322306
0.000170025
7.37214e-05
0.000119919
0.00651056
0.288055
0.574792
0.265956
0.0255212
0.000305871
-5.95732e-08
-8.64134e-09
-8.90114e-10
-4.72269e-11
-1.25666e-12
-1.39385e-14
6.88877e-11
1.47951e-10
-3.45347e-13
-7.26585e-14
6.19508e-07
8.20222e-06
4.59138e-05
0.000221746
0.000567923
0.00058485
0.000242976
4.35692e-05
6.75041e-06
7.37746e-06
1.26415e-05
1.75605e-05
2.17355e-05
2.46599e-05
2.50448e-05
2.2002e-05
1.73134e-05
1.84588e-05
4.06538e-05
0.000110546
0.000132444
0.000133008
0.000114452
7.67162e-05
4.36389e-05
6.0066e-05
0.000198631
0.000472311
0.000533153
0.000533152
0.000460588
0.000225726
4.96763e-05
2.89024e-05
4.13135e-05
8.09377e-05
0.000104534
0.000102457
0.000108467
0.000128955
0.000129222
0.000104294
7.3734e-05
0.000243555
0.00891598
0.14321
0.301806
0.195968
0.0373102
0.00103181
4.54299e-07
-9.69706e-10
-4.3598e-10
-1.96423e-11
-4.25596e-13
-3.93065e-15
-2.76883e-12
1.69589e-10
6.68269e-10
1.11814e-09
3.04574e-15
8.16051e-15
1.00024e-15
-6.55301e-13
-7.74604e-11
1.85191e-10
-2.23628e-09
-3.26818e-09
1.16033e-07
3.47039e-07
5.58123e-07
7.87418e-07
9.88791e-07
1.09814e-06
1.05314e-06
1.04617e-06
2.16664e-06
5.18011e-06
1.01033e-05
1.14513e-05
6.33003e-06
4.1372e-06
5.38964e-06
7.9731e-06
1.24444e-05
1.7261e-05
1.97577e-05
2.06392e-05
2.04341e-05
1.60142e-05
1.3411e-05
1.05178e-05
1.00959e-05
1.19775e-05
1.49964e-05
1.83806e-05
2.18806e-05
2.80353e-05
3.89341e-05
5.31004e-05
5.93723e-05
7.89453e-05
0.000241825
0.00171971
0.0122041
0.0385196
0.0696043
0.0659275
0.0240671
0.00121042
1.77732e-06
-2.21953e-10
-1.02477e-10
-4.26952e-12
-7.93676e-14
-6.22373e-16
-1.45742e-10
-1.24484e-10
-9.98827e-11
-3.38555e-11
1.04222e-16
2.82334e-16
1.11854e-16
-2.96275e-15
-1.98337e-13
-1.04295e-10
-2.00835e-10
-5.84501e-11
-9.33193e-12
-3.17195e-14
1.22788e-14
-9.02033e-17
-1.50331e-16
-6.6507e-16
-3.70513e-15
5.62277e-10
1.67949e-08
5.35387e-08
4.81065e-08
3.83612e-09
3.66389e-14
-3.76057e-17
-6.37055e-18
-5.77706e-17
-3.23728e-16
-1.03689e-15
-1.98397e-15
-2.72406e-15
-2.89549e-15
-4.42201e-15
-9.87264e-15
-7.16796e-15
1.12093e-13
3.31482e-12
3.29431e-14
5.35593e-14
9.4425e-14
2.04347e-08
6.52066e-07
3.79723e-06
1.33155e-05
3.34019e-05
7.18952e-05
0.000214509
0.00100842
0.00397559
0.00785647
0.00955975
0.00594014
0.000488362
2.58146e-07
-1.87887e-10
-2.54558e-11
-7.90821e-13
-1.19654e-14
-7.9075e-17
-1.73494e-10
-1.99664e-10
-2.43589e-10
-2.79664e-10
-3.16446e-10
-3.57414e-10
-4.16232e-10
-4.77991e-10
-5.42713e-10
-5.97888e-10
-6.81782e-10
-8.22672e-10
-1.01483e-09
-1.28171e-09
-1.52858e-09
-1.73344e-09
-1.93883e-09
-2.14832e-09
-2.35447e-09
-2.50169e-09
-2.38763e-09
-1.83577e-09
-2.58275e-09
-3.36228e-09
-3.43318e-09
-3.3701e-09
-3.24449e-09
-3.07802e-09
-2.87332e-09
-2.63056e-09
-2.34862e-09
-2.02324e-09
-1.6468e-09
-1.1991e-09
-6.64098e-10
-1.60364e-10
8.35202e-16
1.50966e-09
5.44195e-09
1.03175e-08
1.82435e-08
3.30505e-08
9.30654e-08
2.56429e-07
6.17203e-07
9.91432e-07
1.39109e-06
1.73574e-06
1.81511e-05
0.000126131
0.000291935
0.000417561
0.000384345
4.4218e-05
6.89867e-10
-1.03225e-10
-5.35287e-12
-1.19314e-13
-1.48906e-15
-8.43637e-18
-1.20609e-10
-1.61238e-10
-2.22209e-10
-2.90521e-10
-3.67141e-10
-4.53496e-10
-5.57357e-10
-6.7339e-10
-7.96232e-10
-9.11086e-10
-1.05001e-09
-1.21316e-09
-1.397e-09
-1.59276e-09
-1.80121e-09
-2.019e-09
-2.24878e-09
-2.48189e-09
-2.70934e-09
-2.92906e-09
-3.1239e-09
-3.28607e-09
-3.41964e-09
-3.50208e-09
-3.53478e-09
-3.54701e-09
-3.56543e-09
-3.60368e-09
-3.66167e-09
-3.72554e-09
-3.76345e-09
-3.7506e-09
-3.66305e-09
-3.47404e-09
-3.14768e-09
-2.64821e-09
-1.97416e-09
-1.21982e-09
-5.76268e-10
-1.41717e-10
-6.28928e-16
2.70905e-09
1.72303e-08
4.04093e-08
1.01201e-07
1.73887e-07
1.91375e-07
1.50795e-07
4.10474e-07
1.10132e-06
1.88071e-06
2.54621e-06
3.01572e-06
2.65929e-07
-3.56794e-10
-4.22282e-11
-1.22274e-12
-2.0725e-14
-2.17765e-16
-1.16908e-18
-4.66272e-11
-5.69944e-11
-7.91008e-11
-1.07581e-10
-1.43516e-10
-1.86772e-10
-2.38146e-10
-2.95706e-10
-3.55946e-10
-4.12655e-10
-4.61657e-10
-5.02511e-10
-5.44639e-10
-5.93879e-10
-6.58685e-10
-7.37221e-10
-8.28214e-10
-9.23708e-10
-1.02041e-09
-1.11004e-09
-1.18981e-09
-1.25736e-09
-1.31112e-09
-1.36324e-09
-1.43037e-09
-1.52578e-09
-1.64324e-09
-1.78542e-09
-1.94489e-09
-2.10415e-09
-2.23425e-09
-2.30435e-09
-2.28318e-09
-2.14081e-09
-1.84769e-09
-1.369e-09
-8.77352e-10
-5.5266e-10
-1.99778e-10
2.1142e-10
6.48384e-09
4.07049e-08
1.525e-07
3.2005e-07
3.61301e-07
1.62517e-07
2.33488e-08
-2.95635e-10
3.09309e-11
4.33921e-09
7.81878e-09
1.08466e-08
1.32013e-09
-3.59549e-10
-9.82353e-11
-4.95775e-12
-8.47164e-14
-9.92213e-16
-8.08478e-18
-3.68362e-20
-8.73736e-12
-8.30246e-12
-1.09768e-11
-1.48929e-11
-2.07757e-11
-2.84563e-11
-3.78419e-11
-4.87424e-11
-6.05346e-11
-7.20761e-11
-7.97119e-11
-8.40463e-11
-8.80143e-11
-9.38931e-11
-1.03521e-10
-1.16884e-10
-1.34077e-10
-1.53503e-10
-1.74636e-10
-1.95598e-10
-2.16371e-10
-2.36819e-10
-2.57714e-10
-2.82659e-10
-3.16258e-10
-3.58452e-10
-4.09149e-10
-4.68581e-10
-5.34012e-10
-5.9952e-10
-6.55713e-10
-6.93087e-10
-7.0385e-10
-6.85368e-10
-6.3946e-10
-5.72056e-10
-5.14574e-10
-4.64755e-10
-3.64252e-10
-2.33026e-10
-1.01238e-10
-1.28732e-14
-5.52127e-14
-8.77001e-14
7.87502e-12
1.87304e-11
-7.68075e-12
-6.11683e-12
1.35293e-10
2.46107e-10
4.74222e-14
-9.45306e-11
-6.05052e-10
-8.23464e-11
-1.00201e-11
-2.59524e-13
-2.77306e-15
-2.30182e-17
-1.46736e-19
-5.8702e-22
-1.80286e-12
-2.83249e-13
-3.69141e-13
-4.80596e-13
-7.30968e-13
-1.13678e-12
-1.67002e-12
-2.34728e-12
-3.12795e-12
-3.9537e-12
-4.39062e-12
-4.51973e-12
-4.53728e-12
-4.73156e-12
-5.22423e-12
-6.0769e-12
-7.32993e-12
-8.88061e-12
-1.06552e-11
-1.24941e-11
-1.44263e-11
-1.64904e-11
-1.88282e-11
-2.18768e-11
-2.62025e-11
-3.16949e-11
-3.85661e-11
-4.70905e-11
-5.73712e-11
-6.92705e-11
-8.23352e-11
-9.59938e-11
-1.09799e-10
-1.23974e-10
-1.3954e-10
-1.58219e-10
-1.82069e-10
-2.11922e-10
-2.44874e-10
-2.68649e-10
-2.56058e-10
-1.72761e-10
-2.88354e-11
1.14816e-10
2.47734e-10
2.14201e-10
-1.51173e-14
-9.47134e-11
-2.28248e-10
-2.59969e-10
-2.44725e-10
-1.97745e-10
-7.65251e-11
-7.24017e-12
-4.17302e-13
-5.99614e-15
-4.39928e-17
-2.91766e-19
-1.68367e-21
-6.23952e-24
-4.92164e-13
-1.73685e-13
-2.51952e-13
-3.18483e-13
-4.25956e-13
-5.52006e-13
-7.19062e-13
-9.17342e-13
-1.16736e-12
-1.46343e-12
-1.8249e-12
-2.25283e-12
-2.76307e-12
-3.36273e-12
-4.07413e-12
-4.90803e-12
-5.88806e-12
-7.02921e-12
-8.35561e-12
-9.89122e-12
-1.16512e-11
-1.36611e-11
-1.5949e-11
-1.85574e-11
-2.15121e-11
-2.47826e-11
-2.81784e-11
-3.1251e-11
-3.3219e-11
-3.31514e-11
-3.09166e-11
-2.75491e-11
-2.43518e-11
-2.19044e-11
-2.0356e-11
-1.99002e-11
-2.0809e-11
-2.31806e-11
-2.67149e-11
-3.05741e-11
-3.32322e-11
-3.26544e-11
-2.72415e-11
-1.86677e-11
-1.21224e-11
-1.16242e-11
-1.92991e-11
-3.73923e-11
-6.01122e-11
-8.17736e-11
-9.31103e-11
-8.54827e-11
-3.93267e-11
-5.87129e-12
-4.02347e-13
-1.14315e-14
-1.06576e-16
-7.61637e-19
-4.40145e-21
-1.56935e-23
-1.7161e-12
-3.30422e-12
-4.53292e-12
-6.05412e-12
-7.98235e-12
-1.01479e-11
-1.27936e-11
-1.58025e-11
-1.94709e-11
-2.36372e-11
-2.8576e-11
-3.42454e-11
-4.07063e-11
-4.80584e-11
-5.62736e-11
-6.53314e-11
-7.51257e-11
-8.52602e-11
-9.55019e-11
-1.05443e-10
-1.14467e-10
-1.22079e-10
-1.27327e-10
-1.29286e-10
-1.26251e-10
-1.16232e-10
-9.68725e-11
-6.69308e-11
-2.79597e-11
1.47091e-11
2.14412e-10
6.54717e-10
1.09239e-09
1.36647e-09
1.44242e-09
1.41183e-09
1.20161e-09
8.46341e-10
4.26486e-10
1.59028e-10
6.45161e-11
4.77723e-11
1.43109e-10
8.63398e-10
2.70184e-09
4.89439e-09
5.97879e-09
5.58384e-09
3.82214e-09
3.01162e-09
1.76005e-09
5.26399e-10
1.84287e-11
-1.67802e-11
-4.14434e-12
-2.92431e-13
-4.48769e-15
-4.32072e-17
-3.03916e-19
-1.22736e-21
5.04955e-12
-8.6542e-12
-1.33512e-11
-1.89622e-11
-2.54492e-11
-3.29649e-11
-4.14834e-11
-5.10642e-11
-6.18084e-11
-7.33376e-11
-8.58398e-11
-9.86898e-11
-1.11392e-10
-1.23199e-10
-1.32949e-10
-1.39333e-10
-1.41167e-10
-1.37347e-10
-1.27748e-10
-1.12671e-10
-9.2273e-11
-6.67595e-11
-3.62897e-11
1.76785e-13
6.28947e-11
2.84417e-10
5.36931e-10
9.53365e-10
1.74206e-09
3.99964e-09
1.47971e-08
5.16847e-08
1.0347e-07
1.38939e-07
1.70054e-07
2.07032e-07
2.32226e-07
2.25246e-07
1.56712e-07
1.19417e-07
1.13897e-07
1.64669e-07
3.02151e-07
5.91596e-07
1.03278e-06
1.36935e-06
1.33757e-06
8.51421e-07
5.89497e-07
5.1497e-07
4.58589e-07
3.9142e-07
2.34332e-07
2.26178e-08
-2.49771e-11
-3.03417e-12
-8.85185e-14
-1.17558e-15
-1.01596e-17
-4.58484e-20
-1.61794e-11
-3.42536e-11
-5.37233e-11
-7.57009e-11
-9.72851e-11
-1.20055e-10
-1.41386e-10
-1.62534e-10
-1.81677e-10
-1.98825e-10
-2.1382e-10
-2.27048e-10
-2.39133e-10
-2.51513e-10
-2.64361e-10
-2.76225e-10
-2.82991e-10
-2.77621e-10
-2.53835e-10
-2.09994e-10
-1.5856e-10
-1.15692e-10
-7.55096e-11
-3.37211e-11
3.84016e-12
8.95756e-11
2.55239e-10
5.3699e-10
1.34438e-09
4.00603e-09
1.1649e-08
2.69065e-08
4.61906e-08
6.3801e-08
7.91051e-08
9.58625e-08
1.2149e-07
1.74031e-07
3.08395e-07
6.64642e-07
1.87221e-06
6.22319e-06
1.93392e-05
4.80098e-05
8.67022e-05
0.000114301
6.58732e-05
2.70743e-05
7.5322e-06
8.77503e-06
1.62187e-05
2.36368e-05
2.5827e-05
8.47048e-06
4.80805e-08
-1.42151e-11
-1.09369e-12
-2.17932e-14
-2.43159e-16
-1.3155e-18
-8.07323e-11
-1.29905e-10
-1.88207e-10
-2.48277e-10
-3.04924e-10
-3.63409e-10
-4.20812e-10
-4.78931e-10
-5.3711e-10
-5.90762e-10
-6.41868e-10
-6.8711e-10
-7.3073e-10
-7.75153e-10
-8.23606e-10
-8.72726e-10
-9.09706e-10
-9.05847e-10
-8.36463e-10
-6.9528e-10
-4.97218e-10
-2.90119e-10
-1.35818e-10
-5.58963e-11
-1.26168e-11
1.18246e-11
1.49456e-10
4.08795e-10
9.55242e-10
2.20239e-09
4.38789e-09
7.13092e-09
1.00268e-08
1.31993e-08
1.64808e-08
2.08487e-08
3.02076e-08
5.62927e-08
1.2475e-07
3.35312e-07
1.16674e-06
4.47621e-06
1.45617e-05
3.94391e-05
7.41995e-05
0.000100659
0.000106464
8.9783e-05
3.39246e-05
7.77609e-05
0.000252768
0.000479736
0.000633634
0.000312164
5.04841e-06
-9.69898e-12
-8.26707e-12
-2.66581e-13
-3.97102e-15
-2.58306e-17
-9.87724e-11
-1.22483e-10
-1.31311e-10
-1.34182e-10
-1.41505e-10
-1.46439e-10
-1.50684e-10
-1.52109e-10
-1.59639e-10
-1.69854e-10
-1.80273e-10
-1.87907e-10
-1.93039e-10
-2.00771e-10
-1.8196e-10
-1.48535e-10
-9.37544e-11
-2.89278e-11
-1.60431e-17
-3.53067e-17
-6.93516e-17
-1.26933e-16
-1.59854e-16
-8.74332e-17
7.51525e-11
1.87142e-09
5.72398e-09
1.2004e-08
2.11584e-08
3.26244e-08
4.28992e-08
4.78991e-08
4.86636e-08
4.76036e-08
4.69038e-08
5.82682e-08
9.48735e-08
1.40827e-07
1.36544e-07
2.22921e-07
5.89493e-07
1.65388e-06
5.57297e-06
2.63866e-05
4.38942e-05
5.68947e-05
6.73717e-05
8.48783e-05
0.00013666
0.000459433
0.00200417
0.00494815
0.00641005
0.00277033
5.47984e-05
2.12353e-09
-2.50358e-11
-1.23426e-12
-2.0163e-14
-1.34585e-16
-5.97671e-11
6.64754e-17
2.4028e-10
-1.90327e-16
-2.98904e-16
6.89794e-16
1.29945e-11
1.0011e-10
2.47914e-10
6.92027e-10
6.12634e-10
5.09178e-10
6.79213e-10
2.42798e-09
3.94825e-09
4.72764e-09
6.09424e-09
8.20088e-09
9.56341e-09
9.66635e-09
9.87654e-09
1.24207e-08
2.57971e-08
4.90833e-08
7.81229e-08
1.24168e-07
1.9578e-07
3.05994e-07
4.7497e-07
7.10034e-07
1.02117e-06
1.4163e-06
1.89291e-06
2.39403e-06
2.75272e-06
2.79549e-06
2.3387e-06
1.8122e-06
1.5e-06
1.31606e-06
1.54865e-06
2.72382e-06
6.61982e-06
6.52333e-06
5.92285e-06
7.6691e-06
1.7235e-05
0.000107371
0.000731184
0.00416179
0.0180748
0.0405366
0.0358617
0.00750414
9.42118e-05
-1.31579e-09
-1.43107e-10
-4.96852e-12
-8.30332e-14
-5.8355e-16
4.16473e-11
2.06197e-09
1.01319e-08
6.17554e-08
1.73957e-07
2.91679e-07
3.78487e-07
4.822e-07
6.1364e-07
7.47327e-07
7.86214e-07
7.67424e-07
7.97531e-07
9.12492e-07
1.09651e-06
1.26742e-06
1.39754e-06
1.56446e-06
1.80345e-06
2.03504e-06
2.20995e-06
2.30688e-06
2.44164e-06
2.69842e-06
3.1367e-06
3.50084e-06
3.78992e-06
4.05788e-06
4.73081e-06
6.12844e-06
7.99381e-06
9.90477e-06
1.14232e-05
1.24272e-05
1.31279e-05
1.37403e-05
1.50044e-05
1.57031e-05
1.57527e-05
1.56673e-05
1.66277e-05
2.10591e-05
2.97997e-05
3.45142e-05
3.16181e-05
1.34454e-05
8.43174e-06
6.41045e-05
0.00206618
0.0278133
0.142203
0.183144
0.0885374
0.00649692
2.79388e-05
-6.97611e-09
-4.7218e-10
-1.80428e-11
-3.49458e-13
-2.84116e-15
5.6739e-09
3.03778e-08
6.90565e-14
6.53404e-07
1.4227e-06
1.56993e-06
2.35201e-06
3.47028e-06
4.80608e-06
6.04713e-06
7.67933e-06
9.77448e-06
1.16622e-05
1.26967e-05
1.25657e-05
1.22573e-05
1.22029e-05
1.27565e-05
1.47559e-05
1.79728e-05
2.0808e-05
2.33555e-05
2.67944e-05
3.17793e-05
3.84901e-05
4.6056e-05
5.55358e-05
7.03302e-05
8.736e-05
9.83758e-05
0.000100732
9.8763e-05
9.11307e-05
7.98038e-05
7.48034e-05
7.79426e-05
8.90392e-05
9.76177e-05
9.84064e-05
0.000100285
0.000103113
0.000101523
0.000102559
0.000116735
0.000143858
0.000134598
4.46577e-05
7.27043e-05
0.00250302
0.1093
0.568363
0.464199
0.0872494
0.00213662
6.48103e-07
-6.52467e-09
-1.12044e-09
-4.80947e-11
-1.07164e-12
-1.02997e-14
3.29714e-12
1.02396e-11
1.57107e-05
6.27267e-05
5.28548e-05
6.53866e-06
1.0484e-05
1.87044e-05
2.77168e-05
4.10205e-05
5.94108e-05
7.71012e-05
9.16868e-05
0.000113332
0.000145415
0.000182838
0.000211048
0.000215748
0.000196233
0.000177665
0.000170867
0.000157715
0.000134283
0.000119121
0.000120761
0.000142538
0.000202096
0.000300588
0.000438764
0.000624854
0.000853285
0.00108749
0.00129292
0.00145974
0.00159427
0.00169521
0.00178034
0.00185478
0.00189806
0.0018629
0.00169659
0.00133713
0.00098085
0.000907867
0.000940428
0.00091905
0.000501578
0.000235134
0.00412601
0.2532
0.859922
0.566158
0.0728607
0.00136349
-2.19979e-07
-2.31401e-08
-2.05085e-09
-1.0472e-10
-2.83897e-12
-3.26272e-14
4.94773e-14
3.81942e-12
3.39132e-11
0.000173153
0.000488777
0.000366346
8.64561e-05
1.0425e-05
7.20422e-06
2.77995e-05
4.89412e-05
5.39205e-05
5.72947e-05
6.43607e-05
7.37631e-05
8.04005e-05
8.46842e-05
8.97219e-05
9.68226e-05
0.000108134
0.000121058
0.000130923
0.000138682
0.000147931
0.000164725
0.00020551
0.000275073
0.000360776
0.000458688
0.000558747
0.00064694
0.000733098
0.000826395
0.000929054
0.00105292
0.00123126
0.00149306
0.00179892
0.00195069
0.00192566
0.00174325
0.00138812
0.00108891
0.000993802
0.000915056
0.000734565
0.000287998
0.000235167
0.00633815
0.337903
0.698662
0.331206
0.0338095
0.000490905
-1.07954e-07
-1.41536e-08
-1.60817e-09
-9.29897e-11
-2.68532e-12
-3.20224e-14
-2.52413e-13
0.000830776
0.00318789
0.0129054
0.020489
0.0141414
0.00279651
0.000147967
0.000311573
0.000620452
0.000492261
0.000135855
5.89978e-05
5.69813e-05
5.98212e-05
6.53034e-05
5.8966e-05
4.61493e-05
6.65171e-05
0.000219652
0.000265246
0.000253774
6.71652e-05
3.85282e-05
0.000132546
0.00031663
0.00031634
0.000304959
0.000315645
0.000345328
0.000385227
0.000431303
0.000481751
0.000540772
0.000626376
0.000794882
0.00111707
0.00137336
0.00136105
0.00119065
0.000917854
0.000790606
0.0007279
0.000594451
0.000427738
0.000260575
0.000169532
0.000277748
0.0209058
0.407871
0.474465
0.165757
0.0108658
8.14043e-05
-4.13956e-08
-7.25734e-09
-1.10601e-09
-7.08168e-11
-2.12214e-12
-2.56207e-14
2.03272e-13
-8.25579e-14
0.000178552
0.00148001
0.00307791
0.00279193
0.00164537
0.00240576
0.00563863
0.0065248
0.00393199
0.000693773
8.32383e-05
8.21812e-05
9.00195e-05
8.7369e-05
7.00835e-05
4.61884e-05
5.04288e-05
0.000100576
0.000241942
0.000234853
0.000104076
1.41273e-05
1.54537e-05
8.04277e-05
0.000282296
0.000303873
0.000228729
0.000226275
0.000230352
0.00022972
0.000225117
0.00021766
0.000212136
0.000211969
0.00022087
0.000268786
0.00039123
0.000550795
0.000598734
0.000557388
0.000418116
0.000290442
0.000299822
0.000279871
0.000169625
0.000235544
0.0118504
0.313775
0.479101
0.210365
0.0200934
0.000240655
-6.49447e-08
-7.72446e-09
-1.18539e-09
-7.68888e-11
-2.29833e-12
-2.75802e-14
6.1993e-09
3.85855e-13
-4.66518e-13
3.24583e-05
0.000121834
0.000290483
0.00080299
0.00217891
0.00446397
0.00419342
0.00172145
0.000164244
3.15776e-05
3.48916e-05
4.21867e-05
4.92118e-05
5.34103e-05
5.57013e-05
5.96256e-05
6.47076e-05
6.52294e-05
7.18369e-05
9.79243e-05
0.000124904
0.000141004
0.000154079
0.000170843
0.000190632
0.000215611
0.000243329
0.000256133
0.000254544
0.000241026
0.000212319
0.000195151
0.000196741
0.000210193
0.000255306
0.000370606
0.000527027
0.000556946
0.000507159
0.000365589
0.000260849
0.000253893
0.000248834
0.000202369
0.000165131
0.00232954
0.18168
0.72393
0.480005
0.0788084
0.00223651
1.77346e-06
-6.56446e-09
-2.21025e-09
-1.41709e-10
-4.0557e-12
-4.6876e-14
1.48323e-07
3.90529e-07
8.64318e-07
8.49864e-07
2.7731e-06
1.48042e-05
5.47029e-05
6.95542e-05
2.58121e-05
6.68994e-06
6.28098e-06
6.46724e-06
1.44427e-05
1.95122e-05
1.68992e-05
1.33904e-05
1.33414e-05
1.339e-05
1.33508e-05
1.33966e-05
1.33623e-05
1.34063e-05
1.55927e-05
4.74039e-05
6.2914e-05
6.29127e-05
9.01814e-05
0.000228473
0.000253818
0.000214357
0.000177618
0.000153784
0.000142812
0.000148176
0.000194073
0.000264572
0.000273351
0.000260461
0.000249434
0.000243234
0.000228684
0.000190653
0.000144441
0.000153632
0.000192577
0.000211952
0.000165134
0.000165526
0.00113488
0.0954599
0.74393
0.680733
0.159517
0.00650135
2.18588e-05
-1.96568e-08
-2.73938e-09
-1.71295e-10
-4.69611e-12
-5.14447e-14
1.29564e-06
2.91791e-06
2.91034e-06
3.13078e-06
3.65233e-06
6.14995e-06
1.04712e-05
1.3849e-05
1.75191e-05
1.90717e-05
2.29901e-05
2.93396e-05
3.5199e-05
4.09186e-05
5.19408e-05
7.20634e-05
8.86607e-05
8.64288e-05
7.03726e-05
4.98535e-05
3.27164e-05
2.33824e-05
3.86288e-05
8.89499e-05
0.000184269
0.000252745
0.000290816
0.000236398
0.000142261
0.000155626
0.0004251
0.000750135
0.000441714
0.000176109
0.000177223
0.000310737
0.000443836
0.000288419
0.000177632
0.000183958
0.00018868
0.000230585
0.000375813
0.00048519
0.000414596
0.000354192
0.000218348
0.000165076
0.000983015
0.0472746
0.392118
0.420436
0.142943
0.00810797
3.52467e-05
-1.37376e-08
-1.21719e-09
-5.93556e-11
-1.33475e-12
-1.22011e-14
1.7131e-09
1.91211e-08
5.96169e-12
5.5387e-13
4.64606e-12
5.25605e-15
-2.18485e-14
-3.57011e-12
1.16547e-10
5.51404e-09
2.40134e-08
7.69226e-06