/*--------------------------------*- C++ -*----------------------------------*\
| =========                 |                                                 |
| \\      /  F ield         | OpenFOAM: The Open Source CFD Toolbox           |
|  \\    /   O peration     | Version:  2.1.1                                 |
|   \\  /    A nd           | Web:      www.OpenFOAM.org                      |
|    \\/     M anipulation  |                                                 |
\*---------------------------------------------------------------------------*/
FoamFile
{
    version     2.0;
    format      ascii;
    class       volScalarField;
    location    "0.0012";
    object      criterion2;
}
// * * * * * * * * * * * * * * * * * * * * * * * * * * * * * * * * * * * * * //

dimensions      [1 2 -2 0 0 0 0];

internalField   nonuniform List<scalar> 
36520
(
1.24379e-09
5.45448e-09
8.88978e-09
1.00414e-08
1.10144e-08
1.17616e-08
1.25105e-08
1.3117e-08
1.34118e-08
1.32621e-08
1.27601e-08
1.2209e-08
1.17495e-08
1.146e-08
1.12703e-08
1.11159e-08
1.0951e-08
1.07618e-08
1.05324e-08
1.02749e-08
9.9857e-09
9.70321e-09
9.42483e-09
9.18268e-09
8.97825e-09
8.84598e-09
8.79458e-09
8.85037e-09
9.01655e-09
9.31014e-09
9.71365e-09
1.02133e-08
1.07655e-08
1.13478e-08
1.19371e-08
1.25908e-08
1.33813e-08
1.44515e-08
1.60422e-08
1.84696e-08
2.22142e-08
2.78228e-08
3.55475e-08
4.56135e-08
5.92578e-08
7.82712e-08
1.11771e-07
1.70825e-07
2.64393e-07
3.94325e-07
5.3738e-07
8.03361e-07
1.28641e-06
1.45931e-06
8.7229e-07
4.99685e-07
2.28921e-07
1.08035e-07
2.25567e-08
-1.59107e-08
6.11076e-09
-6.52397e-10
6.16053e-10
5.69805e-10
7.53151e-10
1.06476e-09
1.80983e-09
2.87354e-09
4.14501e-09
4.42666e-09
3.5912e-09
2.50051e-09
1.57487e-09
1.10554e-09
1.03144e-09
1.17725e-09
1.43528e-09
1.68789e-09
1.88069e-09
1.98613e-09
1.99388e-09
2.03155e-09
2.09537e-09
2.29514e-09
2.61988e-09
3.15415e-09
3.89252e-09
4.90095e-09
6.14435e-09
7.6103e-09
9.11342e-09
1.04055e-08
1.11389e-08
1.11859e-08
1.07908e-08
1.01875e-08
9.54005e-09
8.96119e-09
8.52437e-09
8.23508e-09
8.05243e-09
7.93831e-09
7.82524e-09
7.75779e-09
7.94196e-09
8.36283e-09
8.89389e-09
9.56895e-09
1.01987e-08
1.03701e-08
9.58963e-09
8.406e-09
6.10364e-09
4.7149e-09
1.84699e-08
7.42504e-08
2.33452e-08
-3.92437e-09
-1.93836e-08
3.10931e-07
-3.02419e-09
-3.79426e-09
-2.59989e-09
-2.37207e-09
-1.95423e-09
-1.14918e-09
5.29085e-10
2.64636e-09
3.57279e-09
2.42048e-09
2.41321e-09
3.21562e-09
2.13757e-09
1.39971e-09
1.46131e-09
1.87861e-09
2.45832e-09
2.85306e-09
2.99781e-09
2.9033e-09
2.61802e-09
2.42108e-09
2.25555e-09
2.27899e-09
2.37424e-09
2.58218e-09
2.78564e-09
2.95885e-09
3.02038e-09
3.00291e-09
2.90295e-09
2.76946e-09
2.60999e-09
2.42479e-09
2.2369e-09
2.06379e-09
1.89718e-09
1.77313e-09
1.72453e-09
1.78081e-09
1.9586e-09
2.26781e-09
2.67828e-09
3.16653e-09
3.75942e-09
4.41384e-09
4.99923e-09
5.48527e-09
5.79431e-09
6.66324e-09
8.72344e-09
9.58559e-09
8.6387e-09
5.2255e-09
2.39653e-09
4.79838e-09
7.87775e-09
-8.17731e-09
-1.79017e-08
4.16308e-07
-9.82993e-09
-5.15555e-09
-3.66274e-09
-3.11135e-09
-2.47017e-09
-1.57431e-09
-8.02746e-10
-4.52721e-10
-3.33473e-10
-3.43688e-10
-4.50658e-10
-7.09675e-10
-5.97451e-10
-2.36569e-10
-1.69879e-10
2.23733e-11
1.84327e-10
2.47845e-10
1.61616e-10
1.13924e-11
-1.95869e-10
-3.10925e-10
-4.19629e-10
-4.42729e-10
-4.28387e-10
-3.46565e-10
-2.29131e-10
-7.23337e-11
8.90907e-11
2.48045e-10
3.75721e-10
4.59806e-10
4.99578e-10
5.04861e-10
4.96702e-10
6.0837e-10
7.11596e-10
7.06254e-10
7.05093e-10
7.61604e-10
8.95134e-10
1.11566e-09
1.40236e-09
1.67625e-09
1.85589e-09
1.85753e-09
1.59144e-09
1.10404e-09
7.74796e-10
7.87616e-10
2.42614e-09
7.11396e-09
1.08083e-08
7.65337e-09
3.5908e-09
-1.87485e-10
-2.61148e-09
-7.23104e-09
-1.54316e-08
4.78254e-07
-1.32334e-08
-4.46762e-09
-2.40027e-09
-1.44332e-09
-1.11517e-09
-8.57175e-10
-5.61892e-10
-2.91264e-10
-1.32494e-10
-6.81856e-11
-2.17406e-10
-5.35952e-10
-9.40262e-10
-1.35788e-09
-1.39631e-09
-1.27957e-09
-1.17145e-09
-1.08365e-09
-1.05114e-09
-1.03867e-09
-1.07014e-09
-1.08343e-09
-1.08675e-09
-1.03273e-09
-9.47253e-10
-8.23055e-10
-6.72201e-10
-4.97803e-10
-3.18814e-10
-1.46237e-10
9.50631e-12
1.41789e-10
2.43022e-10
3.19898e-10
2.32546e-10
3.24032e-11
-1.54218e-10
-2.23911e-10
-1.74397e-10
-9.5173e-11
1.53748e-11
1.59318e-10
3.3017e-10
4.92687e-10
5.96847e-10
6.74598e-10
6.25623e-10
5.55415e-10
5.23425e-10
2.81068e-10
1.42031e-10
1.24105e-09
7.21785e-09
1.11497e-08
5.76703e-09
6.86988e-10
-2.43734e-09
-6.65967e-09
-1.12706e-08
5.31405e-07
6.19618e-09
-1.56183e-09
-1.15734e-09
-9.99297e-10
-8.53678e-10
-5.42516e-10
-2.81751e-11
5.98693e-10
1.18916e-09
1.64817e-09
1.23818e-09
2.25949e-10
-5.51154e-10
-9.13595e-10
-9.59995e-10
-9.00698e-10
-8.34959e-10
-7.54547e-10
-6.37275e-10
-4.86094e-10
-3.48938e-10
-2.41982e-10
-1.45643e-10
4.35639e-11
3.88865e-10
9.0376e-10
1.54271e-09
2.36143e-09
3.34467e-09
4.40029e-09
5.44358e-09
6.40381e-09
7.04876e-09
6.9287e-09
6.01099e-09
4.68489e-09
3.32072e-09
2.18076e-09
1.35927e-09
7.47904e-10
3.95875e-10
3.26106e-10
3.38636e-10
4.89556e-10
7.2679e-10
9.44092e-10
1.19635e-09
1.21725e-09
6.22024e-10
1.97892e-10
1.15625e-10
9.38778e-11
3.27246e-10
8.43107e-09
8.83893e-09
1.91597e-09
-1.82229e-09
-4.33486e-09
-7.60851e-09
5.81358e-07
3.42792e-08
-1.14329e-09
-8.29271e-10
-4.24865e-10
1.59443e-10
1.23016e-09
2.87943e-09
5.04925e-09
7.14828e-09
8.52884e-09
7.73504e-09
5.11789e-09
2.54591e-09
1.4253e-09
1.50395e-09
1.99609e-09
2.5403e-09
3.18434e-09
3.95773e-09
4.71307e-09
5.4765e-09
6.02312e-09
6.31082e-09
6.64532e-09
7.44136e-09
8.72186e-09
1.01696e-08
1.19619e-08
1.41916e-08
1.67185e-08
1.91848e-08
2.13098e-08
2.2644e-08
2.28272e-08
2.17783e-08
1.94697e-08
1.64261e-08
1.32911e-08
1.05572e-08
8.16401e-09
6.13997e-09
4.52998e-09
3.18014e-09
2.63182e-09
2.73939e-09
2.59967e-09
1.92224e-09
7.52274e-10
1.05454e-10
2.94247e-11
1.56886e-11
1.45905e-11
6.24091e-11
1.86263e-09
1.04576e-08
3.41869e-09
-1.16453e-09
-3.71478e-09
-6.01345e-09
6.22396e-07
2.29466e-08
-4.52415e-10
3.75146e-10
1.84133e-09
3.84342e-09
6.98779e-09
1.09853e-08
1.53557e-08
1.84358e-08
1.97844e-08
2.02627e-08
1.94432e-08
1.74731e-08
1.76204e-08
1.97915e-08
2.22533e-08
2.44439e-08
2.58234e-08
2.58971e-08
2.52584e-08
2.48234e-08
2.48803e-08
2.50606e-08
2.5101e-08
2.53354e-08
2.6097e-08
2.72364e-08
2.85211e-08
2.99774e-08
3.16588e-08
3.3158e-08
3.38104e-08
3.30082e-08
3.10955e-08
2.99418e-08
2.8781e-08
2.71777e-08
2.45317e-08
2.11881e-08
1.79553e-08
1.52592e-08
1.31384e-08
1.10391e-08
8.99374e-09
7.74325e-09
7.48858e-09
7.4236e-09
6.20974e-09
1.92465e-09
3.56396e-11
1.18211e-11
1.04304e-11
3.44565e-11
2.05145e-09
1.13965e-08
5.73273e-09
-3.22859e-10
-3.51401e-09
-8.37494e-09
6.40297e-07
2.20384e-07
9.99482e-11
9.46605e-10
2.25852e-09
4.06854e-09
5.62448e-09
6.03226e-09
4.79927e-09
4.14069e-09
5.60907e-09
1.10669e-08
1.75343e-08
2.11061e-08
2.43016e-08
2.74107e-08
3.02928e-08
3.30782e-08
3.56499e-08
3.6835e-08
3.68919e-08
3.6684e-08
3.66073e-08
3.63868e-08
3.56079e-08
3.4354e-08
3.31034e-08
3.20169e-08
3.09852e-08
2.98517e-08
2.85914e-08
2.73785e-08
2.62736e-08
2.50158e-08
2.35001e-08
2.17662e-08
1.98716e-08
1.79677e-08
1.62098e-08
1.45786e-08
1.30017e-08
1.17647e-08
1.1448e-08
1.28819e-08
1.52098e-08
1.49978e-08
1.49723e-08
1.65166e-08
1.7865e-08
8.94611e-09
6.28572e-11
1.48702e-11
1.34211e-11
3.53322e-11
1.85123e-09
1.79625e-08
1.16592e-08
1.63771e-09
-3.18986e-09
-8.48515e-09
7.15001e-07
3.06522e-07
-1.8525e-10
7.8348e-10
1.78826e-09
3.23679e-09
4.69134e-09
5.91115e-09
6.77378e-09
6.95351e-09
7.27489e-09
9.56369e-09
1.50607e-08
1.8772e-08
1.97922e-08
2.06246e-08
2.17246e-08
2.34908e-08
2.60355e-08
2.86752e-08
3.20436e-08
3.70244e-08
4.33282e-08
4.74284e-08
4.71856e-08
4.44395e-08
4.07351e-08
3.72537e-08
3.43881e-08
3.16379e-08
2.8785e-08
2.62236e-08
2.45012e-08
2.37077e-08
2.3398e-08
2.2783e-08
2.18622e-08
2.06808e-08
1.92317e-08
1.74534e-08
1.54934e-08
1.39914e-08
1.33006e-08
1.27316e-08
1.16407e-08
1.1662e-08
1.3978e-08
1.94485e-08
2.6144e-08
9.87208e-09
7.58448e-11
2.56302e-11
2.86078e-11
7.30113e-11
3.10455e-09
2.20122e-08
1.38902e-08
2.45272e-09
-3.01116e-09
-7.85467e-09
7.63225e-07
1.60549e-07
-5.68789e-10
1.08708e-09
2.99209e-09
4.30628e-09
6.24608e-09
8.85436e-09
8.92694e-09
5.93053e-09
5.9898e-09
1.00411e-08
2.6475e-08
4.0417e-08
4.35001e-08
4.58269e-08
4.78221e-08
4.98244e-08
5.24777e-08
5.55901e-08
5.96083e-08
6.51039e-08
7.07321e-08
7.3512e-08
7.17e-08
6.61492e-08
6.20508e-08
5.83257e-08
5.26589e-08
5.00419e-08
5.13798e-08
5.37035e-08
5.55759e-08
5.66725e-08
5.66288e-08
5.53045e-08
5.28012e-08
4.97994e-08
4.68556e-08
4.27897e-08
3.77237e-08
3.26422e-08
2.78637e-08
2.23095e-08
1.69883e-08
1.46014e-08
1.68697e-08
2.23707e-08
2.48103e-08
1.01573e-08
6.12089e-11
1.97517e-11
1.96155e-11
5.42183e-11
3.47987e-09
1.69062e-08
1.07261e-08
1.93198e-09
-2.80386e-09
-7.33293e-09
8.09313e-07
3.80836e-08
-4.24065e-10
6.10079e-10
2.38519e-09
3.90846e-09
6.39325e-09
1.06644e-08
1.70639e-08
1.12353e-08
1.24639e-08
2.48178e-08
4.83968e-08
5.39707e-08
5.85298e-08
6.2437e-08
6.63105e-08
7.05517e-08
7.4628e-08
7.74665e-08
8.0849e-08
8.49092e-08
8.65292e-08
7.98279e-08
7.69665e-08
7.72757e-08
7.64934e-08
7.00002e-08
5.57349e-08
4.33289e-08
4.72752e-08
5.93907e-08
6.84057e-08
7.18394e-08
6.95226e-08
4.4496e-08
4.05188e-08
3.99696e-08
5.27626e-08
5.56305e-08
4.78686e-08
3.77848e-08
2.87583e-08
2.08859e-08
1.48315e-08
1.20316e-08
1.37781e-08
1.95172e-08
2.13357e-08
1.26756e-08
8.49862e-11
1.99852e-11
1.50049e-11
1.88695e-11
6.9871e-10
8.56286e-09
4.53017e-09
9.48644e-11
-2.70682e-09
-7.5171e-09
8.02807e-07
2.62968e-08
-2.60864e-10
2.75254e-10
1.80515e-09
3.42875e-09
6.20764e-09
9.19354e-09
7.21934e-09
2.27064e-09
1.02793e-09
1.39686e-09
4.64268e-09
3.15199e-08
5.81725e-08
6.50638e-08
7.01679e-08
7.54013e-08
8.08901e-08
8.55794e-08
8.86002e-08
9.04646e-08
9.1106e-08
8.46513e-08
7.67147e-08
7.40074e-08
7.53586e-08
6.84823e-08
6.31948e-08
5.46743e-08
3.70134e-08
3.72849e-08
5.30692e-08
6.91049e-08
7.3504e-08
7.32979e-08
6.46434e-08
4.03612e-08
3.50235e-08
3.76008e-08
4.4843e-08
3.77124e-08
2.67285e-08
1.67825e-08
8.21551e-09
7.9503e-09
1.35762e-08
2.07759e-08
2.27593e-08
1.30793e-08
1.04731e-10
2.46699e-11
1.75224e-11
1.97185e-11
6.24277e-10
7.86146e-09
4.10785e-09
-1.12679e-11
-2.69212e-09
-7.53143e-09
8.0221e-07
1.17437e-07
-5.75486e-12
2.05274e-09
3.59509e-09
4.65899e-09
6.88138e-09
9.6098e-09
5.24103e-09
8.22572e-10
2.279e-10
2.30092e-10
4.56162e-10
3.34723e-09
3.90419e-08
5.48115e-08
5.93232e-08
6.29332e-08
6.4774e-08
6.66477e-08
6.97802e-08
7.26913e-08
7.5668e-08
7.83454e-08
7.73391e-08
7.28059e-08
6.60488e-08
5.97762e-08
5.51051e-08
5.21284e-08
4.99734e-08
4.97e-08
5.19327e-08
5.36286e-08
5.38914e-08
5.29929e-08
5.09078e-08
4.70043e-08
4.17784e-08
3.74745e-08
3.29799e-08
2.82899e-08
2.19885e-08
1.49485e-08
9.63464e-09
8.50745e-09
1.09218e-08
1.78374e-08
1.9538e-08
2.53121e-09
4.31515e-11
2.49436e-11
2.57909e-11
9.69208e-11
5.91638e-09
1.48093e-08
9.39718e-09
1.61346e-09
-2.85997e-09
-7.42873e-09
8.03649e-07
3.08995e-07
-8.07664e-10
1.58414e-09
1.96738e-09
3.01917e-09
6.53972e-09
8.08603e-09
5.92023e-09
1.20319e-09
2.60687e-10
1.63477e-10
2.43522e-10
9.37935e-10
1.83174e-08
4.59937e-08
4.61249e-08
4.79556e-08
5.17195e-08
5.63804e-08
5.97036e-08
6.02732e-08
5.93481e-08
5.82083e-08
5.60389e-08
5.12978e-08
4.71011e-08
3.94748e-08
2.72103e-08
2.62098e-08
2.64671e-08
3.16037e-08
3.72349e-08
4.12975e-08
4.27301e-08
4.05062e-08
3.2986e-08
2.15448e-08
1.4308e-08
1.39199e-08
1.6572e-08
1.49489e-08
1.1657e-08
8.78653e-09
7.18836e-09
7.34111e-09
9.44164e-09
1.58818e-08
1.88421e-08
1.47616e-09
3.64654e-11
2.71288e-11
3.38146e-11
2.91992e-10
1.13607e-08
2.00914e-08
1.09835e-08
1.92472e-09
-3.07991e-09
-7.26669e-09
7.68283e-07
2.74224e-07
-6.04755e-10
8.14271e-10
1.97694e-09
3.52682e-09
6.20348e-09
8.7059e-09
3.75949e-09
7.03313e-10
4.25041e-10
7.35113e-10
3.11838e-09
1.93822e-08
3.85482e-08
4.1113e-08
4.27096e-08
4.44271e-08
4.55609e-08
4.54894e-08
4.49987e-08
4.46115e-08
4.52535e-08
4.51364e-08
4.28983e-08
3.74114e-08
2.31526e-08
2.09587e-08
2.05087e-08
2.44873e-08
2.97721e-08
2.88567e-08
2.76352e-08
2.41307e-08
1.12953e-08
7.95548e-09
1.17569e-08
1.8068e-08
1.74004e-08
1.51251e-08
1.29684e-08
1.05224e-08
9.01777e-09
8.18195e-09
8.20721e-09
9.65769e-09
1.38996e-08
1.95972e-08
2.0079e-08
1.52805e-09
2.94263e-11
2.1524e-11
2.70321e-11
2.32317e-10
1.05631e-08
1.91248e-08
9.62193e-09
1.28542e-09
-3.26182e-09
-7.66082e-09
7.22687e-07
3.14719e-08
-5.92554e-10
2.33415e-10
1.1828e-09
2.99652e-09
5.5972e-09
8.35356e-09
1.04588e-08
1.04595e-08
1.1758e-08
1.63402e-08
1.96623e-08
1.89345e-08
1.69459e-08
1.77115e-08
2.13212e-08
2.51431e-08
2.82012e-08
2.97245e-08
2.99854e-08
2.99019e-08
2.95622e-08
2.7939e-08
2.44837e-08
2.24923e-08
2.14591e-08
2.18011e-08
2.38821e-08
2.68381e-08
2.85696e-08
2.61991e-08
2.09386e-08
1.9729e-08
1.88405e-08
1.848e-08
2.04583e-08
2.13096e-08
1.83934e-08
1.51654e-08
1.2207e-08
1.02537e-08
9.28566e-09
9.00489e-09
9.42778e-09
1.07797e-08
1.29675e-08
1.50234e-08
1.27445e-08
6.93644e-10
2.45121e-11
1.22153e-11
1.36472e-11
7.90256e-11
3.96285e-09
1.16098e-08
4.65959e-09
-5.82696e-10
-3.50576e-09
-7.67654e-09
6.38368e-07
6.40384e-08
-1.23515e-09
-9.92287e-10
-6.69541e-10
-1.23976e-10
9.16743e-10
2.51142e-09
4.59149e-09
6.55237e-09
7.55829e-09
6.73637e-09
5.00524e-09
3.05285e-09
1.52084e-09
1.21345e-09
1.92668e-09
3.04753e-09
4.28628e-09
5.43472e-09
5.9504e-09
6.29572e-09
6.36013e-09
5.70095e-09
4.57517e-09
3.59606e-09
3.20822e-09
3.54991e-09
4.10559e-09
4.69026e-09
5.22602e-09
5.55656e-09
5.62497e-09
5.56989e-09
5.40598e-09
4.92085e-09
4.27589e-09
3.71774e-09
3.2201e-09
2.85416e-09
2.59253e-09
2.55859e-09
2.97682e-09
3.85195e-09
5.17938e-09
6.9515e-09
8.47449e-09
7.70379e-09
2.71092e-09
2.78004e-10
5.63737e-11
2.03783e-11
1.41129e-11
5.68072e-11
1.80867e-09
8.6421e-09
2.63324e-09
-1.30676e-09
-3.6383e-09
-5.78165e-09
6.23826e-07
2.71368e-08
-1.89015e-09
-1.30807e-09
-1.1595e-09
-9.82446e-10
-6.42614e-10
-1.33479e-10
4.41723e-10
9.21616e-10
1.16441e-09
7.60109e-10
1.17527e-10
-4.41597e-10
-8.3544e-10
-9.75005e-10
-8.73466e-10
-7.28457e-10
-5.7479e-10
-4.3851e-10
-2.95039e-10
-2.01533e-10
-1.95655e-10
-3.55069e-10
-5.91267e-10
-7.5635e-10
-7.08123e-10
-5.9114e-10
-4.45447e-10
-3.01796e-10
-1.82353e-10
-1.04648e-10
-6.54689e-11
-5.39003e-11
-6.04481e-11
-8.14345e-11
-8.80339e-11
-7.66119e-11
-3.58785e-11
4.64994e-11
2.07004e-10
4.79228e-10
8.81405e-10
1.41166e-09
2.10654e-09
2.96188e-09
3.64927e-09
4.19402e-09
4.06687e-09
2.31164e-09
6.40461e-10
2.23356e-10
1.12109e-10
1.33924e-10
3.10601e-09
8.18781e-09
1.56831e-09
-1.77205e-09
-4.19668e-09
-6.68636e-09
6.01556e-07
2.38886e-09
-4.23325e-09
-2.67979e-09
-1.65203e-09
-1.25561e-09
-9.92278e-10
-7.35009e-10
-5.0859e-10
-3.73217e-10
-3.32297e-10
-4.48483e-10
-6.32987e-10
-8.76192e-10
-1.09068e-09
-1.04268e-09
-9.40279e-10
-8.45152e-10
-7.61342e-10
-7.43083e-10
-7.29021e-10
-7.47386e-10
-7.66298e-10
-8.05534e-10
-7.83811e-10
-7.59338e-10
-6.79762e-10
-5.11035e-10
-2.7128e-10
-1.96195e-11
2.03909e-10
3.59654e-10
4.39683e-10
4.48932e-10
4.05241e-10
3.20896e-10
2.36665e-10
1.63974e-10
1.23964e-10
1.3438e-10
2.32031e-10
4.48194e-10
7.69981e-10
1.14667e-09
1.54242e-09
1.88004e-09
2.15347e-09
2.34548e-09
2.40983e-09
2.19697e-09
1.57666e-09
8.66433e-10
3.34002e-10
1.28565e-09
7.75702e-09
5.76708e-09
6.00763e-10
-2.25387e-09
-6.13342e-09
-9.88678e-09
5.57279e-07
5.09584e-09
-4.41086e-09
-3.30448e-09
-3.04441e-09
-2.34461e-09
-1.64308e-09
-1.05729e-09
-7.47757e-10
-6.14833e-10
-5.93771e-10
-6.64226e-10
-7.41874e-10
-2.44109e-11
5.31882e-10
4.61955e-10
5.00009e-10
5.44485e-10
6.17147e-10
5.46963e-10
4.82442e-10
3.61221e-10
3.14121e-10
2.21172e-10
1.31107e-10
5.76562e-11
1.4079e-10
3.37992e-10
6.32821e-10
9.26638e-10
1.16854e-09
1.30311e-09
1.33599e-09
1.27833e-09
1.16295e-09
1.01552e-09
8.73736e-10
7.53507e-10
6.6812e-10
6.38219e-10
6.96488e-10
8.63644e-10
1.12056e-09
1.37117e-09
1.59166e-09
1.81719e-09
2.04146e-09
2.24826e-09
2.50729e-09
2.66456e-09
2.71132e-09
2.87958e-09
3.61425e-09
5.61836e-09
6.67041e-09
3.51989e-09
-1.53417e-10
-2.90177e-09
-6.92728e-09
-1.37031e-08
5.10183e-07
3.27398e-09
-3.325e-09
-2.56228e-09
-2.51495e-09
-2.00666e-09
-1.27135e-09
2.25283e-11
1.77437e-09
3.22781e-09
3.21135e-09
3.79179e-09
4.23413e-09
3.82343e-09
3.48669e-09
3.46317e-09
3.7532e-09
4.06931e-09
4.29247e-09
4.24812e-09
4.14992e-09
3.80886e-09
3.46386e-09
2.98484e-09
2.63296e-09
2.38195e-09
2.36358e-09
2.47556e-09
2.67523e-09
2.80554e-09
2.82703e-09
2.71241e-09
2.50149e-09
2.20573e-09
1.87905e-09
1.54406e-09
1.24416e-09
9.91185e-10
8.01144e-10
6.95829e-10
6.96468e-10
8.07581e-10
1.00126e-09
1.22519e-09
1.46712e-09
1.75212e-09
2.0363e-09
2.31919e-09
2.75849e-09
3.50069e-09
4.56121e-09
5.21926e-09
5.23579e-09
4.77382e-09
3.95694e-09
1.6389e-09
-2.1583e-10
5.0938e-09
-8.04641e-09
-1.80184e-08
4.22443e-07
8.66306e-09
-4.0411e-10
3.4217e-10
-5.18944e-11
9.70175e-11
2.73274e-10
7.44321e-10
1.41036e-09
2.17308e-09
2.49283e-09
2.38164e-09
2.12344e-09
1.83408e-09
1.69943e-09
1.7258e-09
1.95469e-09
2.31205e-09
2.71609e-09
3.05892e-09
3.37449e-09
3.52513e-09
3.61871e-09
3.55427e-09
3.55161e-09
3.63615e-09
4.07675e-09
4.85533e-09
6.00503e-09
7.36095e-09
8.72217e-09
9.74474e-09
1.02359e-08
1.01108e-08
9.49502e-09
8.53231e-09
7.43971e-09
6.329e-09
5.3102e-09
4.44681e-09
3.73122e-09
3.181e-09
2.77244e-09
2.52543e-09
2.61255e-09
2.94583e-09
3.39853e-09
3.99625e-09
4.78241e-09
5.3589e-09
5.40465e-09
4.8701e-09
4.43354e-09
3.55239e-09
2.97289e-09
7.38848e-09
7.23511e-08
2.47601e-08
-3.87485e-09
-2.032e-08
3.14281e-07
3.9823e-09
6.5945e-09
9.75581e-09
1.06751e-08
1.14933e-08
1.20538e-08
1.25458e-08
1.29001e-08
1.30767e-08
1.30437e-08
1.28567e-08
1.26228e-08
1.23714e-08
1.21554e-08
1.19461e-08
1.17569e-08
1.15517e-08
1.13295e-08
1.10754e-08
1.07953e-08
1.04683e-08
1.01207e-08
9.74371e-09
9.40149e-09
9.11658e-09
8.95697e-09
8.94744e-09
9.12137e-09
9.45603e-09
9.92194e-09
1.04654e-08
1.10725e-08
1.17243e-08
1.245e-08
1.32606e-08
1.42611e-08
1.55793e-08
1.74133e-08
2.01001e-08
2.41758e-08
3.04005e-08
3.93671e-08
5.15898e-08
6.93495e-08
9.52029e-08
1.32847e-07
1.90349e-07
2.82711e-07
4.26933e-07
6.53317e-07
9.20426e-07
1.24724e-06
1.51609e-06
1.6278e-06
9.51355e-07
5.30419e-07
2.39672e-07
1.13138e-07
2.54327e-08
-1.23971e-08
2.44462e-09
5.68922e-09
9.13188e-09
1.01063e-08
1.10033e-08
1.14746e-08
1.19002e-08
1.21806e-08
1.2366e-08
1.25006e-08
1.25217e-08
1.2524e-08
1.24183e-08
1.23092e-08
1.21245e-08
1.19345e-08
1.16975e-08
1.14389e-08
1.11574e-08
1.08603e-08
1.05384e-08
1.02109e-08
9.86847e-09
9.56254e-09
9.30753e-09
9.17005e-09
9.17163e-09
9.35125e-09
9.69906e-09
1.02207e-08
1.08814e-08
1.16374e-08
1.24111e-08
1.31613e-08
1.38709e-08
1.46548e-08
1.5656e-08
1.70777e-08
1.92647e-08
2.27576e-08
2.83496e-08
3.68762e-08
4.91509e-08
6.68008e-08
9.19226e-08
1.27193e-07
1.77327e-07
2.5387e-07
3.74174e-07
5.62403e-07
7.92658e-07
1.08499e-06
1.35399e-06
1.70807e-06
1.04573e-06
5.59186e-07
2.43796e-07
1.10267e-07
2.01218e-08
-1.93597e-08
6.77734e-09
-1.43531e-09
2.34644e-11
-1.21663e-10
1.27089e-10
1.2642e-10
3.60706e-10
5.22733e-10
7.43078e-10
9.75625e-10
1.16519e-09
1.39162e-09
1.55215e-09
1.78581e-09
1.99811e-09
2.28861e-09
2.6017e-09
2.896e-09
3.16129e-09
3.38729e-09
3.54634e-09
3.68776e-09
3.75317e-09
3.91725e-09
4.19069e-09
4.74056e-09
5.53355e-09
6.58133e-09
7.70129e-09
8.74461e-09
9.44599e-09
9.64912e-09
9.29764e-09
8.54636e-09
7.58709e-09
6.61537e-09
5.69567e-09
4.87869e-09
4.23399e-09
3.77229e-09
3.50897e-09
3.3807e-09
3.38037e-09
3.52092e-09
3.83504e-09
4.2362e-09
4.61868e-09
4.97038e-09
5.14968e-09
5.12248e-09
4.52264e-09
3.88698e-09
2.9935e-09
2.423e-09
3.24605e-09
5.79738e-08
2.18282e-08
-5.89823e-09
-2.16171e-08
2.82107e-07
-5.19789e-10
-4.33227e-09
-2.70868e-09
-2.36706e-09
-1.82633e-09
-1.51467e-09
-1.01677e-09
-5.56769e-10
2.05568e-11
6.09903e-10
1.16474e-09
1.79318e-09
2.28137e-09
2.88873e-09
3.36861e-09
3.81325e-09
4.08132e-09
4.09643e-09
3.92409e-09
3.6632e-09
3.28495e-09
2.91572e-09
2.47867e-09
2.13809e-09
1.84224e-09
1.69373e-09
1.61363e-09
1.60915e-09
1.60209e-09
1.59267e-09
1.54264e-09
1.447e-09
1.28584e-09
1.08417e-09
8.7341e-10
6.76745e-10
5.14336e-10
3.99113e-10
3.54114e-10
4.06811e-10
5.62107e-10
8.0088e-10
1.06224e-09
1.30508e-09
1.59309e-09
1.93824e-09
2.30828e-09
2.78507e-09
3.36747e-09
4.05387e-09
4.45687e-09
4.24925e-09
3.81333e-09
3.29761e-09
1.3858e-09
-8.20423e-10
2.00065e-09
-9.27099e-09
-1.91953e-08
3.82687e-07
-2.61718e-09
-5.13198e-09
-3.05973e-09
-2.30814e-09
-1.57993e-09
-1.19374e-09
-7.13315e-10
-3.64857e-10
-6.64705e-12
2.11579e-10
2.91216e-10
3.05667e-10
2.39255e-10
1.93986e-10
1.38485e-10
1.13354e-10
7.94486e-11
3.74296e-11
-2.74408e-11
-8.07322e-11
-1.70199e-10
-2.38772e-10
-3.33662e-10
-3.84857e-10
-4.06801e-10
-3.50707e-10
-2.46853e-10
-9.63515e-11
6.27185e-11
2.21088e-10
3.44723e-10
4.10455e-10
3.97251e-10
3.23398e-10
2.09836e-10
1.06342e-10
3.81693e-11
2.21368e-11
7.5949e-11
2.22571e-10
4.81887e-10
8.70242e-10
1.36778e-09
1.93475e-09
2.52817e-09
2.72771e-09
2.82257e-09
2.65653e-09
2.36065e-09
2.17413e-09
2.14262e-09
2.43838e-09
3.51158e-09
5.04195e-09
3.13572e-09
-5.06713e-10
-2.80858e-09
-8.10496e-09
-1.61548e-08
4.49942e-07
1.04414e-09
-4.83307e-09
-2.74511e-09
-2.28078e-09
-2.03056e-09
-1.87538e-09
-1.68001e-09
-1.47994e-09
-1.2791e-09
-1.12211e-09
-1.00696e-09
-9.27136e-10
-8.75093e-10
-8.26997e-10
-7.87741e-10
-7.45586e-10
-7.13836e-10
-6.87724e-10
-6.81231e-10
-6.61502e-10
-6.60409e-10
-6.51098e-10
-6.60961e-10
-6.54377e-10
-6.34343e-10
-5.71731e-10
-4.80867e-10
-3.61925e-10
-2.32555e-10
-9.78984e-11
2.04533e-11
1.03457e-10
1.34818e-10
1.16646e-10
6.92927e-11
2.39328e-11
4.8116e-12
3.12376e-11
1.25194e-10
3.24403e-10
6.85218e-10
1.27859e-09
2.17792e-09
3.4135e-09
4.86275e-09
6.3295e-09
6.3015e-09
5.21571e-09
3.72117e-09
2.36326e-09
1.31225e-09
5.2166e-10
2.5979e-10
2.70215e-09
5.76889e-09
4.66037e-10
-2.1196e-09
-4.75111e-09
-1.09525e-08
5.25363e-07
2.02319e-08
-3.16064e-09
-1.92609e-09
-1.61121e-09
-1.50034e-09
-1.42517e-09
-1.32137e-09
-1.20562e-09
-1.07947e-09
-9.70342e-10
-8.76126e-10
-7.96046e-10
-7.18394e-10
-6.33517e-10
-5.45893e-10
-4.50867e-10
-3.65728e-10
-2.96844e-10
-2.51871e-10
-1.99545e-10
-1.54103e-10
-1.30975e-10
-1.37814e-10
-1.24808e-10
-8.08952e-11
-1.72996e-11
4.93186e-11
1.15392e-10
1.79346e-10
2.34718e-10
2.58034e-10
2.3657e-10
1.85175e-10
1.33853e-10
9.67172e-11
8.44062e-11
1.04939e-10
1.65294e-10
2.91098e-10
5.37107e-10
9.68775e-10
1.67703e-09
2.79043e-09
4.4195e-09
6.65483e-09
9.09054e-09
1.00781e-08
8.59726e-09
5.86099e-09
3.11313e-09
1.0947e-09
3.47967e-10
1.78823e-10
3.73093e-10
5.55941e-09
1.3311e-09
-1.62246e-09
-3.47678e-09
-6.75041e-09
5.9725e-07
7.07973e-08
-1.4921e-09
-1.21342e-09
-1.12369e-09
-1.11732e-09
-1.0958e-09
-1.03893e-09
-9.33326e-10
-7.81771e-10
-5.99517e-10
-3.64978e-10
-3.67972e-11
4.35083e-10
1.09337e-09
1.91601e-09
2.82372e-09
3.75699e-09
4.64042e-09
5.35636e-09
5.89182e-09
6.32571e-09
6.50879e-09
6.54578e-09
6.67758e-09
7.18559e-09
7.83869e-09
8.48319e-09
9.04916e-09
9.60788e-09
1.02454e-08
1.07096e-08
1.06254e-08
9.85705e-09
8.63244e-09
7.23968e-09
5.86813e-09
4.60066e-09
3.11596e-09
2.00949e-09
1.66696e-09
1.87667e-09
2.44499e-09
3.59259e-09
5.62448e-09
8.26111e-09
1.11374e-08
1.32793e-08
1.20066e-08
6.02093e-09
1.19452e-09
1.64153e-10
3.91003e-11
2.48416e-11
2.21409e-10
4.81583e-09
1.85295e-09
-1.29077e-09
-3.09401e-09
-6.03268e-09
6.31914e-07
6.70891e-08
-1.06e-09
-8.47367e-10
-7.3706e-10
-6.97676e-10
-5.94385e-10
-3.6316e-10
9.04944e-11
8.59807e-10
2.01524e-09
3.65043e-09
5.97988e-09
9.06064e-09
1.30117e-08
1.75242e-08
2.17051e-08
2.55801e-08
2.94619e-08
3.23517e-08
3.38319e-08
3.49662e-08
3.55353e-08
3.57178e-08
3.58048e-08
3.63033e-08
3.79772e-08
4.02402e-08
4.23783e-08
4.44036e-08
4.68941e-08
4.96492e-08
5.17393e-08
5.23811e-08
5.1362e-08
4.85881e-08
4.34239e-08
3.65011e-08
2.92955e-08
2.24584e-08
1.59102e-08
1.17693e-08
9.36232e-09
8.60052e-09
9.1502e-09
1.07677e-08
1.36546e-08
1.6462e-08
1.62152e-08
3.77396e-09
1.57098e-10
2.26263e-11
9.74815e-12
1.14345e-11
5.20376e-10
7.21153e-09
3.11206e-09
-8.7797e-10
-3.10557e-09
-7.62952e-09
6.54875e-07
4.34837e-08
-1.49547e-10
4.28766e-10
7.24663e-10
1.42381e-09
2.3858e-09
3.50635e-09
5.38357e-09
8.33419e-09
1.24686e-08
1.67361e-08
2.20631e-08
2.79816e-08
3.47374e-08
4.18616e-08
4.79762e-08
5.24015e-08
5.59505e-08
5.90472e-08
6.1041e-08
6.19274e-08
6.21424e-08
6.18858e-08
6.14625e-08
6.09465e-08
6.05919e-08
6.09103e-08
6.1608e-08
6.24815e-08
6.38373e-08
6.55999e-08
6.69839e-08
6.76064e-08
6.727e-08
6.51308e-08
6.09114e-08
5.52659e-08
4.93159e-08
4.33052e-08
3.6325e-08
2.89368e-08
2.26633e-08
1.80893e-08
1.49669e-08
1.33209e-08
1.42893e-08
1.82349e-08
1.78344e-08
3.51593e-09
4.4031e-11
1.2356e-11
7.81882e-12
2.6038e-11
2.83576e-09
1.10479e-08
5.47059e-09
-7.96435e-11
-3.30015e-09
-9.08092e-09
6.49229e-07
1.26929e-07
7.59931e-10
2.82958e-09
6.28738e-09
9.83485e-09
1.33492e-08
1.57789e-08
1.81209e-08
2.07386e-08
2.30659e-08
2.49313e-08
2.66145e-08
2.84856e-08
3.03351e-08
3.20788e-08
3.36767e-08
3.5365e-08
3.7571e-08
4.04387e-08
4.2993e-08
4.46018e-08
4.60667e-08
4.75767e-08
4.80887e-08
4.73093e-08
4.58169e-08
4.32628e-08
3.97875e-08
3.56228e-08
3.08511e-08
2.60633e-08
2.20851e-08
1.91117e-08
1.6858e-08
1.49931e-08
1.33688e-08
1.18243e-08
1.03004e-08
8.9214e-09
7.85658e-09
7.24885e-09
7.40558e-09
7.98451e-09
7.63906e-09
7.306e-09
7.98503e-09
1.28905e-08
1.7203e-08
2.50671e-09
3.16972e-11
1.90951e-11
2.21767e-11
8.71314e-11
7.80099e-09
2.06143e-08
1.17669e-08
2.09518e-09
-3.11811e-09
-8.29459e-09
7.13388e-07
3.18269e-07
8.09991e-11
3.87662e-09
7.46564e-09
8.29719e-09
1.16925e-08
1.82273e-08
2.25274e-08
2.51398e-08
2.68636e-08
2.78235e-08
2.84371e-08
2.88152e-08
2.94718e-08
3.07669e-08
3.2455e-08
3.40555e-08
3.52224e-08
3.58021e-08
3.57058e-08
3.50822e-08
3.41086e-08
3.27705e-08
3.09723e-08
2.87618e-08
2.62758e-08
2.38522e-08
2.20398e-08
2.06653e-08
1.96551e-08
1.908e-08
1.86656e-08
1.81e-08
1.72654e-08
1.59646e-08
1.39973e-08
1.14531e-08
8.97452e-09
7.34568e-09
6.31362e-09
5.72727e-09
5.66752e-09
5.70074e-09
5.44676e-09
5.88607e-09
7.93646e-09
1.52253e-08
1.8823e-08
1.78977e-09
3.62202e-11
3.2773e-11
4.57901e-11
2.82488e-10
1.46217e-08
2.57986e-08
1.38533e-08
2.74307e-09
-3.07365e-09
-7.94937e-09
7.36503e-07
4.51847e-07
3.7232e-09
1.81955e-09
3.28379e-10
2.09076e-10
4.51152e-10
3.82343e-09
2.07536e-08
2.03782e-08
1.85523e-08
2.32661e-08
3.45623e-08
3.90676e-08
4.06682e-08
4.21946e-08
4.35057e-08
4.49411e-08
4.60245e-08
4.47952e-08
3.75153e-08
3.49295e-08
3.39018e-08
3.89881e-08
3.7703e-08
3.18322e-08
2.51526e-08
2.4467e-08
2.47285e-08
2.51195e-08
2.54925e-08
2.58118e-08
2.591e-08
2.56986e-08
2.49978e-08
2.3414e-08
2.0118e-08
1.50921e-08
1.13812e-08
9.36513e-09
7.89593e-09
6.80888e-09
5.32282e-09
4.29758e-09
4.57163e-09
6.76486e-09
1.23747e-08
1.98998e-08
2.03777e-08
4.53507e-10
3.5813e-11
3.64082e-11
5.78653e-11
9.81587e-10
1.71271e-08
2.73127e-08
1.47366e-08
3.15193e-09
-2.91767e-09
-7.39894e-09
7.66463e-07
2.72234e-07
-5.41235e-10
1.45801e-09
2.02028e-09
1.56286e-09
2.4059e-09
4.95764e-09
4.48001e-09
2.24433e-09
2.28807e-09
4.76379e-09
2.14458e-08
3.8156e-08
3.86421e-08
3.94815e-08
4.14704e-08
4.43171e-08
4.73115e-08
4.82066e-08
4.57936e-08
3.90583e-08
3.81928e-08
4.16871e-08
4.33605e-08
4.05321e-08
3.56004e-08
2.79411e-08
2.72953e-08
3.0116e-08
3.15181e-08
3.30208e-08
3.471e-08
3.63097e-08
3.75472e-08
3.79857e-08
3.71624e-08
3.45366e-08
2.9199e-08
2.14374e-08
1.40937e-08
9.65037e-09
7.00308e-09
5.9244e-09
6.02984e-09
7.17382e-09
1.19789e-08
1.95282e-08
2.07581e-08
8.9178e-10
3.58153e-11
3.30667e-11
4.72665e-11
4.31312e-10
1.38054e-08
2.43637e-08
1.38986e-08
2.85486e-09
-2.8999e-09
-7.49437e-09
7.70117e-07
2.64505e-07
5.62812e-10
1.8738e-09
4.34332e-09
6.01573e-09
7.69168e-09
7.2624e-09
4.36501e-09
2.41624e-09
2.88981e-09
7.4149e-09
2.24832e-08
2.69311e-08
2.84236e-08
3.04822e-08
3.32518e-08
3.65528e-08
4.0115e-08
4.35059e-08
4.63267e-08
4.84893e-08
4.87393e-08
4.60976e-08
4.2403e-08
3.94437e-08
3.73786e-08
3.60468e-08
3.56128e-08
3.58709e-08
3.66791e-08
3.83e-08
4.03718e-08
4.2534e-08
4.48007e-08
4.58842e-08
4.50484e-08
4.23798e-08
3.72183e-08
2.92763e-08
2.10889e-08
1.61056e-08
1.26752e-08
1.09788e-08
9.84501e-09
9.23293e-09
1.03512e-08
1.40685e-08
1.81231e-08
4.98398e-09
4.11439e-11
2.43197e-11
2.92343e-11
8.83616e-11
4.99029e-09
1.8306e-08
1.15009e-08
1.97399e-09
-2.94491e-09
-7.84415e-09
7.59917e-07
6.26976e-08
7.99825e-10
2.64047e-09
5.0622e-09
7.43187e-09
1.02805e-08
1.35903e-08
1.76181e-08
2.23414e-08
2.56862e-08
2.8013e-08
3.04789e-08
3.3398e-08
3.71209e-08
4.20001e-08
4.75013e-08
5.29877e-08
5.84901e-08
6.35674e-08
6.77561e-08
7.09024e-08
7.23855e-08
7.1504e-08
6.66135e-08
6.25653e-08
6.01857e-08
5.6793e-08
4.87399e-08
4.85498e-08
5.27433e-08
5.72838e-08
6.06387e-08
6.21859e-08
6.13993e-08
5.6708e-08
4.92023e-08
4.2776e-08
3.56828e-08
2.82538e-08
2.13569e-08
1.58232e-08
1.18125e-08
9.10912e-09
7.12812e-09
6.43208e-09
7.34852e-09
1.15178e-08
1.77007e-08
9.12829e-09
6.66828e-11
2.37078e-11
2.27281e-11
3.75689e-11
1.3196e-09
1.29041e-08
7.69753e-09
7.2152e-10
-2.91655e-09
-8.01144e-09
7.3769e-07
5.20852e-08
7.66624e-10
1.1733e-09
2.26553e-09
4.26661e-09
7.50644e-09
1.23173e-08
1.79611e-08
2.42967e-08
2.97615e-08
3.52792e-08
4.10786e-08
4.66909e-08
5.28383e-08
5.9406e-08
6.53598e-08
7.07878e-08
7.63863e-08
8.13298e-08
8.45993e-08
8.58195e-08
8.43904e-08
7.91365e-08
7.02505e-08
5.89844e-08
5.18599e-08
4.88949e-08
5.2204e-08
5.9817e-08
6.18784e-08
4.96248e-08
3.86738e-08
4.84511e-08
5.89029e-08
5.30178e-08
3.88328e-08
2.63686e-08
2.16926e-08
1.6592e-08
1.10188e-08
7.43776e-09
5.04383e-09
3.45445e-09
3.11605e-09
4.45389e-09
7.3265e-09
1.37442e-08
1.95267e-08
1.02574e-08
1.35776e-10
2.43654e-11
1.70976e-11
2.23277e-11
6.27902e-10
7.40227e-09
3.69369e-09
-5.69738e-10
-2.85196e-09
-8.76605e-09
7.09347e-07
4.97854e-08
3.87174e-10
1.42011e-09
3.60177e-09
6.81101e-09
1.22286e-08
1.91684e-08
2.63208e-08
3.31702e-08
3.91545e-08
4.48494e-08
4.9191e-08
5.33666e-08
5.96942e-08
6.78885e-08
7.62044e-08