/*--------------------------------*- C++ -*----------------------------------*\
| =========                 |                                                 |
| \\      /  F ield         | OpenFOAM: The Open Source CFD Toolbox           |
|  \\    /   O peration     | Version:  2.1.1                                 |
|   \\  /    A nd           | Web:      www.OpenFOAM.org                      |
|    \\/     M anipulation  |                                                 |
\*---------------------------------------------------------------------------*/
FoamFile
{
    version     2.0;
    format      ascii;
    class       volScalarField;
    location    "0.0012";
    object      epsilon;
}
// * * * * * * * * * * * * * * * * * * * * * * * * * * * * * * * * * * * * * //

dimensions      [0 2 -3 0 0 0 0];

internalField   nonuniform List<scalar> 
36520
(
94.051
266.67
603.07
790.127
973.586
1092.63
1164.3
1163.17
1109.51
1032.15
972.039
935.818
905.322
871.896
827.421
772.912
713.514
652.887
593.051
536.136
481.476
430.514
381.64
335.604
291.767
250.991
213.147
178.787
147.954
120.993
97.8777
78.6414
62.9865
50.5601
40.9103
33.5329
27.9491
23.7416
20.5446
18.0573
16.0624
14.4355
13.2301
12.6183
12.5538
12.5347
10.526
7.2648
4.29882
2.2566
1.09484
0.358528
0.0653314
0.0172446
0.0122317
0.00987231
0.00920004
0.00804716
0.00840577
0.010687
18.756
87.9218
127.809
131.371
137.427
128.786
111.114
81.6984
58.4174
50.4093
49.4075
48.1591
46.3872
43.9225
40.9786
38.0838
34.5751
31.5704
28.9618
27.2088
25.863
24.7155
23.2418
21.3192
19.0246
16.5771
14.0435
11.5348
9.24598
7.30364
5.77438
4.692
4.03743
3.74363
3.7434
3.97328
4.35463
4.8675
5.51795
6.33562
7.39855
8.87798
11.1265
14.7536
20.5483
28.8328
37.7023
46.4753
54.0433
57.8902
51.3779
29.5829
8.09481
0.587867
0.0202637
0.00483624
0.00504617
0.00525839
0.00591479
0.00244388
5.99249
21.8316
25.228
21.6467
20.1231
16.244
11.9318
7.31358
5.26763
5.59169
4.74888
3.22179
2.78669
2.57088
2.4193
2.3391
2.21136
2.14364
2.12119
2.18059
2.27046
2.3756
2.44683
2.46417
2.44016
2.40294
2.36855
2.35727
2.4037
2.52939
2.74841
3.07071
3.49937
4.04231
4.71169
5.52928
6.5704
7.90431
9.62058
11.8478
14.8094
18.8751
24.7558
33.7835
48.0405
70.5778
104.772
144.883
178.81
180.778
144.326
86.5058
30.3924
3.64271
0.13529
0.00411893
0.0012097
0.00124576
0.00199329
0.00181573
2.10963
5.7332
5.4313
4.38628
4.66675
5.59864
8.2942
14.1871
25.6364
44.3778
32.4791
7.25143
1.36484
0.892331
0.926577
1.05793
1.21923
1.41851
1.66584
1.99123
2.35345
2.73795
3.22622
3.85618
4.63592
5.60132
6.76454
8.14272
9.7075
11.4283
13.2692
15.1806
17.0056
18.5915
19.9239
19.2652
19.2286
21.4052
24.8919
29.7029
36.1735
44.6879
55.7898
71.0423
93.0509
126.572
183.707
290.151
424.499
431.12
331.943
193.047
78.4933
14.9618
0.777836
0.0237875
0.000709197
0.000235012
0.000966711
0.00168677
0.862253
2.3867
3.61541
7.08413
15.9528
36.4522
80.1428
166.822
316.961
544.995
421.976
117.659
18.5669
6.55785
6.23745
7.38564
8.79381
10.4316
12.6164
16.2697
20.3247
23.8828
27.9979
35.8973
47.597
63.5615
84.7142
112.753
148.048
190.663
240.891
299.632
363.449
434.275
415.772
318.2
207.013
132.243
104.392
107.426
118.733
137.025
161.762
195.725
242.502
289.278
356.396
492.973
708.571
735.674
602.728
403.264
175.772
44.5746
3.44917
0.139935
0.00425486
0.000155848
0.000787231
0.00164729
0.449174
7.65675
22.4101
62.9293
154.747
356.017
762.194
1530.19
2755.06
4521.58
3759.34
1440.02
340.18
121.605
104.51
119.327
138.421
165.085
212.373
276.506
339.38
380.809
402.9
446.882
557.53
752.223
1014.05
1385.15
1890.07
2516.67
3227.55
4000.29
4702.61
4944.08
4545.52
3742.62
2819.91
2014.49
1442.73
1012.06
768.768
709.512
681.339
717.412
807.079
861.719
906.131
1027.49
1185.74
1182.75
986.786
726.966
401.088
111.167
12.3653
0.674181
0.0290589
0.000806039
0.000758409
0.00162181
1.09532
76.4053
232.738
610.914
1374.07
2958.28
5960.37
11174.1
18295.3
25592.6
22969.2
12289.9
4968.19
2518.31
2172.69
2545.07
2918.24
3337.17
3892.42
4270.96
4607.42
4836.83
4821.53
4683.71
4809.04
5434.29
6431.43
7804.83
9644.9
11941.3
14393
16731.5
18616
19451.7
19002.4
17323.3
14805.5
11927.5
9401.96
7180.9
5282.23
3825.49
2603.69
1956.3
1761.4
1654.72
1477.8
1332.99
1265.41
1170.24
988.959
774.235
575.509
251.652
38.3713
2.78736
0.144758
0.00457939
0.000807208
0.00159448
18.5765
529.609
1373.58
3324.31
7030.56
14772.3
27201.7
43275.2
56832.5
65334.1
65770.2
54805.9
38599
30601.4
31766
36574
41183.5
43387
41585
36322.3
30575.7
27452.7
26606.7
26063.9
25932.9
26806.6
28594
30682
32889.3
35370.3
37709.4
39019.9
39227.1
38676.5
37425.4
35113.8
31665.3
27177.7
22472.2
18139.1
14343.8
11275.1
8598.64
6151.62
4485.02
3614.07
2959.19
2185.66
1582.19
1195.33
899.692
670.026
513.677
289.114
71.4889
7.38703
0.477599
0.0183439
0.00109727
0.00156157
38.3218
838.211
2462.59
4679.45
7657.2
11430.8
16027.2
21314.3
27680.3
34860.6
39666.3
42670.2
46976.7
52905.2
59891.9
67029.8
72808.4
75313.8
73748.2
69292.6
63376.7
57171.8
51590.9
47078.2
43499.6
40895.2
39242.6
38063.6
36911.3
35681.7
34567.5
33488.5
32332.9
31037.4
29597.6
27981.8
26023.5
23615.1
20720.6
17619.8
14689.7
12255.1
10397.1
8783.21
7155.84
5694.65
4610.89
3695.05
2670.46
1775.52
1103.89
679.121
442.432
249.965
80.9351
12.8052
1.15593
0.0574718
0.00221366
0.0015393
29.9934
686.108
2284.26
3798.69
5358.71
7116.83
9187.71
11870.9
15154
18525.1
21545.1
23321.7
23277.8
22786.1
23338
25651.7
29193.7
32777.7
35837.5
38555.3
41872.6
46254.3
49722.7
49593.4
45668.3
40621.8
36253.6
32798
30106.8
28067.4
26661.1
25790.1
25151
24353.5
23201.9
21643
19675
17425.3
15062.8
12733
10396.6
8082.5
5864.7
4000.2
2778.26
2144.87
1707.72
1290.89
981.833
730.266
509.001
367.986
290.961
191.574
70.0031
12.3786
1.22612
0.0656963
0.0025294
0.00153882
18.3517
517.06
2290.94
4779.4
5885.47
7491.14
10375.9
16436.2
26526.7
38443
49542.5
56805.9
57215.8
54721.3
52546.5
52446.2
54722.9
57934.2
61665.4
66395.6
72836.7
81179.4
89909.9
93682.2
87906.8
77560.9
68945.2
63021.1
59580.8
58201.9
58244.8
59133.3
60044
60046.4
58760.8
56191.3
52295.1
47208.5
41048.6
34273.6
27246.8
20046.5
13212
8006.74
4699.75
2978.01
2141.28
1619.88
1270.54
972.457
700.202
516.611
409.738
261.747
90.723
15.8418
1.56548
0.0837915
0.00302174
0.00153257
15.8406
452.761
1425.72
3684.45
6017.74
10055.9
16488.1
29751.8
52681.4
75926.5
94544.8
103988
103965
104988
107297
109674
113333
118513
123072
128147
134252
138508
136917
127187
111862
96124.6
83233.1
76948.1
76901.8
80231.5
84574.2
88500.9
91103.8
91799.4
90624.6
87617.4
82867.5
75750.7
66001.8
54127.1
40510.7
26980.3
16000.2
8630.58
4762.08
3259.86
2858.69
2569.5
2133.49
1779.44
1369.36
1004.99
742.052
478.409
163.774
24.0099
1.86896
0.0828276
0.00266768
0.00154556
21.7641
511.631
1168.45
2974.28
4991.01
8974.99
16239.3
29640.3
43933.8
58698.1
78173.6
97910.9
103814
103355
109134
113801
119612
127329
134221
138983
142751
144094
139351
127205
111675
98222.5
86562.7
78412.3
75609.6
77501.7
81699.7
85682.1
88935.6
90844
90586.8
87400.2
81211.9
72316.1
61394.3
49017.8
35330.4
22423.3
12810.3
6927.79
4080.19
3138.36
3383.23
3629.26
3202.36
2527.88
1818.46
1247.12
869.318
541.023
179.211
25.0358
1.89215
0.0826932
0.0026541
0.00154546
22.58
993.055
5354.71
8635.99
8942.95
10375.9
13922
18646
21961
26808.7
35902.5
51932.3
67613.8
69126.8
63852.8
64143.1
68566.1
74028.2
78699.5
81602.8
83591.9
86145.7
89954.2
91487.8
84489.4
71828.9
61459.4
55012.1
51267.2
49700.3
49811.8
50901.7
51963.2
51884.2
50298
47335.9
43334.5
38690.6
33812.8
28825.3
23185.4
16646.8
10392.5
5978.84
3529.72
2454.23
2113.95
1885.45
1558.24
1192.98
882.91
670.709
545.483
320.032
90.398
14.0733
1.33048
0.0704381
0.00265066
0.00153564
24.6359
331.612
1972.73
4991.42
8982.48
11054.3
11567.7
12650
15149.1
18720.7
26841.1
45918.4
74398.3
85147.5
73815.2
65659.2
65078.9
68385.2
73052.7
76826.1
78282.8
76453.9
71552.3
63830.2
55312.6
48381.8
43148.2
39744.7
37910.5
36791.3
36284.3
36396.3
36629.2
36028.7
33891.4
30045.4
25271.8
20805.7
17143.3
14116.3
11332.3
8507.3
5806.67
3725.45
2407.2
1648.87
1235.73
968.187
769.47
613.001
494.586
428.311
374.661
194.395
45.983
7.05122
0.677604
0.0364482
0.0017132
0.00154317
22.4423
454.351
2694.75
4954.47
6646.89
9662.78
14675.1
22721.8
35068.4
56247.8
85714
107850
100226
76222.4
66959.2
67094.7
68607.7
69724.5
70073.5
68796.4
65285.7
60772.5
56448.3
52128.4
47624.7
43113.3
39093.7
36309.7
34357.5
32515.3
30567.3
28508.4
26209.2
23534.2
20765.3
17944.1
15140.2
12582.2
10323.8
8425.03
6824.07
5283.94
3842.14
2713.5
1947.54
1502.34
1334.37
1218.48
1025.79
801.741
606.133
484.673
400.915
199.679
44.9598
6.48824
0.58038
0.0294198
0.00148396
0.00154472
10.4896
370.256
1220.94
2584.66
5718.95
11604.3
19737.3
32975.1
49989.4
58591.5
54468.5
44313.8
31772.3
21134.5
18557.1
21839
26766.8
31240
33728.2
34019.2
33422
32400.4
29631.5
26004.5
23408.2
21782.4
21462.5
22746
24930.5
27294.3
29263.3
30377.3
30256.7
29123.5
26955.7
23578.9
19537.7
15438
11778
8911.42
6838.82
5294.14
4209.98
3484.31
3087.07
3072.5
3144.62
2769.14
2061.22
1399.37
941.098
663.5
498.171
243.252
50.5227
5.21684
0.339443
0.0132306
0.000990972
0.00155748
0.881408
40.0791
128.318
350.777
856.168
1936.58
4079.58
7952.03
12833.1
15873.1
13072
8625.68
4571.45
2115.94
1486.97
1814.75
2568.98
3576.09
4721.85
5280.82
5599.01
5627.15
4987.54
3942.49
3036.45
2660.33
2935.45
3424.07
3981.55
4555.87
4981.57
5180.32
5257.41
5169.86
4748.3
4134.18
3600.41
3130.49
2811.12
2589.07
2526.93
2828.15
3489.17
4402.34
5363.45
6063.53
5726.51
4659.03
3502.62
2479.15
1650.49
1055.02
670.171
264.55
37.5071
2.54888
0.125597
0.0038672
0.000796043
0.00159566
0.822426
4.19577
12.9389
39.1635
102.257
234.481
490.412
937.993
1586.66
2241.57
1750.32
915.119
332.61
104.643
65.0348
84.2269
119.206
167.446
229.512
309.475
373.581
388.473
312.84
202.063
136.104
142.058
161.91
184.806
207.822
227.179
236.695
235.941
230.087
222.914
217.726
220.169
237.046
270.847
328.887
420.911
573.244
830.893
1270.36
2002.15
2985.62
3645.17
3980.77
3957.66
3620.53
3026.86
2127.6
1281.89
666.157
175.706
14.7871
0.767878
0.0316431
0.000849706
0.000767172
0.00162774
1.75485
1.73754
1.61048
3.0682
7.84657
19.1112
42.4188
84.1523
142.951
204.615
147.242
60.2071
15.9332
5.13245
4.30953
5.60922
7.61038
10.3306
13.8988
18.9502
23.419
24.4956
20.5863
16.5735
16.1011
18.3197
21.0206
24.1655
27.6434
31.3501
35.1926
39.3446
44.1868
50.2385
58.2591
69.2603
85.1735
108.479
143.3
197.111
283.371
423.99
652.221
989.792
1440.14
1884.02
2145.14
2043.37
1703.4
1397.61
1077.35
704.309
339.763
83.2211
5.72466
0.221858
0.00635803
0.000201122
0.000798983
0.00165907
4.1765
5.50972
3.40608
1.84084
1.59645
1.77967
2.73442
4.72234
7.75775
11.0956
7.52874
2.79936
1.10925
0.940007
1.08685
1.3286
1.64181
2.01871
2.46878
2.98699
3.4731
3.84363
4.0858
4.41289
4.92678
5.63968
6.4845
7.48465
8.64539
9.98558
11.5241
13.3432
15.5848
18.4635
22.32
27.6764
35.4588
47.1641
65.2988
94.0877
140.502
214.61
328.789
488.422
704.251
908.82
1003.58
910.158
738.203
607.643
493.022
342.264
165.178
38.693
1.96919
0.0601832
0.00143432
0.000179717
0.00090797
0.00168239
8.31788
20.6836
17.4787
11.2529
8.98598
6.23259
4.10283
2.33404
1.57878
1.5332
1.37497
1.23419
1.20903
1.20819
1.20586
1.21748
1.24518
1.32753
1.44413
1.57787
1.72622
1.89071
2.06862
2.27419
2.52191
2.78267
3.04177
3.33754
3.70609
4.1949
4.84765
5.71412
6.86728
8.43183
10.6093
13.7376
18.4318
25.8202
38.0065
58.8765
95.6612
161.329
275.88
446.478
605.012
688.607
639.823
469.34
302.833
198.704
145.178
108.62
53.4955
9.58234
0.323045
0.00738014
0.000810703
0.000838768
0.00162754
0.00176338
21.4792
83.6872
100.361
87.3312
83.525
71.7632
59.5102
44.8285
34.7853
31.489
30.0281
28.8026
27.546
25.9699
24.0023
21.8815
19.6756
18.0397
16.6823
15.5357
14.5739
13.8237
13.2361
12.8025
12.4187
11.6576
10.5633
9.31438
8.07293
7.02142
6.29241
5.90493
5.81988
6.01518
6.4974
7.30871
8.54318
10.398
13.2364
17.7117
24.9091
36.4821
52.7261
67.6926
77.8424
79.6588
69.6129
53.209
40.646
33.2899
28.3816
22.1213
9.82605
1.1994
0.0297885
0.00391725
0.00397087
0.00422311
0.00488377
0.00222611
150.229
287.951
574
694.406
808.398
872.913
909.79
909.739
883.59
843.951
806.244
774.658
741.698
706.492
663.393
614.475
560.621
505.958
452.825
403.861
358.24
317.317
279.693
245.636
213.614
184.364
157.509
133.308
111.594
92.6236
76.4997
63.2474
52.5345
44.0036
37.2533
31.9825
27.8891
24.7342
22.3243
20.3853
18.616
16.7182
14.5824
12.0084
9.42762
6.76059
4.28884
2.41261
1.23416
0.58536
0.26907
0.12123
0.0442361
0.0150073
0.0107345
0.00918568
0.00869761
0.00776168
0.00801121
0.00913824
102.467
226.194
470.288
575.058
686.215
752.658
811.347
842.919
855.533
852.591
830.51
800.996
756.738
710.036
655.684
601.243
545.485
491.542
440.136
391.948
346.432
304.562
265.592
230.177
197.568
168.176
141.629
118.174
97.7106
80.3236
65.8008
53.929
44.3699
36.85
31.0616
26.7039
23.4433
21.022
19.2448
17.8933
16.7228
15.4893
13.9193
11.7839
9.52849
7.18843
4.88295
2.94341
1.60532
0.813294
0.392332
0.181729
0.0667108
0.016998
0.0103319
0.00881607
0.00841768
0.0075509
0.00787675
0.00962458
16.6105
56.6794
73.6507
65.6901
64.434
59.2562
58.97
55.8947
53.4381
49.8388
46.4378
41.7016
37.8618
33.3329
29.3881
25.6642
22.3254
19.9319
18.0604
16.6069
15.3868
14.3292
13.3542
12.3659
11.2535
10.0611
8.8493
7.73556
6.78495
6.05977
5.58814
5.3716
5.39947
5.67973
6.21954
7.0357
8.18084
9.76923
12.0094
15.2264
19.9149
26.6426
34.6191
42.768
50.4265
55.9415
57.2799
53.7964
48.3753
43.2188
37.8462
30.0756
15.3259
2.35119
0.0619068
0.00458649
0.00420226
0.0044263
0.00507898
0.00229255
4.95972
12.1662
11.0653
7.20399
5.88122
4.52538
4.20122
3.64634
3.3278
2.96842
2.68198
2.34008
2.11096
1.85705
1.68051
1.55203
1.47621
1.48606
1.55143
1.65653
1.79288
1.95582
2.13977
2.34291
2.56088
2.8143
3.12504
3.52723
4.04771
4.72282
5.59187
6.70694
8.13701
10.0013
12.4886
15.8989
20.7587
27.9884
39.0796
56.3742
84.1574
129.262
201.261
312.476
415.663
474.111
473.531
398.615
296.253
218.694
164.2
127.409
70.8913
15.2157
0.596591
0.0113728
0.000884543
0.000826705
0.00160936
0.00176046
1.91943
2.91602
1.85286
0.904341
0.666352
0.501518
0.505488
0.509034
0.571231
0.659052
0.792523
0.965328
1.19175
1.46668
1.79425
2.17388
2.60341
3.07482
3.60019
4.19891
4.89055
5.67772
6.56571
7.57679
8.72718
10.0549
11.5721
13.3027
15.2582
17.48
20.0591
23.274
27.594
33.7739
42.9272
56.9046
79.1011
115.891
179.005
289.434
491.086
868.238
1572.52
2825.77
4789.36
5829.81
5550.86
4216.61
2481.07
1356
790.535
472.689
235.529
61.4752
4.00363
0.0975891
0.002132
0.000155088
0.000866579
0.00165882
0.8714
0.874155
0.49862
0.366638
0.454313
0.631342
0.932976
1.37618
2.0405
2.98269
4.31643
6.12042
8.48058
11.4072
14.8388
18.6172
22.5482
26.4039
30.3983
34.5499
38.707
42.5019
46.1537
50.364
55.4891
60.8778
66.2672
71.4628
76.4331
81.021
85.1075
89.4931
96.023
107.249
126.141
154.76
197.724
267.746
388.735
605.228
1016.32
1824.24
3424.99
6453.36
11300.5
17395.1
18303.5
14241.5
7623.03
3737.58
2288.58
1415.75
692.001
183.756
18.4412
0.629875
0.0185146
0.000437674
0.000772352
0.00163865
0.477917
0.763461
0.965868
1.4707
2.2915
3.58414
5.66301
8.98876
14.429
22.8275
35.694
54.5854
81.0443
116.1
159.447
207.891
256.061
296.732
327.044
356.404
384.458
393.121
386.491
391.451
422.137
458.136
489.886
512.824
528.857
538.58
531.266
497.463
446.129
398.767
369.919
365.157
389.308
456.746
601.576
878.832
1420.49
2476.08
4551.52
8706.18
16245.8
26316.5
30842.3
25212
14628.8
7254.05
4146.2
2444.5
1262.93
439.052
61.1311
2.70423
0.100391
0.00224864
0.000774969
0.00162337
0.388876
4.48598
8.82213
15.2475
22.5683
33.6816
51.7916
82.1199
134.942
222.737
366.317
595.828
946.35
1453.2
2118.98
2880.81
3683.6
4460.89
5097.05
5591.06
5957.66
5995.78
5800.7
5708.22
6216.72
7014.57
7901.78
8753.56
9597.68
10574
11443.8
11734
11190
10072.9
8785
7600.6
6465.26
4515.62
2942.27
2550.96
2978.01
3931.64
6060.86
10493.1
16778.9
22939.4
24950.8
21048
14525
8909.51
5193.25
2762.95
1343.7
528.79
107.335
7.63889
0.307076
0.00751777
0.000838827
0.00160329
1.01711
47.5746
109.411
188.006
265.908
375.053
555.872
881.136
1491.25
2543.58
4190.57
6763.52
10437.9
15490.9
21820.6
28169.8
34037.6
39976.2
44528.5
46414.2
47575.9
47637.9
46994.9
46616
47798.1
52262.5
58860.7
65917.2
72898.5
81131.9
90552
98743.3
103020
102610
97844.4
86803.3
71639
56347.2
42692.2
29538.8
21555.1
16996.8
14781.9
14225.4
14927.1
16665.8
16731.9
13550.4
9517.58
5822.69
3298.02
1789.39
958.574
431.927
107.059
10.8508
0.585688
0.0184153
0.00104071
0.00157218
22.3908
957.462
2150.76
1911.51
2825.37
4119.55
5294.12
7688.07
12190.7
19932.1
28666.5
40002.6
53327.9
68447.2
85706.8
101536
110758
115537
120131
122604
121705
119053
115061
111353
108793
108244
110682
115425
120942
125701
128702
128809
125034
117928
108340
97239.6
86082.2
75788.7
66162.1
55283
42311.9
30533.8
21544.6
14927.7
10247.4
7681.46
7069.6
6453.27
4932.73
3189.31
1914.11
1120.63
686.798
331.966
83.7747
10.3267
0.743347
0.031237
0.00141636
0.00154049
52.2534
2196.62
7189.71
17892.2
27994.3
34603.7
38624.3
42353.3
45497
48944
53243.3
57370.4
61371
64622
67858
71622.5
75459.2
78580.2
81067.4
83226.1
85000.6
86482.4
86857.1
84463.8
79277.6
73996.7
70631.3
68345.4
66144.3
62889.9
58161
52454.7
46787.4
41294.5
35944.6
30803.4
26051.9
21723.5
17774.7
14242.5
11017.5
8187.19
5912.66
4245.36
3101.77
2360.27
1983.7
1781.95
1453.44
1040.92
706.54
486.94
364.685
207.715
63.4642
10.2748
0.984951
0.0531134
0.0022023
0.00152501
38.8223
1117.14
9506.64
22907.3
32040.8
37539.7
38390.7
38985
41315.5
43423.4
43219.2
40619.7
37597
35749.1
35504.1
36230.6
37103.5
37605
37499.1
36788.6
35683
34259.8
32517.2
30386.8
27771.7
25029.4
22646.5
20942.7
19701.2
18515.3
17446.7
16906.5
16737.8
16647
16439.5
16056.9
15372.3
14116.6
12206.2
9904.42
7633.18
5576.62
3861
2564.4
1697.69
1180.52
890.218
710.958
580.438
449.844
352.28
300.854
272.795
163.072
48.3544
8.16248
0.830259
0.0471603
0.00208179
0.00152855
29.4061
408.662
1864.06
5309.75
14608.2
33826
53118.7
53822.7
51320.2
59377.2
67308
67716.1
66317.2
67729.7
69974.2
71144.7
70393.8
67627.9
63564.8
58966.6
54326.4
49623.7
44630
39551.6
34846
30871.5
27759.8
25613.9
24427.5
24045.8
24229.1
24682.6
25171.5
25486.7
25578.4
25249
23915.6
21225.1
17306.8
12827
8652.2
5358.05
3135.77
1837.4
1155.13
818.297
631.522
519.468
453.243
394.099
348.224
335.749
293.606
148.047
38.9288
6.9371
0.738897
0.0430156
0.0019664
0.00152596
27.3828
598.903
3062.24
7418.92
15438.1
25357.8
31329.7
33732.9
40210.7
53646.2
71481.4
79663.2
73554.6
66533.4
64337.6
65290.2
67065.2
68275.5
67899.9
65166.6
60985.8
56443.4
51616.1
46593.4
41538.6
36841.6
33023.6
30389.6
28894
28347
28450.9
28989.8
29719.6
30344.4
30646.5
30461.4
29390.2
26939.4
22703.2
16919.5
11202.2
6802.05
3887.37
2183.8
1285.32
878.816
678.242
566.191
501.685
434.21
371.209
342.625
312.684
172.766
46.8718
8.02894
0.839399
0.0481505
0.00210227
0.00152565
31.0275
861.937
3336.16
9966.72
13836.6
18469.9
22964.8
27255.1
31884.1
36575.3
38227.2
34668
30797.9
29643.2
30261.5
31969.4
34244.2
36606.2
38860.3
41026.4
42993.4
43659.7
41726.1
37687.2
33332.8
29753.7
27089.7
25562.2
25025.5
25291.6
26222.6
27607.2
29124.3
30449.1
31310.6
31250.3
29902.3
27419.4
24022.1
19681.8
14763
10232
6703.97
4261.18
2723.58
1824.85
1343.14
1070.73
866.599
679.443
516.303
408.483
353.475
239.865
82.465
13.3306
1.27909
0.0684758
0.00261119
0.00152631
58.4911
1236.56
3105.34
7019.59
10883.7
16228.3
22469.2
29493
35333.4
38269.9
38025.3
36363
35893
37058.2
39793.2
43619.3
47865.7
52503.9
57471.8
62570.9
67901.2
72533.3
73967.5
71241.6
66343.6
61836.8
58447
56558.8
57162.7
60687
66085.8
71738.6
76533.3
80111.8
82050.9
79934.2
70540.4
55327.2
39230
25797.5
16153
9787.04
5761.45
3270.36
1852.03
1143.97
898.926
956.402
951.704
802.656
645.606
518.821
434.02
317.648
128.191
21.4537
1.88148
0.0902503
0.00300607
0.00153703
83.2175
679.679
983.473
1718.66
3250.61
6284.47
11819.4
19925
28022.8
33817.3
38639.2
44512.8
52177.8
62060.7
73787.5
85628.7
95974
103747
107785
107771
104331
96887.2
86675.7
75878.4
66812.4
61659.6
61436.8
65141.9
71884.3
79410.8
84846.3
86657.2
85024.5
80010.7
71306.9
57913
42290.7
28389.5
18001.4
10977.4
6633.05
3982.01
2405.02
1497.96
1057.27
1029.39
1479.12
2106.99
2128.73
1750.6
1313.99
955.736
713.959
472.599
161.119
19.7215
1.26585
0.0468235
0.00166625
0.00155759
22.2102
473.035
1145.43
2573.2
5230.25
10524
18968.3
29378.2
39963.4
48073.5
55226.9
62105.8
70321.2
83271.4
99871
116855
132159
143780
148265
144079
134579
123153
111304
99438.4
89530.9
85048.1
84840
87015.7
92093.1
97711.8
100538
99207
94309.8
86765.7
76872.4
63691.4
47924.3
30801.9
16334.1
7634.33
3986.82
2658.06
2107.37
1992.02
2246.56
2879.4
3668.82
3833.92
3289.35
2506.09
1819.57
1301.91
940.9
577.799
177.545
19.7805
1.17467
0.0402234
0.00149216
0.00157588
4.34148
95.8485
239.818
525.49
1041.2
1970.1
3654.84
6633.92
10072.2
13217
16327.5
18699.5
20074
21398.3
24059.7
27160.8
30215.5
33093.9
35081.1
36573.8
37312.2
37182.4
35937.3
34316.5
33532.6
34504.4
36766.5
41038.5
45785.7
48503.1
47794.3
44370.4
39364.5
33539.4
27262.4
20842.6
14694.1
9413.93
5827.7
3809.38
2985.77
2721.06
2696.49
2932.4
3547.34
4348.2
4535.94
3976.44
3126.85
2311.29
1699.31
1235.4
823.127
318.566
51.8919
4.22578
0.237189
0.00800451
0.00087351
0.00157526
1.3097
5.86129
12.7185
25.7944
48.4696
86.7483
151.922
260.557
445.154
676.733
746.291
686.867
708.398
772.125
916.559
1139.5
1442.27
1818.47
2248.95
2796.89
3228.6
3391.39
3240.33
2903.84
2751.64
3028.55
3725.16
4663.51
5594.02
6306.4
6902.01
7020.97
6637.17
5906
4899.44
3792.66
2776.15
2096.24
1819.23
1827.25
2328.35
3016.38
3998.6
5693.22
7938.96
9563.18
9621.71
8657.58
6919.36
4925.29
2992.58
1469.84
522.473
140.345
16.4081
0.974816
0.0446623
0.00132383
0.000767084
0.00161681
2.59875
2.00004
1.62337
1.98383
3.02265
4.5831
6.76543
9.44959
12.4893
15.514
17.2542
15.8284
15.873
17.3455
20.4299
25.2589
31.7239
39.4435
47.856
57.5544
70.8605
79.7909
76.8264
74.0035
88.0277
109.877
138.557
172.177
204.401
232.833
260.146
284.977
316.592
327.543
299.82
261.516
235.145
245.073
306.615
414.497
606.103
922.269
1461.67
2283.2
3234.55
4076.52
4324.56
4019.76
3237.85
2190
1288.67
651.539
247.983
64.2679
5.09925
0.223013
0.00727709
0.000218799
0.000780245
0.00164464
4.46751
5.26772
3.16682
1.63167
1.19966
0.906134
0.850481
0.83774
0.891849
0.961784
1.05899
1.11878
1.20068
1.33864
1.51794
1.74629
2.02155
2.34646
2.70786
3.13273
3.6246
4.16496
4.79063
5.58986
6.60878
7.86978
9.36698
11.0783
12.9074
14.8616
16.9753
19.215
21.6644
24.5296
28.2782
33.6385
41.5315
53.3407
71.5212
100.651
149.533
231.366
369.713
595.589
965.552
1257.16
1305.61
1124.27
884.529
682.723
481.969
275.388
117.322
25.6237
1.33703
0.0428504
0.00108374
0.000165708
0.000901671
0.0016746
8.4621
19.9872
16.4965
10.5887
8.27464
5.93414
4.76039
3.59364
2.96734
2.60901
2.50581
2.55388
2.58927
2.50304
2.35025
2.18465
2.02195
1.95303
1.93986
1.98093
2.05711
2.16737
2.3004
2.44586
2.58803
2.7438
2.93428
3.18894
3.53154
3.97841
4.53943
5.2235
6.06255
7.10943
8.45164
10.2334
12.6793
16.1438
21.2662
29.263
42.4911
65.0589
105.09
176.941
267
328.215
344.548
299.203
235.173
192.865
152.322
100.113
43.5345
6.943
0.241153
0.00616546
0.000890527
0.000923452
0.00170629
0.001773
22.8065
79.9617
96.3545
83.2605
79.0834
70.0206
64.3673
56.3464
50.7607
46.3449
44.0187
42.7573
41.4896
38.9614
35.7713
32.3215
28.6028
25.702
23.2831
21.4014
19.7715
18.3712
17.0331
15.6194
13.9387
12.0793
10.1608
8.35074
6.82322
5.67729
4.93707
4.54578
4.41518
4.48807
4.7396
5.15789
5.75946
6.5848
7.71698
9.33395
11.7972
15.7684
22.4039
33.4884
46.036
56.2809
60.1777
54.6066
46.8479
42.4766
37.6105
25.4263
10.0181
1.08408
0.0291086
0.00431028
0.00435166
0.00458747
0.00526373
0.00233985
127.47
281.318
557.701
676.085
793.637
865.653
911.825
924.908
912.826
885.241
847.292
808.555
766.395
723.851
676.052
627.577
576.756
526.977
478.09
432.036
386.863
344.254
303.406
265.384
229.14
195.306
164.033
136.069
111.593
90.9146
73.7967
59.9472
48.8726
40.1045
33.2136
27.8716
23.7824
20.6449
18.1893
16.1828
14.4227
12.7481
11.1675
9.76795
8.15703
6.29193
4.33429
2.59446
1.38286
0.697044
0.354254
0.152162
0.0502899
0.0155529
0.0107584
0.00910507
0.00860179
0.00770112
0.00803718
0.0100486
124.874
226.299
479.352
600.404
708.257
769.052
800.928
799.11
772.961
735.351
698.922
668.204
636.929
603.975
564.813
521.446
474.936
429.24
385.111
344.838
307.445
274.394
244.149
217.225
192.494
169.859
148.955
129.985
112.79
97.5845
84.5506
73.7938
65.0184
57.9455
52.2467
47.7275
44.2395
41.6558
39.73
37.8799
35.4517
31.6399
26.7677
22.0517
17.4781
12.7827
8.38884
4.9363
2.63894
1.29627
0.600926
0.253982
0.07955
0.0153894
0.00907293
0.00793208
0.00789788
0.00702572
0.00742125
0.00860157
74.3816
163.992
351.079
438.037
515.23
560.97
581.282
575.782
553.364
523.45
493.511
467.827
442.364
416.79
388.461
358.876
328.893
300.396
273.261
249.24
227.622
208.972
192.387
178.115
165.081
152.957
141.341
130.215
119.263
108.613
98.5503
89.4707
81.5218
74.6184
68.5426
63.3342
59.2652
56.353
53.6501
50.6149
46.8117
41.9501
36.5619
31.1909
25.7617
19.9835
14.1412
9.1646
5.45582
3.01967
1.59397
0.724926
0.213593
0.0227709
0.00742113
0.00651604
0.00680703
0.00610268
0.00654417
0.00749943
58.8789
108.754
212.56
259.495
302.756
330.303
341.408
338.162
325.183
307.667
288.531
272.02
256.618
242.485
228
214.199
200.164
186.946
174.112
162.76
152.658
144.025
136.478
129.883
123.346
116.528
109.216
101.4
93.0484
84.8658
77.7904
71.665
66.0348
61.0742
57.0394
53.6763
51.0386
49.6135
49.4592
50.4649
52.0153
52.3557
50.1255
45.9896
41.1833
34.3112
25.4114
17.6573
11.6356
7.22685
4.51322
2.34256
0.734186
0.0633619
0.00666319
0.00514615
0.00560283
0.00512536
0.00558273
0.00638777
49.7993
71.1509
115.755
131.926
151.821
166.02
172.293
171.818
166.418
158.822
150.218
142.311
135.3
129.303
123.454
117.852
111.741
105.339
98.5348
91.9002
85.726
80.2097
75.2212
71.0366
67.8627
65.9146
65.5472
67.2829
72.3003
82.7661
101.833
114.846
112.97
105.669
100.098
91.5999
80.7081
75.9626
82.6095
95.9429
114.576
128.043
127.917
122.73
130.574
121.2
88.084
53.4383
30.6415
18.2773
12.214
7.16506
2.49263
0.245378
0.00957781
0.00427175
0.0046856
0.00437736
0.00484207
0.005615
43.5714
38.09
50.8796
59.9011
69.4448
77.385
81.3571
82.2732
80.6144
77.5576
73.6008
69.6337
66.0427
62.8832
59.8512
56.9696
54.2193
51.8596
50.2654
49.3484
48.4411
47.0647
46.2144
46.8594
50.1025
57.984
72.5607
94.5802
127.103
176.624
227.593
272.306
309.816
346.359
378.896
395.785
386.802
371.409
379.877
414.564
480.333
516.576
457.916
340.493
237.549
174.474
111.222
59.2315
35.612
28.2391
22.2211
15.293
6.17856
0.814797
0.024718
0.00429225
0.00428741
0.00404145
0.00452775
0.00533825
35.4407
22.0012
30.2605
36.1563
44.0417
49.3958
54.2196
57.1753
58.8471
59.2719
58.7776
57.8047
56.9542
56.1938
55.31
54.2198
53.067
52.3432
52.5137
53.3106
54.3053
54.682
54.3521
53.7653
53.6458
55.9882
62.8608
72.6258
86.2084
105.742
136.545
170.5
207.153
248.971
284.441
322.08
358.585
394.412
420.552
443.141
468.358
464.763
427.772
394.157
361.495
305.035
243.794
163.387
98.7208
60.8024
37.902
19.827
6.62566
0.814451
0.0258141
0.00441032
0.00439603
0.00414797
0.00468663
0.00551832
44.4654
41.1816
57.8824
62.1713
71.6123
76.7472
83.0861
86.7539
90.7472
93.6639
96.0384
97.6102
98.9492
99.735
99.7001
98.2805
95.8169
92.5266
89.0501
85.9109
83.5877
81.3195
78.9516
76.7823
75.6765
75.8537
76.0384
76.1452
76.5828
77.5901
79.5326
84.1895
98.0182
115.993
129.452
130.415
118.482
103.345
83.8555
67.2505
58.746
51.0972
44.7012
40.6591
38.9935
39.7826
41.95
45.1004
49.4175
54.0389
43.7998
27.3254
10.274
1.38879
0.033274
0.00490927
0.00487163
0.00455883
0.0051749
0.0060653
37.0681
64.5809
135.575
164.607
193.529
204.62
214.986
216.96
216.5
215.388
214.555
211.26
205.918
198.824
190.537
179.958
167.704
154.792
142.875
132.868
126.754
126.056
129.663
138.705
157.051
187.885
233.426
300.083
398.662
536.597
740.131
971.421
1233.69
1520.32
1850.3
2230.1
2608.74
2860.85
2911.3
2798.15
2642.46
2407.61
2044.03
1509.87
973.683
635.826
409.708
227.453
122.895
66.3428
36.9185
19.4002
6.19712
0.572269
0.014423
0.0051765
0.00587208
0.00539096
0.00610927
0.00708051
34.2642
78.7563
202.053
279.767
365.312
415.488
462.99
490.986
507.542
512.707
515.047
514.475
511.275
507.157
500.883
488.847
472.08
449.992
425.235
399.383
375.601
353.481
333.554
315.877
299.941
286.749
277.5
275.437
284.369
306.075
345.622
414.544
484.78
544.287
607.836
678.785
719.576
717.987
686.221
662.784
681.047
678.417
618.139
484.664
328.381
201.786
120.013
69.0387
43.0838
25.5441
14.7788
7.12671
2.20979
0.179181
0.00850832
0.00598323
0.00704185
0.00631584
0.00715358
0.0082333
35.3858
98.0379
264.016
350.05
450.156
517.128
579.542
621.832
650.863
665.962
672.704
671.34
665.568
657.891
647.89
632.999
612.515
587.58
559.469
530.991
503.551
478.232
453.652
429.579
405.546
381.479
355.438
327.103
297.482
269.018
242.104
217.568
196.217
179.177
167.483
161.611
159.531
159.633
160.915
162.994
165.133
160.537
146.815
123.458
95.9596
72.523
59.3571
41.7043
26.4582
16.0814
10.0674
5.44697
1.83449
0.167082
0.00900232
0.00643752
0.0074952
0.00666893
0.00755177
0.00884968
43.4472
120.472
311.971
399.638
500.569
568.996
629.692
670.238
696.763
709.254
709.82
701.985
688.15
669.082
646.638
620.412
590.359
559.223
526.929
496.872
466.773
439.248
412.087
386.634
361.829
338.027
313.303
287.727
261.528
235.972
211.649
189.235
169.547
153.151
139.872
129.66
122.227
116.787
112.288
107.309
100.447
90.6359
78.7532
66.0848
53.1754
40.9442
30.4159
21.0125
14.1668
10.2976
7.98501
5.07358
2.13593
0.314299
0.0142222
0.00662074
0.0073823
0.00657296
0.00738747
0.00883192
50.4036
126.084
321.638
416.684
516.814
586.188
643.939
681.068
702.61
709.736
704.156
689.85
668.16
642.131
611.923
578.525
542.136
505.437
469.157
435.936
404.059
375.551
348.622
324.108
300.864
279.207
257.861
236.676
215.476
194.997
175.536
157.768
142.312
130.144
119.419
109.295
100.618
94.0508
88.7543
83.1927
75.9014
66.3458
55.7063
45.6624
36.4298
27.857
20.3498
14.2279
9.82576
7.12391
5.13847
3.1777
1.28681
0.159244
0.0104059
0.00676191
0.0074048
0.006593
0.00730766
0.00880125
50.743
135.525