/*--------------------------------*- C++ -*----------------------------------*\
| =========                 |                                                 |
| \\      /  F ield         | OpenFOAM: The Open Source CFD Toolbox           |
|  \\    /   O peration     | Version:  2.1.1                                 |
|   \\  /    A nd           | Web:      www.OpenFOAM.org                      |
|    \\/     M anipulation  |                                                 |
\*---------------------------------------------------------------------------*/
FoamFile
{
    version     2.0;
    format      ascii;
    class       volVectorField;
    location    "0.0012";
    object      fluctuation2;
}
// * * * * * * * * * * * * * * * * * * * * * * * * * * * * * * * * * * * * * //

dimensions      [0 1 -1 0 0 0 0];

internalField   nonuniform List<vector> 
36520
(
(0.325939 0.179391 0.2148)
(0.466814 0.282172 0.268392)
(0.608632 0.37384 0.356569)
(0.660343 0.41316 0.395756)
(0.708599 0.440455 0.426148)
(0.735978 0.455981 0.446295)
(0.75135 0.464152 0.459515)
(0.749041 0.463855 0.464522)
(0.735167 0.45709 0.461388)
(0.715991 0.446667 0.452258)
(0.701408 0.437763 0.442498)
(0.693627 0.431755 0.434631)
(0.687614 0.426485 0.427335)
(0.680499 0.420703 0.420192)
(0.669685 0.413236 0.4119)
(0.655329 0.403827 0.401989)
(0.638542 0.393102 0.390945)
(0.620443 0.38149 0.378936)
(0.601437 0.369292 0.366308)
(0.582282 0.356811 0.353267)
(0.562617 0.343949 0.339757)
(0.542978 0.330975 0.326135)
(0.522557 0.317535 0.312154)
(0.501557 0.30377 0.298051)
(0.47953 0.289492 0.283601)
(0.45681 0.274929 0.269006)
(0.433196 0.260033 0.254211)
(0.408991 0.244982 0.239429)
(0.384289 0.229819 0.224645)
(0.359565 0.214778 0.210056)
(0.335159 0.200031 0.195763)
(0.311671 0.185922 0.182014)
(0.289527 0.17269 0.168953)
(0.269194 0.160592 0.156777)
(0.251 0.149849 0.145655)
(0.235098 0.14055 0.135668)
(0.221473 0.132671 0.126878)
(0.209988 0.126106 0.119273)
(0.20035 0.120657 0.112724)
(0.192144 0.116086 0.107059)
(0.184976 0.112174 0.102131)
(0.178624 0.108844 0.0978691)
(0.173533 0.106431 0.0945566)
(0.170736 0.105553 0.092841)
(0.170186 0.106186 0.0928552)
(0.169598 0.106826 0.09362)
(0.159143 0.1011 0.0901512)
(0.139206 0.0893719 0.0824226)
(0.114973 0.0751044 0.072418)
(0.0908959 0.0604684 0.0613546)
(0.0703462 0.0473005 0.0501305)
(0.0474357 0.0337031 0.0356891)
(0.0245671 0.0217605 0.0209688)
(0.0123833 0.01609 0.0138765)
(0.0107747 0.0143342 0.0124083)
(0.0105442 0.0129316 0.0115401)
(0.0108518 0.0121759 0.0112253)
(0.0105145 0.0114477 0.0107973)
(0.0109917 0.0113597 0.0108954)
(0.0118903 0.0123055 0.0118349)
(0.255935 0.137326 0.138225)
(0.285072 0.171377 0.16131)
(0.312821 0.191917 0.183753)
(0.304425 0.189426 0.182823)
(0.302 0.187516 0.182395)
(0.288473 0.179287 0.176377)
(0.268601 0.167597 0.166414)
(0.23744 0.149649 0.149878)
(0.210826 0.134208 0.134763)
(0.200278 0.128027 0.128291)
(0.199064 0.126849 0.126632)
(0.198441 0.125618 0.124878)
(0.197119 0.123954 0.12285)
(0.194283 0.121588 0.120329)
(0.190097 0.118706 0.117315)
(0.185529 0.11571 0.11419)
(0.179777 0.112028 0.110365)
(0.174621 0.108655 0.106836)
(0.169839 0.105488 0.103488)
(0.166341 0.103031 0.100847)
(0.163408 0.10091 0.09852)
(0.160702 0.0988985 0.0963216)
(0.157041 0.0963385 0.0936141)
(0.152044 0.0930052 0.0902008)
(0.145696 0.0889321 0.0860915)
(0.138334 0.0843254 0.0814939)
(0.129878 0.0791496 0.0763814)
(0.120406 0.0734461 0.070806)
(0.110471 0.0675341 0.0650534)
(0.100627 0.0617217 0.0594108)
(0.0914692 0.0563626 0.0541903)
(0.0837495 0.0518989 0.0497868)
(0.0781463 0.0487139 0.0465469)
(0.0749466 0.046955 0.0445914)
(0.0741399 0.0466045 0.0438952)
(0.0753403 0.0474387 0.0442353)
(0.0775782 0.0489138 0.0451026)
(0.0803896 0.050764 0.0462646)
(0.0834923 0.0528333 0.0475928)
(0.0866646 0.0550109 0.0490137)
(0.0898656 0.0572657 0.0505603)
(0.0934266 0.0597712 0.0524471)
(0.0982409 0.0630308 0.0551926)
(0.10549 0.06769 0.0595339)
(0.115817 0.0739993 0.0659203)
(0.12773 0.0806968 0.0737068)
(0.136525 0.0843807 0.0804121)
(0.143332 0.0858051 0.086481)
(0.148733 0.0861047 0.091763)
(0.150283 0.0847863 0.0939194)
(0.139372 0.0775055 0.0873064)
(0.105601 0.0594703 0.0672803)
(0.058925 0.0345649 0.0383611)
(0.0181853 0.0111627 0.0123846)
(0.00525693 0.00456999 0.0051627)
(0.00437761 0.00439391 0.00481903)
(0.00473664 0.00461323 0.00493599)
(0.00481713 0.00472656 0.00496552)
(0.00537773 0.0051772 0.00538924)
(0.00940669 0.00931835 0.00947646)
(0.178633 0.0909656 0.0905804)
(0.153227 0.0920616 0.0868201)
(0.15208 0.0932252 0.0896851)
(0.135933 0.0846713 0.0820158)
(0.127308 0.079274 0.0772984)
(0.113295 0.0707586 0.069747)
(0.097595 0.0615146 0.06098)
(0.0778582 0.0500396 0.049602)
(0.0645137 0.0423719 0.0415605)
(0.061537 0.0408202 0.0397266)
(0.0610662 0.0401385 0.0389081)
(0.0596318 0.0385685 0.0372966)
(0.0587655 0.0376072 0.0363958)
(0.0577563 0.0367692 0.0356419)
(0.0566609 0.0360392 0.034953)
(0.0559179 0.0355967 0.0345142)
(0.0547181 0.0348875 0.03382)
(0.0539442 0.0344195 0.0333736)
(0.0534843 0.0341297 0.0331206)
(0.0536974 0.0342311 0.0332677)
(0.0541382 0.0344683 0.0335362)
(0.0546653 0.0347597 0.0338456)
(0.0547806 0.0348318 0.0339362)
(0.0542913 0.0345788 0.0337192)
(0.0532754 0.0340636 0.0332599)
(0.0519333 0.0334088 0.0326927)
(0.0503571 0.0326699 0.0320809)
(0.048693 0.0319266 0.0315148)
(0.0473499 0.0313982 0.0311938)
(0.0466132 0.0312264 0.0312481)
(0.0466802 0.0315114 0.0317566)
(0.0476604 0.0322995 0.0327465)
(0.0495228 0.0335651 0.034162)
(0.0521911 0.0352661 0.0359316)
(0.0555571 0.037357 0.0379593)
(0.0595623 0.0398167 0.0402068)
(0.0642368 0.0426863 0.0427262)
(0.0696001 0.0459832 0.0455558)
(0.0757069 0.0497404 0.0487432)
(0.0826344 0.053999 0.0523566)
(0.0905986 0.058874 0.0565765)
(0.100029 0.0645922 0.0616883)
(0.111791 0.0716237 0.068215)
(0.127231 0.080661 0.076919)
(0.147691 0.092365 0.0885069)
(0.174345 0.107133 0.103343)
(0.207309 0.124643 0.121373)
(0.240653 0.140117 0.139149)
(0.266233 0.150043 0.152774)
(0.269872 0.147965 0.154292)
(0.245458 0.132453 0.139576)
(0.189782 0.103555 0.108996)
(0.116558 0.0667575 0.069749)
(0.0444186 0.0259568 0.0276224)
(0.00993816 0.00588195 0.00628718)
(0.00238198 0.00195501 0.00215712)
(0.00187994 0.00179072 0.00193422)
(0.00189061 0.00182977 0.00193394)
(0.00275123 0.00263916 0.00274989)
(0.00853399 0.00843757 0.0085707)
(0.127159 0.0626393 0.063533)
(0.0838814 0.0502491 0.0478014)
(0.0751253 0.0460436 0.0444817)
(0.0623635 0.0391232 0.0380066)
(0.0563884 0.035854 0.0350045)
(0.049875 0.0326723 0.0321439)
(0.0467686 0.032239 0.0316566)
(0.0488079 0.0355817 0.034681)
(0.0588167 0.0437863 0.0424668)
(0.0745398 0.0549713 0.0532589)
(0.0665234 0.0485131 0.0469833)
(0.0402746 0.0290453 0.028218)
(0.0299254 0.0210096 0.020657)
(0.0290393 0.020208 0.0200815)
(0.0297629 0.0207361 0.020769)
(0.031104 0.0217377 0.0219064)
(0.0325729 0.0228306 0.0231567)
(0.0343253 0.0240776 0.0245791)
(0.0363637 0.0254734 0.0261728)
(0.0387839 0.0270958 0.0280026)
(0.0412809 0.0287301 0.0298185)
(0.0437868 0.0303414 0.0315594)
(0.0465626 0.0321418 0.0334785)
(0.0496611 0.0341772 0.0356525)
(0.0530484 0.0364273 0.0380793)
(0.0568023 0.0389319 0.0407991)
(0.0608827 0.0416505 0.0437641)
(0.0652681 0.0445527 0.0469765)
(0.0698119 0.0475322 0.0503527)
(0.0744112 0.0504942 0.0538075)
(0.078959 0.0533676 0.057263)
(0.0833646 0.0560862 0.0606344)
(0.0874235 0.0584998 0.063701)
(0.0910334 0.0605343 0.0662828)
(0.0943438 0.0623275 0.0683916)
(0.0952923 0.0624822 0.0685255)
(0.0973656 0.0634347 0.0691881)
(0.102505 0.0664361 0.0718366)
(0.109451 0.0705875 0.0755616)
(0.118107 0.0757814 0.0801804)
(0.128652 0.0820759 0.085861)
(0.141149 0.0894269 0.0926808)
(0.155811 0.0979135 0.100705)
(0.173735 0.108156 0.110642)
(0.196492 0.120921 0.123306)
(0.226612 0.137426 0.13964)
(0.269668 0.160322 0.161935)
(0.333044 0.192886 0.193786)
(0.396902 0.223033 0.225218)
(0.407037 0.220308 0.225199)
(0.369229 0.195519 0.200371)
(0.294241 0.157802 0.15933)
(0.193149 0.107954 0.107829)
(0.090092 0.0517327 0.0533928)
(0.0234629 0.0134713 0.0140245)
(0.00446935 0.00259824 0.00270905)
(0.000987938 0.000777954 0.000835872)
(0.000759654 0.000722415 0.000764886)
(0.00208296 0.00199341 0.00207122)
(0.00834961 0.00822577 0.00834564)
(0.0942945 0.0457742 0.0481063)
(0.0475275 0.02883 0.0280719)
(0.0411668 0.0267911 0.0261179)
(0.040459 0.0287542 0.028118)
(0.0518617 0.0379219 0.037266)
(0.07241 0.0531309 0.0525375)
(0.102929 0.0755326 0.0745576)
(0.143682 0.106058 0.103616)
(0.192304 0.142118 0.137323)
(0.248832 0.180988 0.173885)
(0.222459 0.16077 0.154187)
(0.12603 0.092086 0.0886643)
(0.0605468 0.0447909 0.0440932)
(0.0455737 0.0338111 0.033974)
(0.0471822 0.0348302 0.0353037)
(0.0517999 0.0380769 0.0388265)
(0.0571135 0.04178 0.0428841)
(0.0630965 0.0459083 0.0474818)
(0.0701733 0.0507396 0.0529151)
(0.0791604 0.0568352 0.0597323)
(0.0880421 0.0626656 0.0663562)
(0.0958679 0.0675599 0.0719605)
(0.104028 0.0726529 0.0775986)
(0.115866 0.0803943 0.0859078)
(0.130502 0.0900861 0.0962182)
(0.147539 0.101357 0.108115)
(0.166815 0.114082 0.121394)
(0.188525 0.128379 0.136273)
(0.211687 0.143651 0.152201)
(0.23555 0.159353 0.168655)
(0.259665 0.175241 0.185308)
(0.283823 0.191138 0.202038)
(0.306156 0.205674 0.217518)
(0.327006 0.218893 0.231509)
(0.318225 0.211895 0.225016)
(0.283062 0.187131 0.201008)
(0.238942 0.156226 0.171185)
(0.204983 0.132051 0.148124)
(0.191899 0.12215 0.138931)
(0.195801 0.124021 0.140682)
(0.205355 0.129696 0.145585)
(0.219289 0.138324 0.152864)
(0.23661 0.149436 0.161766)
(0.258106 0.163404 0.172998)
(0.284788 0.180517 0.187606)
(0.311854 0.196727 0.202024)
(0.349682 0.217431 0.221137)
(0.415477 0.250853 0.252292)
(0.499703 0.28919 0.291163)
(0.520212 0.28761 0.293716)
(0.486879 0.260622 0.267352)
(0.414798 0.221869 0.222843)
(0.292876 0.161 0.156827)
(0.157298 0.0881456 0.0884332)
(0.0490023 0.0278303 0.0284564)
(0.0107259 0.00606583 0.00620107)
(0.00194264 0.00111303 0.00114361)
(0.000505643 0.00042693 0.000447133)
(0.00198142 0.00188615 0.00195146)
(0.00831774 0.00815518 0.0082493)
(0.0749178 0.0370141 0.0405491)
(0.0412458 0.0293695 0.0292069)
(0.0609882 0.0455752 0.0450394)
(0.0972029 0.0729216 0.0718182)
(0.14878 0.109528 0.108359)
(0.22085 0.159357 0.158572)
(0.316402 0.22625 0.224166)
(0.43807 0.31419 0.3064)
(0.573451 0.411681 0.395305)
(0.713328 0.504105 0.481269)
(0.65332 0.461612 0.438867)
(0.424121 0.305166 0.290333)
(0.225417 0.164077 0.159198)
(0.14847 0.108621 0.107945)
(0.142514 0.104353 0.104697)
(0.154995 0.11336 0.114235)
(0.170633 0.12487 0.126417)
(0.190603 0.139542 0.142107)
(0.218898 0.160018 0.163946)
(0.250987 0.182572 0.188482)
(0.279856 0.202131 0.210733)
(0.300519 0.215217 0.226618)
(0.316213 0.224464 0.2378)
(0.339175 0.23877 0.253021)
(0.378899 0.26486 0.279812)
(0.434621 0.302008 0.318253)
(0.497931 0.344042 0.361896)
(0.573938 0.393891 0.413153)
(0.660242 0.450202 0.470592)
(0.749649 0.50825 0.530088)
(0.836015 0.564168 0.58688)
(0.917193 0.616349 0.638258)
(0.980317 0.656371 0.675509)
(0.99445 0.66379 0.679382)
(0.94906 0.631914 0.644703)
(0.861114 0.572872 0.584904)
(0.751287 0.499947 0.513766)
(0.642496 0.427354 0.444495)
(0.553014 0.366206 0.387762)
(0.476093 0.312347 0.338716)
(0.42797 0.27747 0.307578)
(0.417024 0.268831 0.300675)
(0.414977 0.267524 0.298122)
(0.428348 0.278361 0.305938)
(0.454575 0.297454 0.323272)
(0.475304 0.312115 0.335331)
(0.500571 0.325454 0.3453)
(0.549664 0.3471 0.365143)
(0.604728 0.368077 0.389237)
(0.621817 0.363979 0.389074)
(0.592672 0.336693 0.35649)
(0.534236 0.297031 0.301282)
(0.422484 0.231856 0.225372)
(0.247576 0.135346 0.132937)
(0.091899 0.0513838 0.0516069)
(0.023418 0.0131388 0.0132613)
(0.00502263 0.00281353 0.00284929)
(0.000894921 0.000558876 0.000571215)
(0.0019591 0.00185057 0.00190704)
(0.00831215 0.00810482 0.00817394)
(0.0928338 0.0565242 0.0621136)
(0.112939 0.0838479 0.0859188)
(0.19073 0.142001 0.142397)
(0.300753 0.222015 0.220845)
(0.440321 0.314922 0.31623)
(0.63004 0.435404 0.443716)
(0.869037 0.590586 0.604328)
(1.15399 0.783318 0.792241)
(1.43187 0.974995 0.97072)
(1.64939 1.11788 1.09667)
(1.56989 1.07191 1.03255)
(1.19915 0.842521 0.800593)
(0.815575 0.583326 0.559849)
(0.623654 0.444402 0.435831)
(0.604059 0.429424 0.424858)
(0.654819 0.464926 0.460335)
(0.704207 0.501223 0.495194)
(0.7569 0.540552 0.533116)
(0.818848 0.585822 0.578353)
(0.864988 0.619181 0.615449)
(0.906239 0.6474 0.651012)
(0.933752 0.664326 0.677151)
(0.940507 0.666505 0.687256)
(0.942094 0.665504 0.690868)
(0.970686 0.683635 0.709591)
(1.03832 0.727735 0.751682)
(1.12393 0.785124 0.80761)
(1.22823 0.855799 0.877255)
(1.35317 0.939631 0.958673)
(1.49134 1.02995 1.04656)
(1.62345 1.11405 1.12939)
(1.73774 1.18493 1.19907)
(1.82235 1.23326 1.24511)
(1.85592 1.24684 1.25527)
(1.83037 1.22382 1.22769)
(1.74614 1.16566 1.16452)
(1.6142 1.07954 1.07592)
(1.45134 0.975599 0.973594)
(1.29182 0.872758 0.875399)
(1.13538 0.769023 0.780027)
(0.985097 0.667548 0.687783)
(0.854581 0.576366 0.604727)
(0.730622 0.488586 0.522695)
(0.658468 0.439386 0.474421)
(0.642002 0.427884 0.462035)
(0.636901 0.423387 0.458692)
(0.619295 0.41382 0.45055)
(0.607014 0.409743 0.442361)
(0.611613 0.40757 0.436654)
(0.610446 0.394528 0.419423)
(0.587644 0.363731 0.3832)
(0.549187 0.322299 0.333961)
(0.498377 0.275541 0.278175)
(0.357739 0.193222 0.190827)
(0.158402 0.0869681 0.0862139)
(0.0470568 0.0261181 0.0260851)
(0.0112416 0.00624784 0.00627006)
(0.00207471 0.0011761 0.00118662)
(0.00196198 0.00182786 0.00187574)
(0.00830731 0.00804931 0.00809161)
(0.222755 0.158355 0.167616)
(0.289167 0.221234 0.226328)
(0.44925 0.346097 0.342887)
(0.675884 0.51177 0.505168)
(0.950517 0.698706 0.688835)
(1.33521 0.935677 0.930538)
(1.76201 1.19714 1.20021)
(2.17875 1.45864 1.46634)
(2.46976 1.6408 1.65435)
(2.62217 1.7411 1.75103)
(2.62087 1.76016 1.75018)
(2.42545 1.6689 1.63072)
(2.11905 1.49277 1.44366)
(1.98307 1.39239 1.35515)
(2.06249 1.42666 1.39984)
(2.20694 1.51527 1.49176)
(2.33241 1.59622 1.57211)
(2.39711 1.63878 1.61086)
(2.36953 1.62236 1.58843)
(2.26116 1.55647 1.52125)
(2.13201 1.47929 1.45131)
(2.05572 1.43545 1.42059)
(2.03146 1.42421 1.4214)
(2.01377 1.41651 1.42144)
(2.01169 1.41803 1.42591)
(2.0448 1.44204 1.44757)
(2.10679 1.48448 1.48398)
(2.17769 1.53193 1.52498)
(2.25232 1.58079 1.56901)
(2.33548 1.63224 1.61579)
(2.41449 1.67669 1.65574)
(2.46468 1.70033 1.67619)
(2.48335 1.70292 1.6764)
(2.47882 1.69016 1.66051)
(2.45011 1.66232 1.62896)
(2.38485 1.6128 1.57461)
(2.27663 1.53883 1.49404)
(2.12262 1.4395 1.38849)
(1.94269 1.32633 1.27195)
(1.75552 1.20818 1.15535)
(1.57069 1.08936 1.04522)
(1.40078 0.978072 0.946469)
(1.23473 0.867344 0.849183)
(1.06968 0.752259 0.744938)
(0.949241 0.661437 0.658662)
(0.884142 0.611549 0.604965)
(0.822013 0.575018 0.568527)
(0.729437 0.523034 0.525428)
(0.653746 0.467193 0.474643)
(0.603613 0.420913 0.423315)
(0.557752 0.375304 0.372971)
(0.516517 0.327649 0.325543)
(0.483519 0.281252 0.283544)
(0.393738 0.213728 0.216632)
(0.219767 0.118965 0.118747)
(0.0781447 0.0427025 0.0425944)
(0.0210059 0.0115283 0.0115381)
(0.00426622 0.00235544 0.00236717)
(0.00202976 0.00182576 0.0018621)
(0.00829671 0.00798662 0.00799035)
(0.283239 0.226881 0.186628)
(0.382763 0.256446 0.255449)
(0.592643 0.425317 0.419996)
(0.780957 0.577737 0.564122)
(0.983272 0.727937 0.720638)
(1.19129 0.870491 0.855472)
(1.40727 1.00829 0.982245)
(1.63286 1.13435 1.10506)
(1.8623 1.25565 1.23681)
(2.06555 1.37386 1.3767)
(2.17964 1.46121 1.49036)
(2.25055 1.53368 1.57184)
(2.36049 1.62357 1.64653)
(2.50835 1.72815 1.73312)
(2.6737 1.83622 1.8275)
(2.83568 1.93688 1.9155)
(2.9668 2.01496 1.98147)
(3.03687 2.05284 2.00962)
(3.03753 2.04719 1.9945)
(2.98942 2.01322 1.94945)
(2.91359 1.96506 1.89135)
(2.82255 1.91278 1.83706)
(2.72199 1.86234 1.79465)
(2.61973 1.81548 1.75883)
(2.52561 1.77253 1.72208)
(2.45354 1.73854 1.69005)
(2.40954 1.71658 1.66729)
(2.38405 1.70109 1.64844)
(2.3644 1.68583 1.62944)
(2.34623 1.66921 1.6102)
(2.33324 1.65301 1.59262)
(2.32131 1.63512 1.57438)
(2.30479 1.61346 1.55423)
(2.27987 1.58669 1.53056)
(2.24536 1.55445 1.5012)
(2.19964 1.51581 1.46304)
(2.13643 1.46723 1.41094)
(2.05023 1.40628 1.34187)
(1.93637 1.33143 1.25656)
(1.80027 1.24717 1.16243)
(1.65465 1.16095 1.06881)
(1.51398 1.0812 0.984737)
(1.38787 1.01281 0.916944)
(1.26836 0.949106 0.855605)
(1.14647 0.877631 0.790202)
(1.03791 0.801112 0.725043)
(0.963501 0.734398 0.666185)
(0.8986 0.666902 0.609971)
(0.801148 0.579541 0.541563)
(0.692676 0.489079 0.464886)
(0.590207 0.405231 0.389094)
(0.513557 0.334468 0.326622)
(0.46693 0.277095 0.280618)
(0.397683 0.215057 0.225548)
(0.258819 0.137569 0.142161)
(0.112983 0.0604384 0.0617032)
(0.0355547 0.0191281 0.0194644)
(0.00816028 0.0044066 0.00448779)
(0.00234725 0.00190953 0.00194352)
(0.00829759 0.00793954 0.00791626)
(0.255325 0.211769 0.176837)
(0.362032 0.226782 0.227696)
(0.582664 0.411306 0.396395)
(0.723677 0.534295 0.503115)
(0.857899 0.64586 0.611378)
(0.995788 0.74622 0.704287)
(1.14116 0.845509 0.80502)
(1.30582 0.951165 0.928786)
(1.47983 1.05789 1.06577)
(1.63617 1.15147 1.18955)
(1.75529 1.23201 1.29155)
(1.82031 1.28678 1.35552)
(1.83306 1.30337 1.36233)
(1.84324 1.31017 1.34226)
(1.89367 1.33882 1.34492)
(2.0017 1.40337 1.39329)
(2.14443 1.48898 1.47165)
(2.28134 1.57071 1.55076)
(2.39933 1.64158 1.6188)
(2.5098 1.70753 1.67705)
(2.63511 1.78206 1.73538)
(2.77215 1.86707 1.79705)
(2.86463 1.93388 1.84374)
(2.85231 1.94866 1.85181)
(2.73564 1.90763 1.8172)
(2.58491 1.84333 1.76395)
(2.45379 1.78159 1.70892)
(2.35271 1.72763 1.65673)
(2.27946 1.68143 1.60873)
(2.23033 1.64335 1.56752)
(2.20408 1.61437 1.53686)
(2.19599 1.59322 1.51839)
(2.19286 1.57456 1.50716)
(2.17884 1.55028 1.49431)
(2.14589 1.5155 1.47301)
(2.09111 1.46795 1.43857)
(2.01288 1.4065 1.38653)
(1.91295 1.33276 1.31643)
(1.79461 1.25006 1.2292)
(1.66077 1.16186 1.12942)
(1.50706 1.06573 1.0181)
(1.33139 0.961267 0.897733)
(1.13644 0.849021 0.774628)
(0.940715 0.739281 0.661666)
(0.78458 0.65209 0.576688)
(0.692799 0.592449 0.52511)
(0.636683 0.536234 0.481615)
(0.587894 0.47213 0.427105)
(0.551707 0.413424 0.378455)
(0.511268 0.360882 0.340674)
(0.465825 0.313512 0.303577)
(0.438493 0.275898 0.276035)
(0.427464 0.245504 0.257172)
(0.38034 0.202171 0.218723)
(0.256295 0.13631 0.142051)
(0.116293 0.0625685 0.0634423)
(0.0379516 0.0205539 0.0206696)
(0.00898359 0.00488325 0.00490741)
(0.00244942 0.00194698 0.00197046)
(0.00830128 0.00795279 0.00789607)
(0.218565 0.171178 0.157451)
(0.32501 0.203273 0.213043)
(0.600509 0.435349 0.418371)
(0.827917 0.619175 0.57483)
(0.913982 0.705346 0.641245)
(1.03517 0.802171 0.72682)
(1.22523 0.934186 0.860265)
(1.53273 1.12736 1.08235)
(1.91651 1.35222 1.36367)
(2.27096 1.55746 1.61547)
(2.54502 1.7339 1.81172)
(2.71166 1.86486 1.94598)
(2.7429 1.91863 1.98389)
(2.72817 1.934 1.95945)
(2.73235 1.93989 1.93014)
(2.78377 1.96063 1.93821)
(2.88157 2.00699 1.98649)
(2.99167 2.06291 2.05145)
(3.1046 2.1233 2.12221)
(3.23163 2.19371 2.198)
(3.385 2.2796 2.27945)
(3.56293 2.37815 2.35966)
(3.72988 2.47195 2.42176)
(3.78569 2.52023 2.43967)
(3.65651 2.49006 2.39305)
(3.43174 2.41224 2.30724)
(3.23854 2.33811 2.22565)
(3.10489 2.28167 2.16583)
(3.03294 2.24642 2.13451)
(3.01542 2.23088 2.12759)
(3.03767 2.22868 2.13574)
(3.08385 2.23346 2.15215)
(3.13029 2.23546 2.16617)
(3.15243 2.224 2.16745)
(3.13974 2.19429 2.153)
(3.09121 2.14589 2.12042)
(3.00445 2.07711 2.06185)
(2.87987 1.98623 1.97205)
(2.7135 1.87126 1.84624)
(2.50657 1.73313 1.68601)
(2.25622 1.5708 1.49685)
(1.94395 1.37974 1.28029)
(1.58115 1.16517 1.04935)
(1.23105 0.961769 0.839159)
(0.946956 0.792351 0.672349)
(0.769987 0.671541 0.565452)
(0.683661 0.58532 0.505713)
(0.633759 0.509257 0.458896)
(0.599027 0.447343 0.418494)
(0.555201 0.395982 0.382081)
(0.502937 0.349358 0.342492)
(0.467529 0.310485 0.307663)
(0.451255 0.27856 0.278712)
(0.397285 0.226905 0.229491)
(0.264523 0.146675 0.146638)
(0.121424 0.0670354 0.0663138)
(0.0401886 0.0221728 0.0219246)
(0.00961021 0.00530102 0.00525892)
(0.00252126 0.00197665 0.00199012)
(0.00829573 0.00795295 0.00786849)
(0.207008 0.135408 0.176465)
(0.295748 0.213706 0.235)
(0.479838 0.391643 0.368015)
(0.727072 0.578475 0.523085)
(0.903864 0.709863 0.636098)
(1.15681 0.870099 0.786604)
(1.46826 1.08461 0.995244)
(1.93518 1.39542 1.32757)
(2.52219 1.73979 1.7214)
(2.99123 1.99619 2.00447)
(3.32747 2.20369 2.21057)
(3.5092 2.35262 2.35465)
(3.5401 2.43624 2.44192)
(3.58746 2.52241 2.49619)
(3.66863 2.59452 2.52354)
(3.75103 2.64102 2.56303)
(3.8499 2.68349 2.62537)
(3.96398 2.73034 2.70199)
(4.06065 2.76697 2.76901)
(4.15742 2.80544 2.83388)
(4.2639 2.84808 2.89807)
(4.34533 2.87575 2.9417)
(4.34856 2.86852 2.93758)
(4.23443 2.82025 2.86037)
(4.01772 2.74118 2.71444)
(3.75889 2.64126 2.53326)
(3.51425 2.53081 2.36751)
(3.37791 2.46848 2.28246)
(3.36225 2.46619 2.28017)
(3.42018 2.49451 2.32314)
(3.5077 2.52817 2.38185)
(3.59617 2.55707 2.43841)
(3.66484 2.57382 2.48015)
(3.70084 2.57259 2.50038)
(3.7031 2.55301 2.49726)
(3.66756 2.51337 2.46853)
(3.58824 2.45136 2.41156)
(3.45156 2.35717 2.31482)
(3.25117 2.22227 2.17364)
(2.97612 2.04591 1.98014)
(2.60819 1.81726 1.72535)
(2.15568 1.54291 1.41811)
(1.67507 1.2537 1.10134)
(1.23936 0.986054 0.825327)
(0.93369 0.788449 0.635747)
(0.796804 0.684013 0.550118)
(0.781326 0.639234 0.538634)
(0.780468 0.591538 0.536619)
(0.748646 0.535163 0.514625)
(0.709703 0.500613 0.491695)
(0.647441 0.454965 0.451367)
(0.581962 0.400596 0.3985)
(0.528219 0.345153 0.340429)
(0.451598 0.276806 0.267046)
(0.291749 0.171056 0.163202)
(0.123198 0.071076 0.0677496)
(0.0369527 0.0211465 0.0202844)
(0.0081906 0.00466612 0.00451)
(0.00232245 0.00192556 0.00192227)
(0.0082974 0.00801415 0.00787655)
(0.231766 0.148405 0.195399)
(0.31447 0.241485 0.240198)
(0.434653 0.368808 0.312693)
(0.648139 0.537589 0.473623)
(0.81966 0.666798 0.608994)
(1.09247 0.832641 0.792515)
(1.45247 1.07369 1.0342)
(1.92875 1.39496 1.34985)
(2.34479 1.63501 1.59266)
(2.70811 1.82163 1.78132)
(3.11136 2.04393 1.99647)
(3.4723 2.26308 2.20919)
(3.59464 2.38988 2.34971)
(3.59819 2.48691 2.45983)
(3.70683 2.61524 2.55762)
(3.81434 2.69291 2.62053)
(3.93567 2.75664 2.70193)
(4.07767 2.82325 2.80097)
(4.20193 2.87479 2.88665)
(4.29103 2.90382 2.94699)
(4.36425 2.92212 2.99124)
(4.40895 2.92206 3.0073)
(4.37776 2.88513 2.96905)
(4.23741 2.81012 2.85932)
(4.01544 2.7215 2.70183)
(3.78184 2.64056 2.54081)
(3.54939 2.54245 2.38455)
(3.37727 2.46033 2.27517)
(3.31465 2.43001 2.24402)
(3.35632 2.44857 2.27852)
(3.45091 2.48745 2.34286)
(3.54614 2.52096 2.40573)
(3.62685 2.54462 2.45578)
(3.67753 2.55346 2.4837)
(3.68405 2.53988 2.47962)
(3.6351 2.49508 2.43518)
(3.52676 2.41807 2.35206)
(3.3559 2.30696 2.23123)
(3.12325 2.15835 2.07152)
(2.81856 1.96736 1.86221)
(2.42119 1.72014 1.58956)
(1.95626 1.4302 1.27195)
(1.49838 1.14432 0.968807)
(1.11832 0.904954 0.731317)
(0.876824 0.749285 0.587406)
(0.795601 0.685657 0.539892)
(0.854166 0.701395 0.586646)
(0.912067 0.702796 0.638179)
(0.890363 0.656424 0.630154)
(0.822133 0.594955 0.583965)
(0.727389 0.519371 0.516455)
(0.633755 0.441089 0.440395)
(0.560123 0.370055 0.364673)
(0.469658 0.29217 0.279358)
(0.297877 0.176758 0.167802)
(0.123303 0.0717084 0.0682445)
(0.0366293 0.0210677 0.0202061)
(0.00809307 0.00462581 0.00447333)
(0.00231329 0.00192255 0.00192046)
(0.00829698 0.00801271 0.00787801)
(0.228176 0.181277 0.179095)
(0.435442 0.277461 0.299194)
(0.811774 0.604452 0.542511)
(1.0181 0.768028 0.677587)
(1.04631 0.826434 0.725075)
(1.14739 0.891654 0.82538)
(1.3381 0.989568 1.00481)
(1.56531 1.10461 1.17547)
(1.75357 1.19183 1.2404)
(1.97179 1.32138 1.316)
(2.28117 1.51319 1.45926)
(2.71279 1.77126 1.67375)
(3.0832 2.00687 1.86825)
(3.15123 2.11373 1.96965)
(3.06038 2.14309 2.03944)
(3.07522 2.19212 2.12986)
(3.18596 2.26621 2.22977)
(3.3272 2.34006 2.32093)
(3.45429 2.39745 2.39288)
(3.54524 2.43023 2.43524)
(3.6143 2.44926 2.45421)
(3.68653 2.46918 2.45938)
(3.76806 2.49621 2.45736)
(3.78779 2.50633 2.43506)
(3.64016 2.45009 2.35199)
(3.36959 2.33645 2.21993)
(3.13096 2.23127 2.10005)
(2.97163 2.15991 2.02126)
(2.87865 2.117 1.98334)
(2.84755 2.09954 1.97981)
(2.86685 2.10081 1.99776)
(2.91672 2.11116 2.02375)
(2.96806 2.11816 2.04278)
(2.98949 2.10827 2.0394)
(2.96804 2.07712 2.00881)
(2.90358 2.02418 1.94984)
(2.80156 1.95024 1.86418)
(2.66755 1.85737 1.75722)
(2.50883 1.74945 1.63371)
(2.32101 1.62677 1.49292)
(2.0777 1.47404 1.3236)
(1.75433 1.27543 1.11536)
(1.38653 1.04962 0.88957)
(1.06107 0.845912 0.695006)
(0.833476 0.69754 0.563906)
(0.722589 0.613064 0.504776)
(0.703599 0.576566 0.501604)
(0.693971 0.547316 0.506803)
(0.657107 0.503845 0.487394)
(0.605815 0.451107 0.445069)
(0.556235 0.398405 0.396267)
(0.52244 0.351688 0.350717)
(0.504162 0.313148 0.310592)
(0.422263 0.244648 0.24342)
(0.257049 0.143704 0.144222)
(0.112907 0.0625545 0.0625498)
(0.0368028 0.0203201 0.0203209)
(0.00877417 0.0048368 0.00485089)
(0.00243106 0.00194541 0.00196168)
(0.00829648 0.00796527 0.00787263)
(0.227305 0.198351 0.181428)
(0.255867 0.174239 0.221536)
(0.516794 0.407443 0.421902)
(0.799175 0.584781 0.57398)
(1.03686 0.754485 0.729338)
(1.13458 0.856386 0.838628)
(1.17631 0.892325 0.893743)
(1.2791 0.919726 0.921983)
(1.45433 0.987857 0.97611)
(1.65278 1.099 1.05991)
(1.97129 1.30271 1.22518)
(2.51009 1.63106 1.50229)
(3.12721 1.99733 1.81683)
(3.37132 2.18031 1.99913)
(3.20697 2.16336 2.04974)
(3.07148 2.13442 2.07083)
(3.0882 2.15645 2.11021)
(3.18624 2.20786 2.16555)
(3.30596 2.2636 2.22209)
(3.40008 2.30211 2.25702)
(3.44308 2.31247 2.25826)
(3.41702 2.28785 2.22302)
(3.32247 2.22915 2.15595)
(3.15693 2.13683 2.05467)
(2.95523 2.03123 1.93742)
(2.77689 1.94107 1.83474)
(2.63897 1.87058 1.75848)
(2.55024 1.8239 1.71245)
(2.50667 1.79799 1.68819)
(2.48686 1.78106 1.67422)
(2.48797 1.77138 1.66941)
(2.50857 1.76875 1.67324)
(2.53028 1.76487 1.67664)
(2.52195 1.74329 1.66126)
(2.46004 1.69184 1.61214)
(2.33447 1.60704 1.52548)
(2.16268 1.49873 1.41205)
(1.98177 1.38701 1.29231)
(1.8121 1.28281 1.17618)
(1.65015 1.18364 1.06405)
(1.47933 1.07882 0.947726)
(1.28034 0.956697 0.820518)
(1.06102 0.820235 0.687763)
(0.860443 0.691831 0.569709)
(0.709412 0.589372 0.483215)
(0.611793 0.513325 0.430778)
(0.558657 0.45763 0.403971)
(0.525859 0.411102 0.384526)
(0.500577 0.372386 0.362203)
(0.481267 0.33989 0.336952)
(0.469437 0.311163 0.312416)
(0.472152 0.286333 0.294368)
(0.467872 0.257276 0.275616)
(0.369034 0.194294 0.2118)
(0.205048 0.108946 0.116361)
(0.0871666 0.0467352 0.0488383)
(0.028023 0.015079 0.0156171)
(0.00663315 0.00358097 0.00369966)
(0.0022211 0.00186999 0.00189605)
(0.00830055 0.0079743 0.00790075)
(0.229406 0.193593 0.162878)
(0.279998 0.204384 0.21442)
(0.589548 0.440696 0.449696)
(0.762016 0.577686 0.588994)
(0.867169 0.667838 0.708357)
(1.0455 0.783568 0.840406)
(1.30893 0.926433 0.963833)
(1.64626 1.09982 1.09238)
(2.03345 1.31564 1.25965)
(2.53192 1.62539 1.50984)
(3.09692 1.97298 1.80147)
(3.51017 2.20428 2.02044)
(3.49493 2.19862 2.07926)
(3.16729 2.0599 2.03626)
(3.01227 2.03399 2.03198)
(3.02927 2.07926 2.05939)
(3.08079 2.11909 2.09037)
(3.12814 2.14334 2.11017)
(3.15962 2.15156 2.11221)
(3.15466 2.13614 2.09123)
(3.0996 2.09344 2.04555)
(3.01363 2.0372 1.98858)
(2.91776 1.97977 1.92986)
(2.81109 1.91966 1.86242)
(2.69524 1.85609 1.78466)
(2.57879 1.79214 1.7082)
(2.47414 1.73293 1.64599)
(2.40471 1.6892 1.6037)
(2.3614 1.6553 1.57285)
(2.32227 1.61992 1.54415)
(2.27852 1.58032 1.51434)
(2.22771 1.53649 1.48023)
(2.16268 1.48492 1.43576)
(2.07511 1.42162 1.37619)
(1.97123 1.35042 1.30528)
(1.85042 1.27163 1.22345)
(1.71422 1.18674 1.13362)
(1.57357 1.1024 1.04094)
(1.43455 1.02029 0.947278)
(1.30246 0.942752 0.858203)
(1.17542 0.867166 0.77413)
(1.03826 0.782802 0.688111)
(0.893518 0.691197 0.602075)
(0.764525 0.605434 0.527872)
(0.666497 0.532684 0.47593)
(0.608452 0.476036 0.452323)
(0.597548 0.443869 0.452932)
(0.595646 0.423542 0.446578)
(0.572609 0.396757 0.420392)
(0.536566 0.363691 0.382284)
(0.50229 0.328494 0.341112)
(0.486912 0.29662 0.307861)
(0.473729 0.26133 0.280006)
(0.368621 0.193018 0.210101)
(0.198888 0.10529 0.112361)
(0.0816131 0.0437115 0.0458312)
(0.0253325 0.0136191 0.0141972)
(0.00583267 0.00314721 0.00327637)
(0.00214839 0.00184658 0.0018804)
(0.00829895 0.0079602 0.00792547)
(0.185566 0.131825 0.136407)
(0.244398 0.19205 0.178977)
(0.424547 0.333542 0.309366)
(0.592395 0.461705 0.44475)
(0.849123 0.647579 0.627384)
(1.18258 0.866549 0.819918)
(1.52727 1.07719 1.00802)
(1.96029 1.32385 1.23964)
(2.39069 1.54853 1.45643)
(2.59501 1.64339 1.55606)
(2.56026 1.61159 1.54968)
(2.37505 1.50835 1.48945)
(2.07455 1.35831 1.38273)
(1.76424 1.20604 1.23283)
(1.70693 1.192 1.19381)
(1.86272 1.30023 1.29094)
(2.05088 1.42125 1.41288)
(2.20355 1.51464 1.51084)
(2.28348 1.55938 1.55827)
(2.29316 1.56284 1.56273)
(2.27498 1.55431 1.55207)
(2.24552 1.54217 1.53416)
(2.16748 1.49935 1.48653)
(2.05646 1.4329 1.41931)
(1.96483 1.37424 1.36415)
(1.90288 1.33053 1.32921)
(1.89272 1.31809 1.32564)
(1.94703 1.34662 1.36167)
(2.03571 1.39786 1.41974)
(2.12884 1.45294 1.47905)
(2.20399 1.49754 1.52513)
(2.24608 1.52103 1.5473)
(2.24288 1.51445 1.53661)
(2.20141 1.48213 1.49753)
(2.12059 1.42549 1.43323)
(1.99025 1.34164 1.341)
(1.82222 1.23864 1.22859)
(1.63345 1.12519 1.10709)
(1.44193 1.00839 0.990879)
(1.26809 0.894721 0.890702)
(1.12077 0.794154 0.812203)
(0.993485 0.707936 0.748159)
(0.892714 0.639214 0.699758)
(0.821913 0.585558 0.668897)
(0.785297 0.548658 0.661049)
(0.796736 0.536243 0.674059)
(0.826201 0.537849 0.675209)
(0.803526 0.521188 0.631904)
(0.728389 0.475239 0.556444)
(0.640022 0.416523 0.471745)
(0.5675 0.360731 0.395551)
(0.519707 0.310754 0.335305)
(0.483311 0.2641 0.288539)
(0.366712 0.192591 0.208775)
(0.185696 0.0995253 0.103831)
(0.0649269 0.035278 0.0363381)
(0.0173979 0.00948297 0.00976794)
(0.00355488 0.00195138 0.00201429)
(0.00199888 0.00181525 0.00185279)
(0.00829115 0.00797976 0.0079822)
(0.0894449 0.0520326 0.0533745)
(0.088995 0.0676226 0.0625553)