/*--------------------------------*- C++ -*----------------------------------*\
| =========                 |                                                 |
| \\      /  F ield         | OpenFOAM: The Open Source CFD Toolbox           |
|  \\    /   O peration     | Version:  2.1.1                                 |
|   \\  /    A nd           | Web:      www.OpenFOAM.org                      |
|    \\/     M anipulation  |                                                 |
\*---------------------------------------------------------------------------*/
FoamFile
{
    version     2.0;
    format      ascii;
    class       volVectorField;
    location    "0.0012";
    object      fluctuation1;
}
// * * * * * * * * * * * * * * * * * * * * * * * * * * * * * * * * * * * * * //

dimensions      [0 1 -1 0 0 0 0];

internalField   nonuniform List<vector> 
36520
(
(-2.25968e-05 8.665e-06 4.46852e-05)
(-3.09282e-05 1.40056e-05 6.61662e-05)
(3.86509e-06 2.7557e-05 0.00010504)
(6.01109e-06 4.19341e-05 0.00014106)
(9.73312e-06 6.36295e-05 0.000184166)
(1.26124e-05 9.02527e-05 0.000228628)
(1.44431e-05 0.000118725 0.000275094)
(1.47848e-05 0.00014735 0.000318328)
(1.33479e-05 0.000171844 0.000352822)
(8.38802e-06 0.00018904 0.000368916)
(2.0308e-07 0.000189342 0.000377901)
(-4.14447e-06 0.000175588 0.000383991)
(-1.74075e-06 0.000164253 0.000399234)
(3.9244e-06 0.000161953 0.000424795)
(9.88248e-06 0.000170166 0.000463684)
(1.4853e-05 0.000185805 0.000513465)
(1.97551e-05 0.000206953 0.000576958)
(2.55623e-05 0.000234909 0.000653645)
(3.25803e-05 0.000271395 0.000740723)
(4.05715e-05 0.000317314 0.000833332)
(4.90558e-05 0.000372286 0.000923299)
(5.73195e-05 0.000435381 0.00100388)
(6.40264e-05 0.000503666 0.00106345)
(6.76542e-05 0.000573144 0.00109299)
(6.6886e-05 0.00063777 0.00108017)
(6.14252e-05 0.000691196 0.00101885)
(5.25299e-05 0.000726388 0.000906133)
(4.35837e-05 0.000739418 0.000748987)
(4.00391e-05 0.000732166 0.000561468)
(4.77465e-05 0.000716853 0.000368234)
(6.96724e-05 0.000714325 0.000195516)
(0.000103422 0.000747844 6.1611e-05)
(0.000141197 0.00083084 -3.72384e-05)
(0.000172635 0.000961282 -0.000116547)
(0.000188886 0.00112351 -0.000190486)
(0.000185337 0.00129505 -0.000261353)
(0.000160186 0.00145184 -0.000322439)
(0.000115084 0.00156596 -0.000366152)
(5.68467e-05 0.00160939 -0.000390227)
(-4.97902e-06 0.00156222 -0.000397665)
(-6.9425e-05 0.00141596 -0.000392502)
(-0.000153765 0.00114741 -0.000372431)
(-0.000266091 0.000715356 -0.000313969)
(-0.000328933 0.000178236 -0.000250022)
(-0.000232555 -0.000325427 -0.00207015)
(-0.000141635 -0.00485729 -0.0367133)
(-0.000103757 -0.00882017 -0.0695236)
(-5.79305e-05 -0.00883194 -0.0748198)
(-2.34387e-05 -0.00761 -0.0689632)
(4.29672e-06 -0.00616141 -0.059141)
(3.11027e-05 -0.00464407 -0.0468819)
(4.4506e-05 -0.00254834 -0.0273252)
(2.7997e-06 -1.81444e-05 -0.00023279)
(-3.30138e-06 1.32296e-05 5.05214e-05)
(-1.78401e-06 9.68025e-07 4.46199e-06)
(-1.10723e-07 2.30241e-08 1.20097e-07)
(-1.95097e-09 2.59256e-10 1.41912e-09)
(-1.58217e-11 2.08683e-12 1.13223e-11)
(-1.02134e-13 1.34272e-14 6.93278e-14)
(-5.48366e-16 5.57878e-17 2.7033e-16)
(-1.30625e-05 5.60691e-05 9.85563e-05)
(-7.14305e-06 8.90824e-05 0.000116215)
(1.83741e-05 0.000126807 0.000148117)
(2.27298e-05 0.000159455 0.000164668)
(2.65672e-05 0.00019524 0.000179434)
(2.7816e-05 0.000225539 0.000184274)
(2.72882e-05 0.000251719 0.000182748)
(2.34527e-05 0.000264135 0.000169177)
(1.69111e-05 0.000269695 0.000153039)
(1.0859e-05 0.000278187 0.000137767)
(6.493e-06 0.000280068 0.000120643)
(6.41847e-06 0.000274889 0.000106163)
(1.14919e-05 0.000275276 9.41956e-05)
(1.88618e-05 0.000283595 8.35946e-05)
(2.69439e-05 0.000304509 7.77436e-05)
(3.51648e-05 0.00033657 7.67924e-05)
(4.39166e-05 0.000379136 7.84165e-05)
(5.26513e-05 0.000433919 8.21747e-05)
(6.04868e-05 0.000499803 8.63408e-05)
(6.66576e-05 0.000577707 9.04937e-05)
(7.01556e-05 0.000664254 9.29052e-05)
(6.9608e-05 0.000756282 9.22919e-05)
(6.31328e-05 0.00084458 8.58735e-05)
(4.94138e-05 0.000920197 7.2519e-05)
(2.84645e-05 0.000973302 5.11523e-05)
(2.34735e-06 0.000995967 2.12163e-05)
(-2.50794e-05 0.000981417 -1.15737e-05)
(-4.81528e-05 0.000927431 -5.70919e-05)
(-6.06217e-05 0.000849392 -9.41206e-05)
(-5.82957e-05 0.000769633 -0.000111829)
(-4.24436e-05 0.000709046 -0.000111021)
(-2.08777e-05 0.000673865 -0.000115884)
(-2.43458e-06 0.000661137 -0.000128589)
(8.7641e-06 0.000659293 -0.000150023)
(1.33845e-05 0.000657905 -0.000180109)
(1.44053e-05 0.000654596 -0.000217457)
(1.31359e-05 0.00065 -0.000257831)
(8.2314e-06 0.000641505 -0.000295595)
(-2.22565e-06 0.000614405 -0.000324421)
(-1.7851e-05 0.000547257 -0.000339006)
(-3.69569e-05 0.000422799 -0.000336791)
(-5.57958e-05 0.00022047 -0.000313532)
(-9.09293e-05 -0.000775076 -0.00347651)
(-0.000566604 -0.00744067 -0.0303492)
(-0.00392564 -0.0165681 -0.0567661)
(-0.00379787 -0.0200406 -0.0699781)
(-0.00235009 -0.0203385 -0.0777243)
(-0.0014486 -0.0202733 -0.0839291)
(-0.000812435 -0.020399 -0.0890977)
(0.000205141 -0.020166 -0.0911832)
(0.00163131 -0.0198329 -0.0843144)
(0.00323107 -0.0168617 -0.064199)
(0.0114382 -0.0106663 -0.0306209)
(9.29496e-05 0.000118904 0.000314529)
(-9.96831e-06 4.94868e-06 1.51257e-05)
(-7.96436e-07 2.10453e-07 6.82478e-07)
(-2.4354e-08 3.82265e-09 1.22012e-08)
(-2.97606e-10 4.49795e-11 1.36826e-10)
(-2.73862e-12 3.9106e-13 1.10348e-12)
(-2.88678e-14 3.08179e-15 7.92303e-15)
(-1.13105e-05 9.91784e-05 7.68045e-05)
(-2.72389e-06 0.000119234 5.60277e-05)
(1.46085e-05 0.000146438 5.29878e-05)
(1.33685e-05 0.000159315 4.26187e-05)
(1.11386e-05 0.000172378 3.29432e-05)
(8.76678e-06 0.00017885 2.20798e-05)
(6.4068e-06 0.000185892 1.38842e-05)
(3.43658e-06 0.000180289 6.2091e-06)
(-1.56258e-07 0.000176751 1.14807e-07)
(-4.43186e-06 0.000183435 -1.01935e-05)
(-6.41489e-06 0.000153459 -3.50108e-05)
(-5.57136e-06 0.00012635 -4.6271e-05)
(-4.33651e-06 0.00012842 -4.71103e-05)
(-2.23054e-06 0.000135229 -4.95532e-05)
(6.82203e-07 0.000145897 -5.38732e-05)
(3.14346e-06 0.00016062 -6.01437e-05)
(4.98278e-06 0.000177258 -6.77905e-05)
(6.34843e-06 0.000195599 -7.76982e-05)
(7.28096e-06 0.000213303 -9.32383e-05)
(7.8078e-06 0.000231665 -0.000113769)
(7.72498e-06 0.000249802 -0.000134322)
(6.65526e-06 0.000269118 -0.000149706)
(4.2888e-06 0.000286349 -0.000157765)
(4.97928e-07 0.000295582 -0.000167908)
(-5.04481e-06 0.000293798 -0.000175121)
(-1.04933e-05 0.000280946 -0.000178173)
(-1.78792e-05 -0.000303069 -0.00213213)
(-2.03279e-05 -0.00137393 -0.00581897)
(-1.37632e-05 -0.00233978 -0.00928479)
(-4.38882e-06 -0.00336251 -0.0130717)
(-3.22337e-07 -0.00429184 -0.0165878)
(-3.76723e-07 -0.00508138 -0.0196417)
(-4.21375e-07 -0.00569844 -0.0220838)
(-4.56714e-07 -0.00614473 -0.0238894)
(-4.82303e-07 -0.00641912 -0.0250195)
(-4.99856e-07 -0.00655366 -0.0255903)
(-5.20752e-07 -0.00672425 -0.0262492)
(-5.50098e-07 -0.0070029 -0.0272871)
(-6.01392e-07 -0.00759314 -0.029395)
(-6.79413e-07 -0.00856276 -0.0327764)
(-7.91196e-07 -0.00991681 -0.0375035)
(-0.000759009 -0.0118712 -0.0445448)
(-0.00939125 -0.0143211 -0.0549057)
(-0.0321968 -0.0231469 -0.0653473)
(-0.0601392 -0.0351304 -0.0717024)
(-0.0679821 -0.0488811 -0.082244)
(-0.0502867 -0.0637589 -0.0999579)
(-0.0266426 -0.0750629 -0.116458)
(-0.0106347 -0.0825243 -0.127434)
(0.00358884 -0.0784636 -0.130788)
(0.0163599 -0.0846834 -0.106906)
(0.0233102 -0.0831965 -0.0634608)
(0.0417278 -0.0607232 -0.0135978)
(0.033587 0.000483133 0.000880924)
(-0.000122545 4.53558e-05 8.30476e-05)
(-3.35648e-06 1.12571e-06 2.5013e-06)
(-1.27205e-07 2.62301e-08 5.88731e-08)
(-2.22954e-09 4.1744e-10 9.12929e-10)
(-3.616e-11 5.92441e-12 1.22464e-11)
(-8.30473e-13 9.49734e-14 1.86867e-13)
(-1.73986e-05 9.02228e-05 1.34859e-05)
(-1.06452e-05 9.45006e-05 -6.27893e-06)
(1.45215e-06 0.000108544 -1.94379e-05)
(1.02294e-06 0.000120355 -3.5974e-05)
(6.74243e-07 0.000154213 -5.17385e-05)
(1.40478e-06 0.000203031 -5.64854e-05)
(2.02552e-06 0.000279591 -6.61889e-05)
(1.32143e-06 0.000403412 -8.41933e-05)
(-4.22941e-06 0.000622226 -7.95148e-05)
(-2.81521e-05 0.000829681 -0.00014752)
(-3.09847e-05 0.000571031 -0.000103832)
(-6.63385e-06 -2.38703e-05 -0.000545171)
(-1.36934e-08 -0.000191745 -0.000909044)
(-1.86343e-08 -0.000388906 -0.00160234)
(-2.85895e-08 -0.000685331 -0.00267623)
(-4.41122e-08 -0.00114628 -0.00432971)
(-6.57611e-08 -0.00181213 -0.00667994)
(-1.11713e-06 -0.00261943 -0.00950807)
(-2.5132e-06 -0.00350358 -0.0125977)
(-2.35768e-06 -0.00442004 -0.015805)
(-5.03622e-07 -0.00536519 -0.0190813)
(1.53552e-06 -0.00628254 -0.0222281)
(1.28941e-06 -0.00718677 -0.0253489)
(5.1412e-08 -0.00809994 -0.028541)
(-5.85187e-07 -0.00907106 -0.0319217)
(-0.000163934 -0.0101127 -0.0354934)
(-0.000424852 -0.0111497 -0.0391597)
(-0.000513535 -0.0121771 -0.042926)
(-0.000542775 -0.0131924 -0.0466852)
(-0.000562063 -0.0141789 -0.0503767)
(-0.000512865 -0.0151074 -0.0539495)
(-0.000401029 -0.0159501 -0.0573428)
(-0.00024125 -0.0166483 -0.0603613)
(-5.24099e-05 -0.0171798 -0.0628513)
(0.000129594 -0.0176026 -0.0648345)
(0.000217212 -0.0175197 -0.0648879)
(0.000200773 -0.01763 -0.0653767)
(7.51947e-05 -0.0183051 -0.0676645)
(-0.000238514 -0.0193488 -0.0708602)
(-0.000747091 -0.0212288 -0.0747489)
(-0.00183765 -0.0253282 -0.0791088)
(-0.00463707 -0.0334463 -0.083365)
(-0.0133589 -0.0467711 -0.0858933)
(-0.0352671 -0.0640416 -0.0849095)
(-0.0739307 -0.0787173 -0.0806764)
(-0.118514 -0.0899162 -0.0760645)
(-0.135504 -0.11241 -0.0818519)
(-0.095635 -0.161675 -0.0898309)
(-0.0379614 -0.198838 -0.0997138)
(0.00432402 -0.192745 -0.109039)
(0.0269031 -0.179934 -0.0770167)
(0.0281968 -0.149638 -0.0482144)
(0.0378123 -0.0887509 -0.0576136)
(0.0281397 -0.0146831 -0.047918)
(-0.00141061 0.000424834 0.00037449)
(-2.95956e-05 1.10774e-05 1.72603e-05)
(-5.56962e-07 1.31154e-07 2.28713e-07)
(-1.11661e-08 2.65204e-09 4.57869e-09)
(-4.74067e-10 9.26075e-11 1.54244e-10)
(-1.78546e-11 2.20389e-12 3.52791e-12)
(-1.87723e-05 8.02517e-05 -3.79186e-05)
(-1.29932e-05 9.72326e-05 -3.87624e-05)
(-9.34674e-06 0.000181818 -7.136e-05)
(-1.18311e-05 0.000365745 -0.000208712)
(-7.26804e-06 0.000753054 -0.000531368)
(-1.00614e-07 0.00162537 -0.000941794)
(-1.77832e-07 0.00380929 -0.000796363)
(5.4235e-05 0.00805067 -0.000646803)
(-1.14812e-07 0.0138371 -0.000858947)
(-8.22049e-05 0.00640069 -0.0224163)
(-0.00152985 0.0115272 -0.0312048)
(-0.00158519 -0.00312126 -0.0366481)
(-0.000836351 -0.00436807 -0.0248409)
(-0.000690306 -0.00466028 -0.0230047)
(-0.000756018 -0.0062407 -0.027245)
(-0.000857592 -0.00824782 -0.0326378)
(-0.000896899 -0.0102093 -0.0379174)
(-0.000900107 -0.012021 -0.0431541)
(-0.000903388 -0.0138369 -0.0488483)
(-0.000974818 -0.0158783 -0.0556698)
(-0.00108323 -0.0177991 -0.062226)
(-0.00116335 -0.0194381 -0.0677744)
(-0.0011858 -0.0211979 -0.0733369)
(-0.00123506 -0.0238123 -0.0813971)
(-0.00140086 -0.0269876 -0.0913009)
(-0.00172487 -0.0305642 -0.102672)
(-0.00231333 -0.0345036 -0.115338)
(-0.00314704 -0.0388781 -0.129526)
(-0.00410993 -0.0435109 -0.144723)
(-0.0051775 -0.0481856 -0.160438)
(-0.00600162 -0.0527896 -0.176375)
(-0.00549967 -0.0573172 -0.192426)
(-0.00312329 -0.0614265 -0.20729)
(0.000348985 -0.0653753 -0.220641)
(0.00308357 -0.063561 -0.214357)
(0.00395379 -0.0560561 -0.191508)
(0.00333524 -0.0469212 -0.163059)
(0.00241177 -0.0396977 -0.141087)
(0.00154172 -0.0368652 -0.13229)
(0.000769492 -0.0376419 -0.133893)
(-7.80987e-05 -0.0401933 -0.138274)
(-0.00129018 -0.0447681 -0.144494)
(-0.00416494 -0.0529401 -0.151116)
(-0.0114962 -0.0680142 -0.157009)
(-0.0275317 -0.0893428 -0.16194)
(-0.0596376 -0.114174 -0.159883)
(-0.0906415 -0.149839 -0.149624)
(-0.0948781 -0.203659 -0.135558)
(-0.0431154 -0.254362 -0.136229)
(-0.00503858 -0.239519 -0.162572)
(0.0128227 -0.201636 -0.169244)
(0.0160687 -0.146162 -0.167431)
(0.0151921 -0.0645415 -0.143442)
(0.0284925 -0.0269576 -0.0826491)
(0.048075 -1.94145e-05 -0.00025202)
(-0.000167906 0.000123565 0.000125422)
(-6.28225e-06 1.5797e-06 2.15885e-06)
(-6.87199e-08 1.79066e-08 2.55137e-08)
(-5.86586e-09 1.20547e-09 1.68351e-09)
(-3.04489e-10 3.5212e-11 4.73643e-11)
(-2.31674e-05 0.000105724 -6.1383e-05)
(-2.83261e-05 -0.000160537 -0.0016216)
(-0.000111433 -0.00171195 -0.00921506)
(-0.000330257 -0.00245442 -0.021499)
(-0.000569475 0.0157891 -0.00120909)
(0.000256457 -0.00315124 -0.0865455)
(0.000198634 -0.0500362 -0.197363)
(2.84802e-05 -0.0846576 -0.287795)
(-0.000357617 -0.116079 -0.375674)
(-0.000411113 -0.156461 -0.455082)
(-0.00117808 -0.128901 -0.41835)
(-0.00710174 -0.0605977 -0.274917)
(-0.00439867 -0.0342088 -0.151269)
(-0.00287782 -0.0262633 -0.10287)
(-0.00313651 -0.0274275 -0.0998141)
(-0.00391476 -0.0316776 -0.108761)
(-0.00466264 -0.0364818 -0.120139)
(-0.00545465 -0.0420462 -0.134815)
(-0.00650345 -0.0490186 -0.155395)
(-0.00768237 -0.0561254 -0.178693)
(-0.00932568 -0.0616806 -0.20001)
(-0.0129137 -0.0651833 -0.215235)
(-0.019781 -0.069256 -0.225239)
(-0.0265268 -0.0757876 -0.238718)
(-0.0295211 -0.0862862 -0.263297)
(-0.0303074 -0.100583 -0.298925)
(-0.0304917 -0.117116 -0.339233)
(-0.0308146 -0.136971 -0.386449)
(-0.032508 -0.162598 -0.437944)
(-0.0299353 -0.191476 -0.490295)
(-0.0237483 -0.216788 -0.541281)
(-0.0140819 -0.238175 -0.588306)
(-0.00622092 -0.263303 -0.618475)
(-0.00643397 -0.273165 -0.618879)
(-0.00798866 -0.265069 -0.584901)
(-0.00823453 -0.244811 -0.528494)
(-0.00622583 -0.214538 -0.463803)
(-0.00580981 -0.187307 -0.399297)
(-0.00933805 -0.163273 -0.346841)
(-0.0131846 -0.135967 -0.304644)
(-0.0110157 -0.114028 -0.280187)
(-0.00832372 -0.102125 -0.278009)
(-0.0130072 -0.0946214 -0.278663)
(-0.025147 -0.0994968 -0.285139)
(-0.046772 -0.116173 -0.295716)
(-0.0890045 -0.135797 -0.295316)
(-0.154231 -0.15166 -0.286389)
(-0.174879 -0.22998 -0.247587)
(-0.0753718 -0.303941 -0.214114)
(-0.0263033 -0.277436 -0.251311)
(-0.000985255 -0.202366 -0.284913)
(0.0190286 -0.142614 -0.264065)
(0.052659 -0.0844036 -0.20802)
(0.170288 -0.0307907 -0.0916335)
(0.091856 -0.000336419 -0.00111544)
(0.00412923 0.000633274 6.63903e-05)
(-5.6781e-05 2.34035e-05 2.4505e-05)
(-8.7796e-07 1.8551e-07 2.1339e-07)
(-5.74776e-08 1.14578e-08 1.32634e-08)
(-3.6561e-09 4.01234e-10 4.4654e-10)
(-0.0020799 -0.00264123 -0.0129963)
(-0.00865771 -0.00552514 -0.0334314)
(-0.0276704 0.0220792 -0.003074)
(0.00190444 -0.100529 -0.184079)
(-0.00121739 -0.107872 -0.29469)
(-0.00856059 -0.15812 -0.412022)
(-0.0172612 -0.32926 -0.500825)
(-0.0163697 -0.708828 -0.33647)
(-0.00855978 -0.971233 -0.0841412)
(-0.00132034 -1.11654 -0.0524906)
(0.010748 -1.06839 -0.0822675)
(0.0353428 -0.802768 -0.240413)
(-0.0386919 -0.0980569 -0.549333)
(-0.040152 -0.0810953 -0.426519)
(-0.0375362 -0.0871865 -0.414413)
(-0.0391536 -0.102309 -0.447571)
(-0.0387094 -0.115287 -0.480579)
(-0.0378917 -0.128597 -0.516572)
(-0.0388245 -0.148871 -0.558155)
(-0.0374644 -0.175302 -0.589152)
(-0.0337242 -0.207071 -0.615851)
(-0.0375755 -0.232236 -0.633372)
(-0.0567932 -0.242888 -0.638193)
(-0.0817589 -0.252349 -0.636015)
(-0.0837769 -0.275131 -0.646271)
(-0.0769391 -0.335441 -0.664334)
(-0.11435 -0.401012 -0.689071)
(-0.12873 -0.39752 -0.771089)
(-0.0892402 -0.357341 -0.884096)
(-0.0667954 -0.288895 -1.00319)
(-0.0585557 -0.324975 -1.07926)
(-0.0457051 -0.730668 -0.943215)
(-0.0118144 -0.978217 -0.758015)
(0.0202821 -0.845399 -0.922445)
(0.0156982 -0.797642 -0.930942)
(-0.00871622 -0.516767 -1.04371)
(-0.00374364 -0.255357 -1.04528)
(0.00948789 -0.25152 -0.940554)
(-0.00548251 -0.330968 -0.809904)
(-0.0490839 -0.296297 -0.718922)
(-0.168623 -0.237254 -0.631913)
(-0.373425 -0.228857 -0.487966)
(-0.412777 -0.236376 -0.349267)
(-0.336881 -0.181017 -0.357655)
(-0.380106 -0.0742364 -0.363584)
(-0.546614 0.0312413 -0.232946)
(-0.607231 0.0663007 -0.051154)
(-0.605331 0.0300574 -0.00549164)
(-0.598558 -0.0812735 -0.0216985)
(-0.151208 -0.310392 -0.237143)
(-0.0149516 -0.218546 -0.306161)
(0.0453851 -0.177205 -0.277584)
(0.209545 -0.133284 -0.213532)
(0.349112 -0.0218187 -0.0356476)
(0.158394 -0.000270873 -0.000641051)
(0.0461473 5.66434e-05 9.15655e-05)
(-0.000105471 0.000215348 0.000197874)
(-1.01003e-05 2.21022e-06 2.0398e-06)
(-4.02137e-07 7.89337e-08 7.251e-08)
(-3.13242e-08 3.29884e-09 2.87369e-09)
(-0.0372243 0.0025774 -0.00249168)
(0.0326346 0.0364201 0.0011275)
(-0.00131137 -0.336106 0.0812494)
(-0.0396804 -0.495786 0.119949)
(-0.160522 -0.0653651 -0.675174)
(-0.0790701 -0.134893 -0.919029)
(-0.0598642 -0.329127 -1.15319)
(-0.0369251 -0.823558 -1.20998)
(-0.01353 -1.56146 -0.508105)
(0.00173358 -1.74065 0.0394215)
(0.0138712 -1.74118 0.256175)
(0.028224 -1.6468 0.263769)
(0.0467884 -1.34454 -0.626063)
(-0.0473722 -0.186261 -1.34235)
(-0.0577326 -0.171341 -1.38892)
(-0.0558771 -0.188891 -1.47942)
(-0.0493484 -0.168762 -1.56269)
(-0.0580178 -0.093318 -1.60743)
(-0.0837102 -0.0433241 -1.58645)
(-0.0951584 -0.0362169 -1.51909)
(-0.0801033 -0.0384348 -1.44944)
(-0.0548415 -0.0892217 -1.417)
(-0.0467045 -0.222757 -1.40318)
(-0.0650867 -0.332435 -1.38064)
(-0.103054 -0.376231 -1.37255)
(-0.14029 -0.398644 -1.38733)
(-0.161819 -0.419494 -1.4187)
(-0.160062 -0.432815 -1.45836)
(-0.13153 -0.4167 -1.5106)
(-0.105722 -0.354838 -1.57534)
(-0.120607 -0.268555 -1.63219)
(-0.205935 -0.212086 -1.65712)
(-0.293608 -0.16367 -1.65677)
(-0.187046 -0.129981 -1.65079)
(-0.00928768 -0.117516 -1.62483)
(0.071948 -0.113559 -1.56995)
(0.0740685 -0.113789 -1.48912)
(0.0290127 -0.0887542 -1.38569)
(0.00710953 -0.0432079 -1.27124)
(0.0208344 -0.0132791 -1.15518)
(0.0395308 0.0162109 -1.04475)
(0.0368626 0.0726654 -0.943504)
(-0.0531007 0.26928 -0.806358)
(-0.35561 0.706622 -0.0622684)
(-0.215568 0.604315 0.22199)
(-0.0767976 0.488146 0.360577)
(-0.140108 0.37787 0.417424)
(-0.356706 0.269314 0.369943)
(-0.628728 0.0633049 0.113032)
(-0.580951 -0.105641 -0.0437589)
(-0.0969849 -0.268618 -0.25227)
(0.149739 -0.239205 -0.201459)
(0.38519 -0.14176 -0.0946026)
(0.390212 -0.0246892 -0.01451)
(0.219744 -0.00133991 -0.000931065)
(0.0777318 0.000214772 0.000134409)
(-0.00200202 0.0011623 0.000993387)
(-8.73109e-05 1.72677e-05 1.60648e-05)
(-2.18081e-06 3.87125e-07 3.62017e-07)
(-1.97401e-07 1.93585e-08 1.72129e-08)
(0.000206993 -0.208897 -0.0728186)
(0.000279748 -0.23614 -0.0996205)
(0.000433178 -0.391675 -0.16371)
(-0.00330812 -0.532106 -0.219711)
(-0.0406651 -0.668487 -0.283656)
(-0.078416 -0.794597 -0.344772)
(-0.0566145 -0.924143 -0.390844)
(-0.0223138 -1.04291 -0.434399)
(-0.00229393 -1.15489 -0.485448)
(0.0140138 -1.26254 -0.542774)
(0.0228764 -1.3418 -0.589888)
(0.0183409 -1.40847 -0.621906)
(0.00622753 -1.49204 -0.649185)
(0.00254376 -1.58805 -0.683563)
(0.00132302 -1.68692 -0.721827)
(0.00183905 -1.77903 -0.757413)
(0.00364115 -1.85125 -0.782355)
(0.00402251 -1.8868 -0.791749)
(0.00279617 -1.88186 -0.785225)
(0.00188933 -1.85087 -0.766947)
(0.00166651 -1.8072 -0.74272)
(0.00166359 -1.76037 -0.71858)
(0.00123221 -1.71401 -0.701856)
(-0.00181441 -1.66447 -0.70228)
(-0.0109389 -1.61166 -0.716775)
(-0.019619 -1.57201 -0.721644)
(-0.0277263 -1.54421 -0.727915)
(-0.0327979 -1.5266 -0.726857)
(-0.0297688 -1.51734 -0.709757)
(-0.0203072 -1.51097 -0.684163)
(-0.0104033 -1.50597 -0.656605)
(-0.00470234 -1.49768 -0.631798)
(-0.00240051 -1.48267 -0.612986)
(-0.00186137 -1.46003 -0.59922)
(-0.0020171 -1.43051 -0.587403)
(-0.0018926 -1.39475 -0.572931)
(-0.00115797 -1.34979 -0.553127)
(-0.000135104 -1.29352 -0.526467)
(0.000589572 -1.22448 -0.493451)
(0.00135025 -1.14654 -0.457446)
(0.00390762 -1.06708 -0.421028)
(0.00914272 -0.99423 -0.386899)
(0.0122914 -0.931905 -0.359015)
(0.00726035 -0.873541 -0.33452)
(0.00171803 -0.808315 -0.307794)
(0.000763472 -0.738044 -0.281978)
(0.000941095 -0.678235 -0.255505)
(-0.0482233 -0.625596 -0.208778)
(-0.794599 -0.0706968 -0.0202718)
(-0.655884 -0.151508 -0.0401159)
(-0.255843 -0.323256 -0.163122)
(0.21836 -0.272546 -0.128677)
(0.351954 -0.167343 -0.0727046)
(0.38652 -0.046287 -0.021434)
(0.258652 -0.00445362 -0.00218118)
(0.112798 0.000437698 0.000223657)
(-0.0096218 0.00481509 0.00303041)
(-0.000558884 0.000118725 7.75235e-05)
(-1.12295e-05 1.96768e-06 1.22354e-06)
(-1.09661e-06 1.16219e-07 6.71192e-08)
(0.000172327 -0.20618 -0.0403553)
(0.000244336 -0.220768 -0.0520891)
(0.000393222 -0.400345 -0.0909035)
(0.000314551 -0.519985 -0.11566)
(-0.0030005 -0.62871 -0.139934)
(-0.0499435 -0.732096 -0.131693)
(-0.0534526 -0.834082 -0.126377)
(-0.0205877 -0.931366 -0.187943)
(-0.00642632 -1.02886 -0.247892)
(0.000496693 -1.11764 -0.286215)
(0.00708875 -1.19516 -0.31346)
(0.00894524 -1.25038 -0.320065)
(0.00405258 -1.26744 -0.317637)
(0.000585314 -1.27391 -0.313611)
(-0.000189896 -1.30155 -0.315148)
(-3.66056e-05 -1.36396 -0.327878)
(0.000963728 -1.44671 -0.348135)
(0.00162963 -1.5257 -0.368607)
(0.00204795 -1.59418 -0.386179)
(0.00310642 -1.65798 -0.401074)
(0.00464122 -1.73019 -0.415647)
(0.00501111 -1.81256 -0.431056)
(0.00339802 -1.87713 -0.443382)
(0.00125092 -1.89097 -0.447225)
(-0.00245012 -1.85007 -0.443012)
(-0.0132932 -1.78701 -0.432574)
(-0.0191857 -1.72777 -0.416621)
(-0.0220053 -1.67366 -0.41058)
(-0.0237813 -1.62929 -0.397154)
(-0.0182491 -1.59478 -0.378042)
(-0.00866617 -1.56713 -0.369004)
(-0.00219837 -1.54592 -0.367219)
(0.000254598 -1.52734 -0.366315)
(0.000790811 -1.50372 -0.363466)
(0.000763447 -1.47004 -0.358084)
(0.000815563 -1.42396 -0.349513)
(0.000937974 -1.36435 -0.33689)
(0.000970191 -1.29279 -0.319984)
(0.000980612 -1.21242 -0.299377)
(0.00154356 -1.1267 -0.275747)
(0.00272174 -1.03337 -0.248981)
(0.0033711 -0.931998 -0.219831)
(0.00238158 -0.82275 -0.191199)
(0.00080194 -0.71557 -0.166231)
(0.00057869 -0.630936 -0.145693)
(0.00165816 -0.573148 -0.132935)
(0.00363635 -0.5188 -0.121775)
(-0.0181522 -0.4565 -0.108184)
(-0.512566 -0.145717 -0.042525)
(-0.416946 -0.198527 -0.0612333)
(-0.155536 -0.293866 -0.0302311)
(0.168584 -0.254263 -0.0147947)
(0.299363 -0.174574 -0.0160705)
(0.366964 -0.0529937 -0.00433498)
(0.256123 -0.00495893 -0.000309541)
(0.116054 0.000581633 0.000112262)
(-0.00920124 0.00567158 0.00187202)
(-0.000667271 0.000147863 4.62119e-05)
(-1.3676e-05 2.33428e-06 7.11148e-07)
(-1.33666e-06 1.37611e-07 4.07861e-08)
(5.25478e-05 -0.168097 -0.0297406)
(7.81725e-05 -0.199574 -0.0404586)
(0.000144499 -0.427337 -0.0798902)
(0.000169902 -0.607643 -0.110417)
(-0.00265491 -0.692619 -0.121233)
(-0.014826 -0.789965 -0.125864)
(-0.021705 -0.918563 -0.155925)
(-0.0184079 -1.10671 -0.205835)
(-0.00985965 -1.32541 -0.270101)
(0.00184691 -1.52646 -0.320716)
(0.0167806 -1.70005 -0.356053)
(0.0233468 -1.8286 -0.381523)
(0.0104401 -1.88101 -0.390858)
(0.000733872 -1.89611 -0.385964)
(-0.000609646 -1.90162 -0.381502)
(-0.00111802 -1.92145 -0.385512)
(-0.000603453 -1.96609 -0.399002)
(-4.59193e-05 -2.0202 -0.415296)
(0.000467957 -2.07881 -0.43215)
(0.00129203 -2.14723 -0.450043)
(0.00204901 -2.23058 -0.470134)
(0.00167973 -2.32579 -0.492422)
(0.000104101 -2.41563 -0.514004)
(-0.00223836 -2.46179 -0.522339)
(-0.00315608 -2.43317 -0.508605)
(-0.00444878 -2.37272 -0.415897)
(-0.186852 -2.33281 0.0759659)
(-0.227264 -2.25824 -0.265614)
(-0.0312314 -2.16472 -0.569945)
(0.00584365 -2.18424 -0.432751)
(0.00188684 -2.18659 -0.413109)
(0.000363547 -2.18677 -0.437748)
(0.000201334 -2.18536 -0.45601)
(-4.75351e-06 -2.17266 -0.463026)
(-0.000352405 -2.1401 -0.475528)
(-0.000440456 -2.09191 -0.472648)
(9.96796e-05 -2.02476 -0.45999)
(0.000493317 -1.93849 -0.429774)
(0.00045167 -1.82671 -0.400486)
(0.000986077 -1.6915 -0.3673)
(0.00252639 -1.53268 -0.327762)
(0.00361059 -1.34608 -0.281068)
(0.00234255 -1.13748 -0.227374)
(-0.000308535 -0.941825 -0.170003)
(-0.000693325 -0.778856 -0.123551)
(0.00389132 -0.661485 -0.0974414)
(0.00801745 -0.576072 -0.0893384)
(-0.0801978 -0.491008 -0.106997)
(-0.585003 -0.0938106 -0.0200548)
(-0.47624 -0.20245 -0.0203132)
(-0.176867 -0.301383 -0.124489)
(0.200295 -0.216824 -0.176413)
(0.368514 -0.106701 -0.120322)
(0.392492 -0.0242325 -0.0257369)
(0.264482 -0.0022407 -0.00115396)
(0.120142 0.00157984 0.000969524)
(-0.00837864 0.00564841 0.00127216)
(-0.000864917 0.000158208 2.24698e-05)
(-1.59385e-05 2.39766e-06 3.13292e-07)
(-1.46121e-06 1.38589e-07 1.82396e-08)
(0.0179057 0.126371 -0.0546393)
(0.00403419 -0.177777 -0.129454)
(-0.0107187 -0.326304 -0.202588)
(-0.00537978 -0.495687 -0.269266)
(0.00130972 -0.611525 -0.322801)
(0.000767838 -0.771625 -0.363386)
(-0.0361289 -0.961789 -0.459357)
(-0.123093 -1.23337 -0.615169)
(-0.0322099 -1.52255 -0.832662)
(0.0067057 -1.7283 -1.003)
(0.020763 -1.89959 -1.12045)
(0.0216193 -2.02385 -1.20047)
(0.000288349 -2.10434 -1.23046)
(-0.0791696 -2.25189 -1.12307)
(-0.0682338 -2.36746 -1.03113)
(-0.0239248 -2.42613 -1.01245)
(-0.0145114 -2.46525 -1.03697)
(-0.018719 -2.51376 -1.05452)
(-0.0131615 -2.55638 -1.0595)
(0.00853174 -2.5958 -1.0748)
(-0.00106926 -2.63199 -1.10721)
(-0.247486 -2.65166 -1.12593)
(-0.76655 -2.48491 -1.37286)
(0.570553 -1.66841 -2.27315)
(3.01543 -1.80032 0.19092)
(1.04518 -1.61907 1.873)
(-1.99245 -1.64354 1.19934)
(-2.48187 -1.41421 0.828769)
(-1.17966 -2.30856 -0.0532273)
(0.689215 -1.61171 -1.71016)
(0.567538 -1.75863 -1.66715)
(0.249888 -2.28325 -1.08458)
(-0.100503 -2.52063 -0.496723)
(-1.39975 -2.36285 -0.288601)
(-2.15688 -2.07508 -0.0195869)
(-0.432942 -2.48667 -0.208385)
(1.27041 -1.60066 -1.61455)
(1.19729 -1.62442 -1.47263)
(0.359339 -1.91014 -1.08448)
(-0.129365 -2.04047 0.114947)
(-0.0185261 -1.79708 0.255787)
(0.168687 -1.53316 -0.113702)
(0.147112 -1.17165 -0.379681)
(0.021909 -0.687453 -0.591476)
(-0.0232935 -0.572054 -0.437199)
(0.027922 -0.641892 -0.189025)
(0.262809 -0.596353 0.0684037)
(-0.7461 0.172506 -0.0169531)
(-0.748337 -0.0138773 -0.00635736)
(-0.65976 -0.183367 -0.0198273)
(-0.359094 -0.36618 -0.0953148)
(0.257142 -0.282905 -0.22045)
(0.487652 -0.0583317 -0.117504)
(0.450576 -0.00127837 -0.0179147)
(0.291742 0.000319768 -0.000955476)
(0.123024 0.000118919 0.000148741)
(-0.0166106 0.002894 0.000316227)
(-0.000668491 8.18375e-05 4.38414e-06)
(-1.09137e-05 1.15881e-06 5.2623e-08)
(-9.39114e-07 5.96603e-08 1.87862e-09)
(-0.106311 0.112271 0.0835454)
(-0.045061 -0.208908 0.114214)
(-0.0309732 -0.275805 -0.206047)
(-0.0420765 -0.491393 -0.189253)
(-0.138005 -0.646853 -0.10591)
(-0.49606 -0.728388 0.133615)
(-0.719729 -0.888488 0.272977)
(-0.656325 -1.2794 0.279986)
(-0.316439 -1.59756 0.262044)
(-0.0788981 -1.81906 -0.0789693)
(0.121714 -1.98827 -0.456123)
(0.376606 -2.05758 -0.888071)
(0.962477 -1.82086 -1.38575)
(1.94406 -1.98096 -0.667042)
(0.046948 -2.32842 1.16389)
(-0.000310819 -2.41196 1.16532)
(-0.000312862 -2.49241 1.15426)
(-0.000391043 -2.58213 1.13259)
(-0.00371874 -2.65056 1.11762)
(-0.0113239 -2.68373 1.12533)
(-0.0233618 -2.71436 1.10757)
(-0.190524 -2.71533 1.10327)
(-0.831363 -2.32643 1.66281)
(-0.871107 -0.58535 2.7338)
(2.43473 0.30052 2.12713)
(3.01715 -1.39937 0.728251)
(-0.181658 -2.52451 0.249413)
(-0.784003 -1.72253 1.5361)
(-1.54345 -1.29302 1.58675)
(-1.66953 -1.37413 1.50722)
(1.21582 -2.13455 0.874818)
(1.59951 -2.19816 0.457758)
(0.64236 -2.46332 0.435677)
(0.0792053 -2.49498 0.525566)
(-0.192633 -1.9836 1.54316)
(-1.04691 -1.72147 1.61715)
(-1.30459 -1.40854 1.70231)
(0.569984 -2.15748 0.693037)
(1.68368 -1.8178 0.00651476)
(0.930643 -1.84898 0.163019)
(0.117347 -1.66751 0.382384)
(-0.109471 -1.3573 0.39443)
(-0.587075 -1.03083 0.181152)
(-0.580991 -0.681916 -0.294529)
(0.45803 -0.533505 -0.275563)
(0.403755 -0.570225 -0.121629)
(0.683365 -0.403032 -0.100432)
(-0.85474 0.219734 -0.0987037)
(-0.884041 -0.0418173 -0.0633064)
(-0.710997 -0.271591 -0.122078)
(-0.359355 -0.39041 0.225639)
(0.211264 -0.235933 0.341916)
(0.487545 -0.0533674 0.171653)
(0.468061 0.000881624 0.0229994)
(0.29787 0.000467816 0.000933137)
(0.123154 0.000123321 -7.86591e-05)
(-0.0163712 0.00282682 -0.00105234)
(-0.000621953 7.91096e-05 -2.47372e-05)
(-1.02233e-05 1.13068e-06 -2.94735e-07)
(-8.92871e-07 5.86326e-08 -1.21676e-08)
(-2.4512e-05 -0.178114 0.0333039)
(-0.000203481 -0.272608 0.0557118)
(-0.000395079 -0.595759 0.0916751)
(-0.000554674 -0.761218 0.0900253)
(-0.0016383 -0.826357 -0.00969712)
(-0.287362 -0.0392948 -0.798195)
(-1.3047 0.173626 -0.136619)
(-1.48568 -0.344901 0.0477166)
(-0.632664 -1.10064 0.161705)
(-0.116306 -1.30894 0.162621)
(0.0262508 -1.5098 0.0961742)
(0.185874 -1.76621 0.0527522)
(0.494969 -1.98082 0.0078976)
(0.462871 -2.07142 0.264657)
(0.0189047 -2.10579 0.378582)
(-0.00217558 -2.15438 0.393525)
(-0.00308807 -2.22654 0.415373)
(-0.00259542 -2.29854 0.435259)
(-0.00136928 -2.35459 0.450441)
(-0.000228114 -2.38654 0.459724)
(0.000422111 -2.40508 0.464035)
(0.00112177 -2.42447 0.465925)
(0.00105026 -2.45014 0.469908)
(0.00031495 -2.45852 0.473372)
(-0.000612095 -2.4018 0.464664)
(-0.0101313 -2.29016 0.439608)
(-0.299138 -2.19309 -0.329979)
(-0.205039 -0.927648 -1.81994)
(-0.13792 -2.06702 -0.417627)
(-0.036565 -2.05157 0.419999)
(-0.00545351 -2.04954 0.438625)
(-0.000346735 -2.07001 0.397596)
(-0.000780939 -2.07884 0.391749)
(-0.000985626 -2.06897 0.391966)
(-0.000981025 -2.03836 0.386239)
(-0.00143717 -1.98652 0.374393)
(-0.00225113 -1.91288 0.363129)
(-0.00147136 -1.82397 0.331716)
(0.000223324 -1.71841 0.306407)
(0.00176914 -1.59756 0.281652)
(0.00258471 -1.44761 0.249531)
(0.000652538 -1.25309 0.207861)
(-0.00598938 -1.03203 0.16215)
(-0.00831939 -0.827883 0.142617)
(0.00278779 -0.682443 0.116668)
(0.0221325 -0.60452 0.0825346)
(0.0212455 -0.564879 0.0993261)
(-0.383589 -0.445651 0.0898984)
(-0.643339 -0.102248 -0.00817465)
(-0.373542 -0.32296 -0.14576)
(-0.0633634 -0.348778 0.186134)
(0.183177 -0.173019 0.279484)
(0.321292 -0.0479215 0.234586)
(0.399342 -0.00623846 0.0788639)
(0.256843 5.03722e-05 0.00569161)
(-0.0615642 0.0163895 -0.0212359)
(-0.0125973 0.00362842 -0.00169153)
(-0.000610724 0.00011741 -4.04945e-05)
(-1.09231e-05 1.89962e-06 -5.26818e-07)
(-1.05962e-06 1.13243e-07 -2.63168e-08)
(-4.11704e-05 -0.193546 0.0396912)
(-0.00632747 -0.16998 0.0483685)
(-0.00967219 -0.397997 0.0899712)
(-0.00188709 -0.571032 0.123722)
(0.00641595 -0.736634 0.157646)
(0.00527112 -0.836036 0.181692)
(-0.0139417 -0.871685 0.19082)
(-0.215479 -0.890956 0.168002)
(-0.724069 -0.84208 0.155829)
(-0.342903 -1.01541 0.340649)
(-0.0509895 -1.25371 0.331361)
(0.146296 -1.57502 0.380453)