/*--------------------------------*- C++ -*----------------------------------*\
| =========                 |                                                 |
| \\      /  F ield         | OpenFOAM: The Open Source CFD Toolbox           |
|  \\    /   O peration     | Version:  2.1.1                                 |
|   \\  /    A nd           | Web:      www.OpenFOAM.org                      |
|    \\/     M anipulation  |                                                 |
\*---------------------------------------------------------------------------*/
FoamFile
{
    version     2.0;
    format      ascii;
    class       volVectorField;
    location    "0.0012";
    object      grad1Alpha;
}
// * * * * * * * * * * * * * * * * * * * * * * * * * * * * * * * * * * * * * //

dimensions      [0 -1 0 0 0 0 0];

internalField   nonuniform List<vector> 
36520
(
(1.88399e-09 -1.31261e-09 -5.65323e-09)
(1.8005e-09 -1.34887e-09 -6.69959e-09)
(-1.72586e-10 -2.00331e-09 -8.00597e-09)
(-2.47409e-10 -2.75854e-09 -9.6874e-09)
(-3.73352e-10 -3.92667e-09 -1.17467e-08)
(-4.65845e-10 -5.38049e-09 -1.39257e-08)
(-5.22602e-10 -6.95398e-09 -1.62755e-08)
(-5.3667e-10 -8.63706e-09 -1.86323e-08)
(-4.93704e-10 -1.02229e-08 -2.07936e-08)
(-3.18582e-10 -1.15091e-08 -2.21825e-08)
(-7.87376e-12 -1.17623e-08 -2.32248e-08)
(1.62493e-10 -1.10599e-08 -2.40266e-08)
(6.88496e-11 -1.04741e-08 -2.54078e-08)
(-1.5685e-10 -1.04701e-08 -2.74961e-08)
(-4.01408e-10 -1.12012e-08 -3.06212e-08)
(-6.16616e-10 -1.25176e-08 -3.47501e-08)
(-8.4186e-10 -1.43257e-08 -4.01587e-08)
(-1.12141e-09 -1.67603e-08 -4.69507e-08)
(-1.47493e-09 -2.00095e-08 -5.50573e-08)
(-1.89782e-09 -2.42224e-08 -6.42512e-08)
(-2.37585e-09 -2.94934e-08 -7.40484e-08)
(-2.87771e-09 -3.58592e-08 -8.39092e-08)
(-3.34142e-09 -4.32571e-08 -9.29079e-08)
(-3.67993e-09 -5.14735e-08 -1.00044e-07)
(-3.80631e-09 -6.01192e-08 -1.03937e-07)
(-3.66995e-09 -6.86167e-08 -1.03371e-07)
(-3.30951e-09 -7.62398e-08 -9.72834e-08)
(-2.90785e-09 -8.23604e-08 -8.53609e-08)
(-2.84222e-09 -8.69071e-08 -6.81805e-08)
(-3.62139e-09 -9.10231e-08 -4.78078e-08)
(-5.66885e-09 -9.7383e-08 -2.72355e-08)
(-9.05213e-09 -1.09727e-07 -9.23392e-09)
(-1.33142e-08 -1.31349e-07 6.01729e-09)
(-1.75297e-08 -1.63621e-07 2.03203e-08)
(-2.0603e-08 -2.05272e-07 3.58049e-08)
(-2.16224e-08 -2.52725e-07 5.28374e-08)
(-1.98742e-08 -3.00696e-07 6.98306e-08)
(-1.50829e-08 -3.4175e-07 8.44861e-08)
(-7.81651e-09 -3.67457e-07 9.53672e-08)
(7.1399e-10 -3.70799e-07 1.02346e-07)
(1.03333e-08 -3.47536e-07 1.05809e-07)
(2.36536e-08 -2.89663e-07 1.04563e-07)
(4.1981e-08 -1.84017e-07 9.09077e-08)
(5.25375e-08 -4.60482e-08 7.34389e-08)
(3.79817e-08 8.5184e-08 6.1968e-07)
(3.74891e-08 2.04114e-06 1.7604e-05)
(7.91152e-08 1.05866e-05 9.35819e-05)
(1.3014e-07 3.0904e-05 0.000283877)
(1.3084e-07 6.50314e-05 0.000611187)
(-4.18218e-08 9.01491e-05 0.000852808)
(-2.0133e-07 4.47078e-05 0.000425847)
(-1.10526e-07 8.90719e-06 9.01947e-05)
(-3.13104e-09 2.29089e-08 3.05016e-07)
(7.27036e-09 -2.24227e-08 -9.92874e-08)
(4.50023e-09 -1.83551e-09 -9.77372e-09)
(2.85299e-10 -4.83734e-11 -2.82747e-10)
(4.88448e-12 -5.78491e-13 -3.43472e-12)
(4.08822e-14 -4.95266e-15 -2.84898e-14)
(2.5245e-16 -3.21137e-17 -1.72875e-16)
(1.25298e-18 -1.23171e-19 -6.20584e-19)
(1.38778e-09 -1.11019e-08 -1.93877e-08)
(6.81374e-10 -1.4135e-08 -1.95911e-08)
(-1.59748e-09 -1.79701e-08 -2.19227e-08)
(-2.03105e-09 -2.28984e-08 -2.45009e-08)
(-2.39349e-09 -2.83285e-08 -2.6766e-08)
(-2.62404e-09 -3.42338e-08 -2.84318e-08)
(-2.76533e-09 -4.08818e-08 -2.9891e-08)
(-2.68918e-09 -4.80542e-08 -3.07316e-08)
(-2.18435e-09 -5.47228e-08 -3.09249e-08)
(-1.47666e-09 -5.91777e-08 -2.92464e-08)
(-8.88315e-10 -6.013e-08 -2.59461e-08)
(-8.80826e-10 -5.95931e-08 -2.31516e-08)
(-1.58765e-09 -6.04781e-08 -2.08807e-08)
(-2.64409e-09 -6.35236e-08 -1.89207e-08)
(-3.86109e-09 -6.98798e-08 -1.80524e-08)
(-5.16498e-09 -7.92636e-08 -1.83258e-08)
(-6.65998e-09 -9.22668e-08 -1.93711e-08)
(-8.22541e-09 -1.08944e-07 -2.09829e-08)
(-9.72284e-09 -1.2935e-07 -2.2777e-08)
(-1.09496e-08 -1.53211e-07 -2.45191e-08)
(-1.17425e-08 -1.80042e-07 -2.57922e-08)
(-1.18596e-08 -2.09377e-07 -2.62346e-08)
(-1.10195e-08 -2.40303e-07 -2.51441e-08)
(-8.91834e-09 -2.71505e-07 -2.2062e-08)
(-5.36675e-09 -3.00639e-07 -1.63216e-08)
(-4.6653e-10 -3.24727e-07 -7.15772e-09)
(5.31215e-09 -3.4111e-07 4.16846e-09)
(1.10046e-08 -3.47468e-07 2.21874e-08)
(1.51003e-08 -3.46093e-07 3.98128e-08)
(1.59408e-08 -3.4311e-07 5.17938e-08)
(1.27697e-08 -3.46201e-07 5.63802e-08)
(6.86337e-09 -3.57481e-07 6.40836e-08)
(8.58308e-10 -3.73908e-07 7.61093e-08)
(-3.2236e-09 -3.87064e-07 9.27458e-08)
(-4.97797e-09 -3.89258e-07 1.13141e-07)
(-5.27199e-09 -3.80469e-07 1.35545e-07)
(-4.66786e-09 -3.66337e-07 1.57591e-07)
(-2.82187e-09 -3.48263e-07 1.7608e-07)
(7.34131e-10 -3.20266e-07 1.87729e-07)
(5.66481e-09 -2.73594e-07 1.90219e-07)
(1.12854e-08 -2.02606e-07 1.82795e-07)
(1.63408e-08 -1.00925e-07 1.63569e-07)
(2.68714e-08 3.57002e-07 1.8287e-06)
(3.04986e-07 6.24162e-06 2.89463e-05)
(8.40298e-06 5.55059e-05 0.000213484)
(4.43993e-05 0.000370838 0.0014177)
(0.000127188 0.00178094 0.00714182)
(0.000247355 0.00578263 0.0237523)
(0.00027218 0.0118048 0.048381)
(-8.75579e-05 0.0152563 0.0622749)
(-0.000363516 0.00794724 0.0299928)
(-0.000202986 0.00188099 0.00633033)
(-4.30657e-05 6.84622e-05 0.000177093)
(-1.42868e-07 -2.97738e-07 -7.09882e-07)
(5.17069e-08 -2.9528e-08 -7.98912e-08)
(4.94408e-09 -1.3016e-09 -3.84858e-09)
(1.39692e-10 -2.25129e-11 -6.71583e-11)
(1.6785e-12 -2.58547e-13 -7.4864e-13)
(1.38357e-14 -2.05219e-15 -5.56295e-15)
(8.3377e-17 -8.98531e-18 -2.27151e-17)
(1.72264e-09 -2.96627e-08 -2.30687e-08)
(4.83673e-10 -3.52388e-08 -1.75582e-08)
(-2.61417e-09 -4.27484e-08 -1.60789e-08)
(-2.67717e-09 -5.122e-08 -1.41456e-08)
(-2.38236e-09 -5.92085e-08 -1.16046e-08)
(-2.10769e-09 -6.88475e-08 -8.62279e-09)
(-1.78896e-09 -8.23511e-08 -6.20473e-09)
(-1.20354e-09 -9.82409e-08 -3.41324e-09)
(6.60806e-11 -1.13807e-07 -7.53658e-11)
(1.96553e-09 -1.22641e-07 7.00279e-09)
(2.86528e-09 -1.04283e-07 2.45438e-08)
(2.54728e-09 -8.93175e-08 3.38247e-08)
(2.01223e-09 -9.31154e-08 3.52959e-08)
(1.05339e-09 -1.00315e-07 3.7922e-08)
(-3.28538e-10 -1.10465e-07 4.20575e-08)
(-1.53473e-09 -1.23187e-07 4.75738e-08)
(-2.48765e-09 -1.38798e-07 5.47576e-08)
(-3.21712e-09 -1.55349e-07 6.36434e-08)
(-3.72408e-09 -1.70971e-07 7.70111e-08)
(-3.98063e-09 -1.85275e-07 9.36223e-08)
(-3.90908e-09 -1.98544e-07 1.09727e-07)
(-3.33744e-09 -2.12239e-07 1.21255e-07)
(-2.14734e-09 -2.25481e-07 1.27508e-07)
(-2.51665e-10 -2.3456e-07 1.36641e-07)
(2.59896e-09 -2.36722e-07 1.4451e-07)
(5.5451e-09 -2.30784e-07 1.49567e-07)
(1.03401e-08 2.70166e-07 1.93555e-06)
(1.39956e-08 1.4427e-06 6.1901e-06)
(1.13929e-08 2.92081e-06 1.16664e-05)
(4.50325e-09 5.15026e-06 2.00076e-05)
(4.07667e-10 8.04087e-06 3.08377e-05)
(5.65279e-10 1.12508e-05 4.28956e-05)
(6.97068e-10 1.39085e-05 5.29594e-05)
(7.60332e-10 1.51391e-05 5.77676e-05)
(7.39701e-10 1.46413e-05 5.61612e-05)
(6.65522e-10 1.30529e-05 5.04737e-05)
(6.02159e-10 1.17009e-05 4.56338e-05)
(5.62186e-10 1.08325e-05 4.26052e-05)
(5.71074e-10 1.09744e-05 4.33542e-05)
(6.30647e-10 1.2163e-05 4.80179e-05)
(7.50709e-10 1.44796e-05 5.69829e-05)
(8.08937e-07 1.95933e-05 7.69816e-05)
(1.3716e-05 3.26462e-05 0.000131416)
(0.000100722 0.000114218 0.000338141)
(0.000660571 0.000617007 0.00131423)
(0.00329392 0.00385427 0.00672282)
(0.0106161 0.0223871 0.0360432)
(0.0196019 0.0948518 0.148183)
(0.0183121 0.252139 0.382394)
(-0.00872985 0.348113 0.55646)
(-0.026588 0.255045 0.305543)
(-0.0141812 0.0927586 0.0672228)
(-0.003014 0.007658 0.00164131)
(-8.4558e-05 -2.08144e-06 -3.56637e-06)
(3.41723e-07 -2.13697e-07 -3.66065e-07)
(3.83571e-08 -1.5674e-08 -3.15642e-08)
(1.83849e-09 -3.97992e-10 -8.27015e-10)
(3.20393e-11 -6.19823e-12 -1.28252e-11)
(3.57084e-13 -6.09887e-14 -1.20993e-13)
(2.64389e-15 -3.05812e-16 -5.92362e-16)
(3.72281e-09 -3.91899e-08 -5.77545e-09)
(3.45446e-09 -5.11915e-08 3.57549e-09)
(-5.26427e-10 -6.42022e-08 1.19009e-08)
(-4.47085e-10 -8.38494e-08 2.57988e-08)
(-3.26344e-10 -1.1739e-07 4.03404e-08)
(-7.70207e-10 -1.69928e-07 4.8053e-08)
(-1.18725e-09 -2.37741e-07 5.73169e-08)
(-7.44198e-10 -3.11643e-07 6.67299e-08)
(1.98207e-09 -3.91696e-07 5.16105e-08)
(1.0421e-08 -4.1645e-07 7.64271e-08)
(1.28079e-08 -3.23674e-07 6.07708e-08)
(4.56336e-09 2.27683e-08 5.3525e-07)
(1.3017e-11 2.59624e-07 1.25186e-06)
(1.8993e-11 5.6962e-07 2.36168e-06)
(3.01021e-11 1.03571e-06 4.03806e-06)
(4.844e-11 1.80111e-06 6.75071e-06)
(7.82674e-11 3.07708e-06 1.11831e-05)
(1.47824e-09 4.94138e-06 1.75704e-05)
(3.75988e-09 7.4824e-06 2.61852e-05)
(4.00396e-09 1.07444e-05 3.7175e-05)
(9.94189e-10 1.52182e-05 5.21479e-05)
(-3.58354e-09 2.11592e-05 7.19735e-05)
(-3.57405e-09 2.88583e-05 9.77235e-05)
(-1.70337e-10 3.89947e-05 0.000131716)
(2.38807e-09 5.39083e-05 0.000181477)
(8.51465e-07 7.66352e-05 0.000256662)
(2.87266e-06 0.0001102 0.000368352)
(4.62794e-06 0.000160764 0.000537475)
(6.56937e-06 0.000234515 0.000783412)
(9.10938e-06 0.000338644 0.00112909)
(1.08707e-05 0.000473772 0.00157678)
(1.0505e-05 0.000621029 0.0020652)
(7.06587e-06 0.000728691 0.00242627)
(1.53207e-06 0.000755232 0.00252336)
(-3.44432e-06 0.000708156 0.00237703)
(-4.97863e-06 0.000612427 0.00206821)
(-3.72003e-06 0.000501387 0.00170466)
(-1.07119e-06 0.000402339 0.00137543)
(2.57677e-06 0.000324122 0.00110888)
(6.47482e-06 0.000286744 0.000954263)
(1.37473e-05 0.000297003 0.000886749)
(3.52739e-05 0.000401577 0.00096579)
(0.000124753 0.000695047 0.00124105)
(0.000570433 0.00166393 0.00215654)
(0.00310378 0.00537008 0.00539726)
(0.016922 0.0211706 0.0176252)
(0.0689427 0.0962007 0.0693509)
(0.168969 0.493214 0.272769)
(0.198519 1.85044 0.918958)
(-0.0357336 2.9429 1.62869)
(-0.236405 2.9859 1.24709)
(-0.149902 1.48334 0.473357)
(-0.0344687 0.14475 0.0940749)
(-0.00102762 0.000933793 0.00295267)
(1.76194e-06 -9.24226e-07 -7.82565e-07)
(1.8175e-07 -1.17017e-07 -1.74873e-07)
(1.53267e-08 -4.58332e-09 -7.43878e-09)
(3.99358e-10 -9.97402e-11 -1.62638e-10)
(6.18342e-12 -1.26217e-12 -2.02326e-12)
(5.80968e-14 -7.27918e-15 -1.14849e-14)
(5.41926e-09 -4.77248e-08 2.14566e-08)
(7.45473e-09 -9.1966e-08 3.76529e-08)
(6.21403e-09 -1.8574e-07 7.47786e-08)
(8.06353e-09 -3.50745e-07 2.04681e-07)
(3.90292e-09 -5.53037e-07 3.97102e-07)
(3.91388e-11 -8.61693e-07 5.04934e-07)
(4.94915e-11 -1.44466e-06 3.05967e-07)
(-1.11008e-08 -2.23237e-06 1.83578e-07)
(1.79743e-11 -2.93122e-06 1.88312e-07)
(1.03605e-08 -1.10909e-06 4.04289e-06)
(2.37956e-07 -2.48095e-06 7.00279e-06)
(5.84059e-07 1.57393e-06 1.91934e-05)
(8.76678e-07 6.18932e-06 3.57552e-05)
(1.33257e-06 1.21259e-05 5.95706e-05)
(2.09719e-06 2.3451e-05 0.000101007)
(3.41339e-06 4.46592e-05 0.000173311)
(5.16917e-06 8.04346e-05 0.000291044)
(7.16827e-06 0.000131575 0.000456689)
(9.36875e-06 0.000198458 0.000671813)
(1.2409e-05 0.000281518 0.000939139)
(1.66345e-05 0.000384015 0.00126785)
(2.17891e-05 0.000516616 0.00169112)
(2.85651e-05 0.000731162 0.00236833)
(4.00487e-05 0.00111284 0.00355986)
(5.97482e-05 0.00166746 0.00528161)
(8.93236e-05 0.00230396 0.00725572)
(0.000134149 0.00292572 0.00919105)
(0.00019826 0.00359678 0.0112889)
(0.00028261 0.00440897 0.013841)
(0.000378989 0.00521372 0.016402)
(0.000447201 0.00582855 0.0184159)
(0.00040587 0.00628111 0.0199493)
(0.000218983 0.0064109 0.0204562)
(-2.33468e-05 0.00653368 0.0208494)
(-0.000217224 0.0067245 0.0213557)
(-0.00032103 0.00688479 0.0218971)
(-0.000330796 0.00711775 0.0225737)
(-0.000284364 0.00726575 0.0230207)
(-0.000200539 0.00753332 0.0237679)
(-0.000104084 0.00803848 0.0252067)
(1.10377e-05 0.00899434 0.0275655)
(0.000184609 0.0101553 0.0296596)
(0.000627377 0.0126265 0.0332948)
(0.00225166 0.0210418 0.0458807)
(0.00873699 0.0447293 0.0780115)
(0.0370576 0.112463 0.153358)
(0.150735 0.400742 0.393462)
(0.496673 1.76578 1.16862)
(0.763588 7.78409 4.14069)
(0.200084 17.2036 11.4342)
(-0.629597 18.4953 15.1333)
(-0.686869 11.6806 13.3219)
(-0.294073 2.27266 5.18538)
(-0.0508046 0.0857779 0.262131)
(-0.00141149 1.00365e-06 1.27418e-05)
(4.39681e-07 -5.72152e-07 -5.68087e-07)
(8.82137e-08 -3.87151e-08 -5.1494e-08)
(3.69296e-09 -1.13971e-09 -1.55051e-09)
(8.04315e-11 -1.73641e-11 -2.34383e-11)
(9.9457e-13 -1.17308e-13 -1.55993e-13)
(8.42898e-09 -7.78555e-08 4.12619e-08)
(1.97611e-08 1.57283e-07 1.59758e-06)
(6.26798e-08 1.28861e-06 7.01884e-06)
(1.32107e-07 1.30872e-06 1.16395e-05)
(1.21576e-07 -4.57879e-06 3.54415e-07)
(-6.95127e-08 1.18375e-06 3.26712e-05)
(-1.84957e-07 6.51557e-05 0.00025939)
(-7.73439e-08 0.000320553 0.00111743)
(1.94479e-06 0.000879315 0.00296367)
(3.27727e-06 0.00176492 0.00537701)
(7.32319e-06 0.00113405 0.00387133)
(1.40594e-05 0.00016673 0.000795055)
(1.96295e-05 0.000209732 0.000955841)
(3.1677e-05 0.000395143 0.00155743)
(5.52515e-05 0.000659842 0.0023934)
(9.23482e-05 0.00102172 0.0034811)
(0.000137718 0.00147245 0.00478964)
(0.000185041 0.00194829 0.00613416)
(0.000234434 0.00241719 0.00747919)
(0.000289622 0.00290879 0.00897067)
(0.000365423 0.0033463 0.0104081)
(0.000534906 0.00377014 0.0118227)
(0.000908592 0.00448137 0.0137573)
(0.00141664 0.0057493 0.0170894)
(0.00179714 0.00751448 0.0217047)
(0.00190147 0.00908149 0.0256119)
(0.00196275 0.0109108 0.0300446)
(0.00226289 0.0146563 0.0394232)
(0.00248787 0.0182494 0.0470234)
(0.0022262 0.0210027 0.0515641)
(0.00172722 0.0233644 0.0560791)
(0.000997088 0.0250959 0.0598605)
(0.000446256 0.02821 0.0643854)
(0.000447414 0.0284583 0.0629949)
(0.000515188 0.0256736 0.0555276)
(0.000593436 0.0265197 0.0560726)
(0.000546732 0.0283116 0.0595596)
(0.000583683 0.0282912 0.0579849)
(0.00107103 0.0282795 0.0567346)
(0.00186778 0.0293595 0.0606608)
(0.00221936 0.0354341 0.0785453)
(0.00292896 0.0557454 0.135681)
(0.00835783 0.0943105 0.24924)
(0.0233807 0.142353 0.371185)
(0.0586678 0.222693 0.521586)
(0.184672 0.429078 0.868508)
(0.638109 0.9651 1.71771)
(2.3519 4.89795 5.01236)
(5.90776 39.1403 26.0738)
(5.74365 103.497 87.7041)
(0.326365 117.997 156.904)
(-5.76758 77.7463 141.924)
(-6.83131 19.9519 50.588)
(-2.55785 0.846007 2.56335)
(-0.127477 0.000835004 0.00275659)
(-5.86265e-06 -1.60256e-06 -1.66454e-07)
(3.12284e-07 -2.29778e-07 -2.37572e-07)
(2.66832e-08 -9.02816e-09 -1.01607e-08)
(7.97122e-10 -1.6822e-10 -1.88963e-10)
(1.19502e-11 -1.34501e-12 -1.48422e-12)
(7.75968e-07 1.61837e-06 7.24668e-06)
(3.48293e-06 2.99388e-06 1.76787e-05)
(5.0131e-06 -5.37278e-06 7.45952e-07)
(-3.34652e-06 0.000239302 0.000440505)
(1.05013e-05 0.00130103 0.00353951)
(0.00012963 0.0034647 0.008859)
(0.000542737 0.015234 0.022645)
(0.00135097 0.0861804 0.0404479)
(0.00213028 0.354976 0.0308882)
(0.000432934 0.54018 0.025886)
(-0.00231939 0.337668 0.0269919)
(-0.0014613 0.0472413 0.0148888)
(0.000383855 0.00136012 0.0079392)
(0.000723453 0.00205054 0.0109968)
(0.000968972 0.00316594 0.01521)
(0.00120858 0.00444791 0.0196523)
(0.00133968 0.00560576 0.0236523)
(0.00135835 0.00645502 0.0262914)
(0.00142988 0.00766375 0.0291045)
(0.0014727 0.00962666 0.0325493)
(0.00143248 0.0123122 0.0364148)
(0.00168843 0.0146676 0.039245)
(0.00265696 0.0160344 0.0408588)
(0.00400396 0.0174944 0.0424738)
(0.00430323 0.0200661 0.0454104)
(0.00424663 0.0264163 0.0506502)
(0.00706677 0.0354767 0.0592633)
(0.008763 0.0388365 0.0734905)
(0.00645404 0.0372177 0.0902512)
(0.0050048 0.0313429 0.107111)
(0.00467401 0.037801 0.123834)
(0.0047529 0.111431 0.14215)
(0.00203131 0.248528 0.19075)
(-0.00438026 0.271767 0.294542)
(-0.00364028 0.276641 0.321854)
(0.00178912 0.158896 0.321236)
(0.000680117 0.0693673 0.284904)
(-0.00168071 0.0662815 0.248369)
(0.00109177 0.097554 0.238002)
(0.0107721 0.0960048 0.229655)
(0.0377706 0.0784241 0.202733)
(0.0861034 0.0782413 0.159001)
(0.119445 0.102284 0.141271)
(0.141425 0.113883 0.208394)
(0.266716 0.0781579 0.354496)
(0.661274 -0.0568545 0.391297)
(2.45257 -0.400749 0.28399)
(14.9106 -1.09683 0.185621)
(47.3948 9.65712 2.40655)
(68.3462 217.08 156.007)
(23.3196 550.696 732.273)
(-58.5939 389.83 589.33)
(-72.3527 83.2386 132.093)
(-25.6044 2.9627 4.90125)
(-1.28388 0.00399902 0.00954693)
(-0.00137905 -3.04975e-06 -4.93623e-06)
(2.67661e-07 -9.83311e-07 -9.00321e-07)
(1.32996e-07 -5.13395e-08 -4.6961e-08)
(5.56984e-09 -1.1735e-09 -1.05048e-09)
(1.02445e-10 -1.11346e-11 -9.64887e-12)
(5.46053e-06 -5.31849e-07 4.8575e-07)
(-3.8311e-06 -5.58834e-06 -1.69111e-07)
(0.000212884 0.0708243 -0.0172812)
(0.00191608 0.0316176 -0.00774947)
(0.00459141 0.00254345 0.0266485)
(0.0110335 0.0268604 0.184011)
(0.0239113 0.193492 0.676222)
(0.0363948 1.21247 1.77202)
(0.0340411 5.91341 1.90848)
(-0.00816344 12.3447 -0.277991)
(-0.0567198 10.6012 -1.56863)
(-0.0432614 3.66845 -0.601336)
(-0.00642637 0.262149 0.126218)
(0.00384515 0.0215321 0.159443)
(0.00461272 0.019791 0.163504)
(0.00452773 0.0222925 0.177349)
(0.00360432 0.0180109 0.169334)
(0.00304899 0.00717345 0.125706)
(0.00360076 0.00272183 0.101797)
(0.00432469 0.00239117 0.102618)
(0.00414008 0.00286298 0.110049)
(0.0030349 0.00707101 0.113474)
(0.00262099 0.0178309 0.112541)
(0.00377753 0.027429 0.113521)
(0.00643315 0.0333188 0.12088)
(0.0100638 0.0405501 0.14058)
(0.01415 0.0520599 0.176121)
(0.017419 0.066957 0.226638)
(0.0183439 0.0828035 0.302428)
(0.0190112 0.0912993 0.409461)
(0.0270154 0.0866256 0.533142)
(0.0552524 0.0824818 0.65375)
(0.0938349 0.0762798 0.784364)
(0.0709701 0.0723313 0.935027)
(0.00416673 0.0777056 1.0964)
(-0.0379494 0.0885702 1.25418)
(-0.0453886 0.103161 1.39051)
(-0.0204377 0.0921922 1.49225)
(-0.00568597 0.0506147 1.55283)
(-0.0187517 0.0173661 1.57979)
(-0.0386037 -0.0228255 1.53317)
(-0.0331583 -0.0936127 1.25607)
(0.0289078 -0.208689 0.638285)
(0.123837 -0.349906 0.0311371)
(0.124769 -0.501967 -0.18517)
(0.0760099 -0.698494 -0.52157)
(0.308046 -1.18766 -1.32696)
(3.24524 -3.41706 -4.67245)
(102.435 -14.4324 -25.3648)
(424.615 110.727 45.6054)
(235.816 970.648 917.279)
(-352.641 888.065 752.771)
(-336.26 212.752 140.83)
(-75.6746 8.82068 5.11449)
(-2.79351 0.0314668 0.0219055)
(-0.00513212 -2.5949e-05 -1.62807e-05)
(3.09469e-06 -3.27374e-06 -2.7956e-06)
(5.68983e-07 -2.03815e-07 -1.88678e-07)
(2.9223e-08 -5.76713e-09 -5.28784e-09)
(6.46432e-10 -6.5855e-11 -5.85285e-11)
(-0.00251803 3.17243 1.34439)
(-0.00780176 9.82946 4.16295)
(-0.0075644 9.53046 4.03394)
(0.0118542 2.57744 1.08993)
(0.0958126 2.12752 0.911906)
(0.352808 4.89254 2.16012)
(0.947156 21.5786 9.36818)
(1.29525 87.1432 37.2594)
(0.242055 180.739 77.1299)
(-1.30681 177.009 75.9398)
(-1.37201 120.041 51.7408)
(-0.512968 57.806 24.9043)
(-0.114767 39.9772 17.1515)
(-0.0424868 38.499 16.524)
(-0.0211571 39.2798 16.8879)
(-0.030298 42.9101 18.4726)
(-0.0670156 50.1676 21.5596)
(-0.0786281 54.5605 23.3874)
(-0.054257 54.1802 23.2045)
(-0.0345511 50.2603 21.5076)
(-0.0262755 42.2478 18.0395)
(-0.0201836 31.5162 13.3951)
(-0.00895381 18.204 7.73535)
(0.00509771 6.7481 2.93888)
(0.0170006 3.56893 1.63375)
(0.0317513 3.59044 1.69551)
(0.05059 3.95502 1.91945)
(0.0726469 4.739 2.32842)
(0.0969246 6.92888 3.35324)
(0.113633 11.8842 5.57834)
(0.110446 22.5672 10.2125)
(0.0966329 43.693 19.1431)
(0.0839917 74.1059 31.8053)
(0.0824319 92.9062 39.5285)
(0.0918702 94.1121 40.0156)
(0.0875771 93.6558 39.8593)
(0.0552532 93.7806 39.9635)
(0.0066655 93.0401 39.6852)
(-0.0297228 89.7783 38.3356)
(-0.0677853 83.0849 35.5656)
(-0.192338 74.8582 32.0826)
(-0.441139 67.174 28.701)
(-0.583342 60.606 25.7894)
(-0.353927 56.9071 24.1739)
(-0.0868352 53.3697 22.5708)
(-0.036842 46.1423 19.4788)
(-0.0320861 30.3379 12.5991)
(0.76927 13.4469 4.90641)
(83.576 10.2793 3.1542)
(666.199 217.954 60.7124)
(482.014 887.019 466.172)
(-544.228 1042.99 504.257)
(-561.37 449.774 192.958)
(-123.381 27.3225 12.0637)
(-4.96431 0.160817 0.0762172)
(-0.0168519 -0.000122243 -6.11841e-05)
(1.22755e-05 -1.14186e-05 -7.0622e-06)
(2.01291e-06 -7.91856e-07 -5.07702e-07)
(1.30622e-07 -2.8135e-08 -1.71888e-08)
(3.5911e-09 -3.9775e-10 -2.30385e-10)
(-0.00795054 11.4689 2.68822)
(-0.0155178 22.383 5.25995)
(-0.0334627 48.2625 11.3709)
(-0.0196468 43.99 10.3911)
(0.058547 16.2952 3.83144)
(0.186941 3.65674 0.696958)
(0.337388 7.10557 1.13075)
(0.522546 32.4538 6.70674)
(0.510998 114.442 27.3695)
(-0.0585802 187.302 46.4305)
(-0.752386 180.732 45.216)
(-0.696057 137.637 33.445)
(-0.224613 98.7961 23.6879)
(-0.0302442 92.6072 22.253)
(0.00994736 96.4346 23.2442)
(0.00211601 112.46 27.2294)
(-0.0651499 140.853 34.2937)
(-0.111396 151.475 37.0671)
(-0.131021 149.069 36.619)
(-0.178069 139.694 34.4068)
(-0.232853 128.357 31.6649)
(-0.216455 116.247 28.7226)
(-0.119501 97.7864 24.2267)
(-0.0309531 68.4892 17.0452)
(0.0317782 34.4108 8.64993)
(0.0800221 15.0852 3.81593)
(0.105472 13.0821 3.28866)
(0.134896 13.972 3.57428)
(0.184167 17.1052 4.35798)
(0.226711 26.8889 6.68233)
(0.210935 52.0777 12.8809)
(0.10998 106.599 26.5696)
(-0.0203851 170.313 42.6741)
(-0.0690634 184.569 46.2832)
(-0.0659314 179.76 45.0507)
(-0.0702771 174.792 43.7791)
(-0.084123 175.117 43.8631)
(-0.0925232 176.959 44.3432)
(-0.10289 182.629 45.8612)
(-0.17956 187.347 47.1682)
(-0.340074 182.584 46.05)
(-0.41478 158.826 40.1136)
(-0.264847 122.469 31.1938)
(-0.0993788 112.837 29.2876)
(-0.0873042 114.526 29.9036)
(-0.270896 109.496 28.6531)
(-0.453234 76.7762 20.0649)
(1.02059 31.9595 8.37241)
(93.9695 35.6502 11.3652)
(587.6 396.374 129.509)
(374.193 1050.47 111.603)
(-490.297 1175.28 68.3511)
(-464.951 472.096 41.4872)
(-99.3522 26.9918 2.04088)
(-4.0572 0.147699 0.0088469)
(-0.0134581 -0.000125364 -2.38635e-05)
(1.05954e-05 -1.2059e-05 -3.95804e-06)
(2.1953e-06 -8.94934e-07 -2.78319e-07)
(1.52566e-07 -3.27607e-08 -9.86174e-09)
(4.37537e-09 -4.7019e-10 -1.40359e-10)
(-0.00343586 14.0337 2.69938)
(-0.0059732 24.3822 4.7162)
(-0.00701309 28.6086 5.5654)
(-0.0031236 14.9376 2.92376)
(0.0147086 4.97223 0.957316)
(0.0985195 6.77409 1.1912)
(0.547777 30.4045 5.60464)
(1.71122 139.873 27.0967)
(1.74979 333.38 67.3681)
(-0.313299 377.565 76.4797)
(-2.1163 314.7 63.0789)
(-1.64253 187.065 37.4027)
(-0.369665 95.2168 19.1344)
(-0.0204041 74.366 14.941)
(0.0176932 77.7341 15.6737)
(0.0394522 96.2698 19.5386)
(0.0276734 129.451 26.5421)
(0.0022586 144.102 29.7888)
(-0.0219168 142.357 29.609)
(-0.0544093 133.206 27.8644)
(-0.0745662 120.536 25.4067)
(-0.0522624 108.415 23.1337)
(-0.00263842 92.3791 20.0641)
(0.0396159 65.4477 14.3451)
(0.026928 30.4849 6.6306)
(0.00848403 6.43726 1.17969)
(0.0788679 1.36384 -0.0466565)
(0.118194 1.59818 0.198033)
(0.0406473 3.80377 1.054)
(-0.0234074 11.8261 2.45679)
(-0.0201307 31.7968 6.26873)
(-0.00863308 71.7006 14.8953)
(-0.00817066 124.189 26.7429)
(0.000227972 147.696 32.2974)
(0.0168854 146.725 33.2273)
(0.0206512 141.288 32.3063)
(-0.00458828 134.81 30.8532)
(-0.0234893 133.829 29.884)
(-0.0227776 133.583 29.6836)
(-0.0528832 131.198 29.2852)
(-0.137625 119.925 26.9128)
(-0.176291 92.5996 20.8372)
(-0.0836122 55.0949 12.2285)
(0.00718266 28.0644 5.80589)
(0.0127126 17.0673 3.19063)
(-0.0645731 12.5859 2.20184)
(-0.102406 8.59436 1.54264)
(1.03268 7.86827 1.90275)
(102.704 22.0541 5.03973)
(659.006 392.786 40.8447)
(400.534 982.554 413.989)
(-567.574 925.183 759.652)
(-500.792 234.895 264.737)
(-92.8223 10.0341 10.5369)
(-2.81273 0.0429757 0.0221381)
(-0.00264262 -6.29441e-05 -3.90482e-05)
(8.5081e-06 -1.0396e-05 -2.36794e-06)
(2.7016e-06 -8.9588e-07 -1.28258e-07)
(1.72864e-07 -3.3169e-08 -4.30472e-09)
(4.78636e-09 -4.73531e-10 -6.29898e-11)
(-0.000181966 -0.00196332 0.000651377)
(-0.000170442 0.0103944 0.00688318)
(0.000528343 0.0197061 0.0130202)
(0.000568424 0.0658277 0.0395453)
(-0.000231541 0.137655 0.0810891)
(-0.000285032 0.380823 0.19838)
(0.0590614 2.12842 1.10783)
(1.11737 15.5265 8.13995)
(1.29022 88.4151 48.8697)
(-0.543679 209.975 121.353)
(-1.33748 184.766 108.643)
(-0.570091 79.6045 47.1777)
(-0.000942397 9.9937 5.83)
(0.0153103 0.61936 0.312133)
(0.0143097 0.702035 0.314367)
(0.011294 1.62663 0.699463)
(0.012664 3.08654 1.32705)
(0.0189652 3.69754 1.56738)
(0.0128462 3.66171 1.51649)
(-0.00745504 3.36131 1.37779)
(0.000702344 2.58824 1.07003)
(0.0936666 1.51643 0.629464)
(0.105818 0.52002 0.280545)
(-0.0226248 0.099334 0.13344)
(-0.100286 0.0877576 -0.00939816)
(-0.0562212 0.123944 -0.149496)
(0.162215 0.185804 -0.144939)
(0.424719 0.331172 -0.209894)
(0.18462 0.492568 0.0122834)
(-0.281956 0.904017 1.03)
(-0.300338 1.29123 1.29926)
(-0.109075 1.40163 0.698194)
(0.0395911 1.41386 0.289142)
(0.560895 1.36206 0.171168)
(0.624714 0.871774 0.0084125)
(0.0927186 0.7771 0.0663046)
(-0.434995 0.80226 0.822574)
(-0.559996 1.11252 1.02702)
(-0.136634 1.06258 0.616776)
(0.0419369 0.962214 -0.0560056)
(0.00658742 0.917106 -0.13749)
(-0.079236 1.00617 0.0811859)
(-0.0939936 1.0002 0.368962)
(-0.0258356 1.01891 1.04738)
(0.0327599 0.952737 0.903036)
(-0.0259295 0.69438 0.254252)
(-0.0462593 0.128303 -0.0174654)
(0.581414 -0.177364 0.0192144)
(72.7901 1.8883 0.899576)
(747.971 294.709 32.4446)
(710.548 1031.1 270.531)
(-540.275 863.516 676.422)
(-775.303 141.928 289.868)
(-208.436 0.964805 14.0146)
(-8.17221 -0.0152773 0.0478459)
(-0.0192278 -3.2216e-05 -4.22735e-05)
(2.30487e-05 -7.01727e-06 -7.99364e-07)
(2.41941e-06 -5.19908e-07 -2.88163e-08)
(1.2828e-07 -1.64281e-08 -7.47299e-10)
(3.07535e-09 -2.02277e-10 -6.48069e-12)
(0.000716849 -0.00118226 -0.000668184)
(0.00156362 0.00944005 -0.00518875)
(0.00263958 0.0277009 0.0244084)
(0.0059013 0.0830912 0.0363234)
(0.0272695 0.157119 0.0281671)
(0.18733 0.3609 -0.0695554)
(1.15465 1.92825 -0.615055)
(5.58609 15.056 -3.40499)
(12.6066 91.2748 -15.3697)
(6.75292 231.462 10.2756)
(-8.6766 215.759 50.6734)
(-11.9568 100.231 44.3159)
(-5.06971 14.4261 11.1665)
(-0.539696 0.795685 0.270877)
(-0.0102005 0.717066 -0.366508)
(0.00014976 1.64609 -0.817263)
(0.00027491 3.12678 -1.47735)
(0.000395726 3.77407 -1.66857)
(0.00361495 3.76606 -1.58145)
(0.00988887 3.46323 -1.43091)
(0.0154363 2.67864 -1.06774)
(0.0736784 1.58438 -0.625502)
(0.131495 0.558336 -0.38779)
(0.0504054 0.0510736 -0.234428)
(-0.100318 -0.0182694 -0.130255)
(-0.0839794 0.0557847 -0.0301709)
(0.00557555 0.108171 -0.0113946)
(0.119219 0.359554 -0.346735)
(0.580982 0.663906 -0.88225)
(0.52073 0.587489 -0.69248)
(-0.310637 0.756604 -0.329222)
(-0.587471 1.13566 -0.247824)
(-0.259127 1.41632 -0.259561)
(-0.0326258 1.48014 -0.320547)
(0.097727 1.45965 -1.16315)
(0.569256 1.36373 -1.3126)
(0.564457 0.88886 -1.1044)
(-0.137756 0.758514 -0.251923)
(-0.589551 0.921071 -0.00343936)
(-0.427921 1.21802 -0.113453)
(-0.0600173 1.20043 -0.297889)
(0.0686422 1.16412 -0.380382)
(0.454127 1.0441 -0.216727)
(0.344769 0.500068 0.267268)
(-0.347917 0.474227 0.312447)
(-0.397761 0.651837 0.176576)
(-0.0965361 0.0693355 0.0206574)
(0.624836 -0.208461 0.103122)
(68.6206 4.40272 6.94304)
(713 376.353 172.352)
(667.98 1016.37 -590.729)
(-507.136 813.735 -1181.13)
(-728.033 120.623 -393.702)
(-206.51 -0.625271 -17.0598)
(-8.59947 -0.0227603 -0.0478221)
(-0.0225015 -3.87439e-05 2.59668e-05)
(2.28914e-05 -6.8723e-06 2.66743e-06)
(2.26683e-06 -5.04447e-07 1.63115e-07)
(1.20607e-07 -1.60499e-08 4.18831e-09)
(2.92405e-09 -1.98827e-10 4.19665e-11)
(0.00147281 13.4708 -2.54946)
(0.0181468 38.1542 -7.23103)
(0.036593 74.1069 -12.7055)
(0.0315311 57.3619 -7.68937)
(0.0169475 10.8226 0.144754)
(0.110256 0.0194009 0.425734)
(1.58042 -0.284394 0.220383)
(11.7326 3.8597 -0.501796)
(44.9003 114.93 -16.2242)
(45.6897 767.307 -95.7189)
(-12.5528 1088.39 -71.8925)
(-50.8605 740.187 -23.3953)
(-33.5913 206.527 -0.884527)
(-6.54987 43.6991 -5.99168)
(-0.228604 36.3635 -6.86969)
(0.0343782 47.7576 -8.97858)
(0.0832579 84.3934 -16.0014)
(0.100879 127.028 -24.2526)
(0.055991 138.723 -26.5889)
(0.00900139 137.38 -26.4093)
(-0.015868 133.418 -25.6897)
(-0.0383938 123.89 -23.9036)
(-0.0296347 104.36 -20.3313)
(-0.00619239 73.0528 -14.4776)
(0.00611871 35.6711 -7.18893)
(0.0258254 8.41917 -1.70092)
(0.0475689 0.489367 0.0782324)
(0.0659141 0.410283 0.860148)
(0.0953423 1.943 0.419024)
(0.101176 7.69919 -1.6715)
(0.0437391 22.4321 -5.04834)
(0.00593593 48.9596 -9.81005)
(0.021506 80.2195 -15.6748)
(0.0320411 95.3716 -18.6783)
(0.032359 96.0737 -18.8236)
(0.0481747 95.5186 -18.6885)
(0.0771813 94.2131 -18.7105)
(0.0520317 92.6366 -17.8075)
(-0.00825705 91.1141 -17.3974)
(-0.0681789 87.8406 -16.8749)
(-0.0994473 78.5065 -15.0706)
(-0.022518 59.4783 -11.2822)
(0.161941 36.8605 -6.83344)
(0.158941 19.8394 -4.15975)
(-0.0413352 12.0906 -2.55681)
(-0.262012 8.43503 -1.39868)
(-0.185578 6.02129 -1.21699)
(4.23631 6.2405 -1.35949)
(190.279 39.4405 3.25968)
(550.546 639.24 292.418)
(140.843 1082.38 -580.754)
(-503.762 706.852 -1144.96)
(-329.95 79.2316 -391.048)
(-51.0092 1.37538 -17.4746)
(-1.19099 -0.000417809 -0.0470392)
(4.83648e-05 -2.32397e-05 3.01139e-05)
(1.53698e-05 -8.01796e-06 3.73773e-06)
(2.04261e-06 -7.12352e-07 2.44975e-07)
(1.22637e-07 -2.66521e-08 7.33005e-09)
(3.47042e-09 -3.86309e-10 9.0832e-11)
(0.00163934 8.83168 -1.98009)
(0.653188 25.7677 -5.76686)
(1.55274 81.0412 -17.6923)
(0.449491 185.883 -41.0319)
(-1.25717 198.361 -43.9148)
(-0.747363 157.043 -34.8522)
(0.953607 78.5978 -17.1785)
(7.0218 40.378 -7.59518)
(31.7866 54.4237 -10.1924)
(63.963 284.85 -99.086)
(25.0183 930.844 -261.594)
(-52.7637 874.195 -229.265)
(-56.6267 325.169 -77.1523)
(-18.2315 34.4561 -7.55691)
(-1.02635 3.27948 -0.626394)
(0.0685209 4.61714 -0.889813)
(0.0202127 12.038 -2.51816)
(-0.0259753 26.6128 -5.73106)
(-0.0385993 38.1274 -8.23592)
(-0.0136966 39.0978 -8.41534)
(0.00178991 37.2606 -8.00303)
(-0.0222981 32.4059 -6.98187)
(-0.0528615 24.3509 -5.25731)
(-0.0336974 13.4418 -2.91519)
(0.00115025 3.53735 -0.674645)
(0.113143 0.320088 0.826351)
(0.477579 0.0129074 1.01003)
(0.410093 -0.131921 1.08011)
(0.0418059 -0.179654 0.621486)
(-0.182425 0.135079 0.059253)
(-0.32758 1.7189 -0.358792)
(-0.228968 5.3054 -1.09111)
(-0.122046 8.91558 -1.66296)
(-0.0294637 9.66507 -0.00630954)
(0.124563 9.31927 1.06855)
(0.4595 7.78521 -0.232476)
(0.72101 4.97992 -0.897321)
(0.219239 2.02949 -0.433247)
(-0.557502 0.975576 -0.245901)
(-0.480352 1.12773 -0.294734)
(-0.055329 2.31416 -0.289831)
(0.0758663 4.93753 -0.68127)
(0.098486 7.16464 -1.16851)
(0.0304068 7.1223 -1.4044)