/*--------------------------------*- C++ -*----------------------------------*\
| =========                 |                                                 |
| \\      /  F ield         | OpenFOAM: The Open Source CFD Toolbox           |
|  \\    /   O peration     | Version:  2.1.1                                 |
|   \\  /    A nd           | Web:      www.OpenFOAM.org                      |
|    \\/     M anipulation  |                                                 |
\*---------------------------------------------------------------------------*/
FoamFile
{
    version     2.0;
    format      ascii;
    class       volVectorField;
    location    "0.0012";
    object      gradAlphaUSE;
}
// * * * * * * * * * * * * * * * * * * * * * * * * * * * * * * * * * * * * * //

dimensions      [0 0 0 0 0 0 0];

internalField   nonuniform List<vector> 
36520
(
(-6.93283e-05 4.83022e-05 0.000208032)
(-6.62537e-05 4.96349e-05 0.000246528)
(6.35046e-06 7.37135e-05 0.000294586)
(9.10299e-06 0.000101496 0.000356432)
(1.37357e-05 0.000144463 0.000432164)
(1.71369e-05 0.000197931 0.00051228)
(1.92229e-05 0.000255789 0.000598661)
(1.97383e-05 0.000317664 0.000685282)
(1.81563e-05 0.000375952 0.000764697)
(1.17153e-05 0.000423225 0.000815721)
(2.89532e-07 0.000432522 0.000854017)
(-5.97508e-06 0.000406685 0.000883488)
(-2.53159e-06 0.000385132 0.000934242)
(5.76695e-06 0.000384957 0.00101095)
(1.47569e-05 0.000411788 0.00112572)
(2.2665e-05 0.00046011 0.00127731)
(3.09378e-05 0.00052646 0.0014758)
(4.12001e-05 0.000615766 0.00172495)
(5.41708e-05 0.000734906 0.00202213)
(6.96767e-05 0.000889305 0.00235893)
(8.71922e-05 0.00108239 0.00271752)
(0.000105565 0.00131545 0.0030781)
(0.000122525 0.00158618 0.0034068)
(0.000134888 0.00188677 0.00366713)
(0.000139482 0.00220307 0.00380878)
(0.000134466 0.00251409 0.00378748)
(0.000121261 0.00279345 0.00356449)
(0.000106564 0.00301826 0.00312822)
(0.00010419 0.00318583 0.00249936)
(0.00013279 0.00333765 0.00175302)
(0.000207878 0.00357106 0.000998736)
(0.000331832 0.00402236 0.000338496)
(0.000487682 0.00481117 -0.000220406)
(0.000641302 0.00598588 -0.000743391)
(0.000752534 0.00749766 -0.00130779)
(0.000788339 0.00921417 -0.00192642)
(0.000723274 0.0109431 -0.00254132)
(0.00054805 0.0124177 -0.00306986)
(0.000283737 0.0133386 -0.0034618)
(-2.5913e-05 0.0134575 -0.00371444)
(-0.000375318 0.0126229 -0.00384311)
(-0.000860831 0.0105418 -0.0038054)
(-0.00153337 0.00672128 -0.00332044)
(-0.00192656 0.0016886 -0.00269302)
(-0.00136647 -0.00306468 -0.0222943)
(-0.000835121 -0.045469 -0.392152)
(-0.000651971 -0.0872417 -0.771189)
(-0.00041615 -0.0988223 -0.907759)
(-0.000203863 -0.101326 -0.952293)
(4.72708e-05 -0.101895 -0.963921)
(0.000442138 -0.0981821 -0.935195)
(0.000938237 -0.0756114 -0.765645)
(0.000113961 -0.000833821 -0.0111017)
(-0.000266599 0.000822224 0.0036408)
(-0.000165574 6.75327e-05 0.000359597)
(-1.05008e-05 1.78045e-06 1.04069e-05)
(-1.79783e-07 2.12925e-08 1.26422e-07)
(-1.50475e-09 1.82292e-10 1.04863e-09)
(-9.29193e-12 1.18201e-12 6.36301e-12)
(-4.61186e-14 4.53355e-15 2.28418e-14)
(-5.10381e-05 0.000408292 0.000713016)
(-2.5057e-05 0.000519805 0.000720448)
(5.8737e-05 0.000660735 0.000806067)
(7.46647e-05 0.000841782 0.000900693)
(8.79708e-05 0.00104119 0.000983762)
(9.64249e-05 0.00125798 0.00104478)
(0.000101594 0.00150193 0.00109815)
(9.87731e-05 0.00176502 0.00112876)
(8.02137e-05 0.00200953 0.00113562)
(5.42196e-05 0.00217287 0.00107386)
(3.26176e-05 0.00220788 0.000952701)
(3.23444e-05 0.00218829 0.00085014)
(5.82994e-05 0.00222079 0.000766751)
(9.7084e-05 0.00233242 0.000694719)
(0.000141738 0.00256524 0.000662692)
(0.000189539 0.00290873 0.0006725)
(0.000244284 0.00338429 0.00071052)
(0.000301518 0.00399353 0.000769167)
(0.000356142 0.00473802 0.00083431)
(0.000400728 0.00560714 0.000897336)
(0.000429328 0.00658265 0.000943009)
(0.000433148 0.00764705 0.000958164)
(0.000402014 0.0087668 0.000917314)
(0.000324997 0.00989403 0.000803973)
(0.000195369 0.0109443 0.000594162)
(1.69687e-05 0.011811 0.000260342)
(-0.000193099 0.0123995 -0.000151526)
(-0.000399919 0.0126274 -0.000806314)
(-0.000548755 0.0125772 -0.00144682)
(-0.000579328 0.0124694 -0.00188231)
(-0.000464021 0.0125801 -0.00204872)
(-0.000249287 0.0129842 -0.00232761)
(-3.11542e-05 0.0135718 -0.00276256)
(0.000116938 0.014041 -0.0033644)
(0.00018053 0.0141168 -0.00410315)
(0.000191204 0.0137988 -0.00491591)
(0.000169324 0.0132887 -0.00571654)
(0.000102394 0.012637 -0.00638922)
(-2.66569e-05 0.0116291 -0.0068166)
(-0.000205978 0.00994815 -0.00691655)
(-0.000411246 0.00738311 -0.00666117)
(-0.000597215 0.00368856 -0.00597805)
(-0.000925575 -0.0122968 -0.0629887)
(-0.00537118 -0.109923 -0.50978)
(-0.0338952 -0.223895 -0.861133)
(-0.0297335 -0.248344 -0.949412)
(-0.0172137 -0.241033 -0.966574)
(-0.0101066 -0.236272 -0.970492)
(-0.00546237 -0.23691 -0.970955)
(0.00136503 -0.237845 -0.970866)
(0.0117047 -0.255891 -0.96573)
(0.030597 -0.283531 -0.954201)
(0.194115 -0.308587 -0.798229)
(0.00511126 0.0106519 0.0253967)
(-0.00189622 0.00108286 0.00292981)
(-0.000181934 4.78966e-05 0.000141621)
(-5.14161e-06 8.28628e-07 2.47188e-06)
(-6.17807e-08 9.51634e-09 2.75552e-08)
(-5.09252e-10 7.5535e-11 2.04755e-10)
(-3.06886e-12 3.30722e-13 8.36076e-13)
(-6.33174e-05 0.00109028 0.000847915)
(-1.77768e-05 0.00129516 0.000645331)
(9.60579e-05 0.0015708 0.000590821)
(9.83461e-05 0.00188157 0.00051964)
(8.74929e-05 0.00217445 0.000426182)
(7.73802e-05 0.00252761 0.00031657)
(6.56468e-05 0.00302191 0.000227685)
(4.4139e-05 0.00360292 0.000125178)
(-2.42208e-06 0.00417143 2.76242e-06)
(-7.20195e-05 0.00449374 -0.000256591)
(-0.000105048 0.00382325 -0.000899833)
(-9.34294e-05 0.00327599 -0.00124062)
(-7.37934e-05 0.00341478 -0.00129439)
(-3.86198e-05 0.00367777 -0.00139031)
(1.20401e-05 0.00404827 -0.00154131)
(5.62157e-05 0.00451221 -0.00174258)
(9.10628e-05 0.00508084 -0.00200445)
(0.000117685 0.0056828 -0.00232813)
(0.000136133 0.00624979 -0.00281511)
(0.000145404 0.00676768 -0.00341982)
(0.00014269 0.0072473 -0.00400528)
(0.000121746 0.00774223 -0.00442322)
(7.82906e-05 0.00822089 -0.00464887)
(9.17142e-06 0.00854805 -0.00497959)
(-9.46931e-05 0.00862499 -0.00526524)
(-0.000202053 0.00840934 -0.00544995)
(-0.000355048 -0.00927671 -0.0664609)
(-0.000417471 -0.0430339 -0.184643)
(-0.00029067 -0.0745194 -0.297649)
(-9.41539e-05 -0.107682 -0.418319)
(-6.90521e-06 -0.136199 -0.522341)
(-7.90431e-06 -0.157321 -0.59981)
(-8.50871e-06 -0.169773 -0.646445)
(-8.75079e-06 -0.174239 -0.664858)
(-8.68121e-06 -0.171832 -0.659114)
(-8.39215e-06 -0.164595 -0.636467)
(-8.10675e-06 -0.157527 -0.614359)
(-7.9037e-06 -0.152293 -0.598981)
(-7.94368e-06 -0.152655 -0.60306)
(-8.22192e-06 -0.158572 -0.626022)
(-8.73298e-06 -0.168441 -0.662881)
(-0.0075879 -0.183787 -0.722095)
(-0.084007 -0.19995 -0.804891)
(-0.253059 -0.286965 -0.84956)
(-0.407197 -0.380343 -0.810133)
(-0.389929 -0.456263 -0.795837)
(-0.242569 -0.511531 -0.823563)
(-0.11071 -0.535715 -0.836927)
(-0.0399451 -0.550004 -0.834135)
(0.0132983 -0.530286 -0.847666)
(0.0666507 -0.639348 -0.765934)
(0.122826 -0.8034 -0.58223)
(0.357999 -0.909608 -0.194953)
(0.756147 0.018613 0.0318917)
(-0.0123307 0.00771101 0.013209)
(-0.00140911 0.000575808 0.00115956)
(-6.76643e-05 1.46478e-05 3.04376e-05)
(-1.17927e-06 2.28138e-07 4.72056e-07)
(-1.31432e-08 2.24481e-09 4.4534e-09)
(-9.73136e-11 1.1256e-11 2.18031e-11)
(-0.000136825 0.00144036 0.000212266)
(-0.000126908 0.00188064 -0.000131355)
(1.93298e-05 0.00235742 -0.000436986)
(1.64029e-05 0.00307631 -0.00094652)
(1.19571e-05 0.00430114 -0.00147806)
(2.81659e-05 0.00621417 -0.00175726)
(4.33093e-05 0.00867246 -0.00209084)
(2.70741e-05 0.0113376 -0.00242765)
(-7.19084e-05 0.0142105 -0.0018724)
(-0.000377678 0.015093 -0.00276987)
(-0.000465772 0.0117707 -0.00220998)
(-0.000164715 -0.000821827 -0.01932)
(-4.57585e-07 -0.00912652 -0.0440065)
(-6.41695e-07 -0.0192451 -0.0797915)
(-9.60576e-07 -0.0330501 -0.128857)
(-1.41821e-06 -0.0527325 -0.197646)
(-2.01889e-06 -0.0793726 -0.288467)
(-3.25455e-05 -0.108791 -0.386836)
(-6.91129e-05 -0.137539 -0.481328)
(-6.07902e-05 -0.163126 -0.56441)
(-1.21999e-05 -0.186745 -0.639916)
(3.5068e-05 -0.207061 -0.704324)
(2.7692e-05 -0.223596 -0.75717)
(1.03526e-06 -0.236998 -0.800531)
(-1.10312e-05 -0.249018 -0.838296)
(-0.00288604 -0.259755 -0.869955)
(-0.0069782 -0.267696 -0.894791)
(-0.00786809 -0.27332 -0.913776)
(-0.00777482 -0.277547 -0.927164)
(-0.00755347 -0.280803 -0.936239)
(-0.00649534 -0.283082 -0.942135)
(-0.00481054 -0.284386 -0.945713)
(-0.00275956 -0.284588 -0.947572)
(-0.000575722 -0.283802 -0.948231)
(0.00137364 -0.282421 -0.947989)
(0.00227943 -0.280395 -0.946916)
(0.00206205 -0.277924 -0.944913)
(0.000733573 -0.275529 -0.941923)
(-0.00217919 -0.274111 -0.937781)
(-0.00632552 -0.280132 -0.932259)
(-0.0142839 -0.308595 -0.92136)
(-0.0328522 -0.374007 -0.899485)
(-0.0857375 -0.477677 -0.852923)
(-0.202994 -0.592124 -0.767424)
(-0.376253 -0.650983 -0.654278)
(-0.522983 -0.654288 -0.544717)
(-0.502487 -0.701156 -0.505462)
(-0.287154 -0.838191 -0.463558)
(-0.0956443 -0.891518 -0.442743)
(0.0106232 -0.874889 -0.48419)
(0.072863 -0.92029 -0.38437)
(0.095829 -0.948267 -0.302608)
(0.195768 -0.822121 -0.534307)
(0.312344 -0.283826 -0.897461)
(-0.0601208 0.0315363 0.0267026)
(-0.00662191 0.00426341 0.00637134)
(-0.000563762 0.000168589 0.000273622)
(-1.46989e-05 3.67108e-06 5.98612e-06)
(-2.27593e-07 4.64568e-08 7.447e-08)
(-2.13837e-09 2.67925e-10 4.22725e-10)
(-0.000199081 0.00175321 -0.000788226)
(-0.000273384 0.00337262 -0.00138083)
(-0.000227046 0.00678649 -0.00273223)
(-0.000292422 0.0127197 -0.00742272)
(-0.000140143 0.019858 -0.0142588)
(-1.3895e-06 0.0305918 -0.0179261)
(-1.72773e-06 0.0504324 -0.0106812)
(0.000377466 0.0759084 -0.00624231)
(-5.97035e-07 0.0973633 -0.00625496)
(-0.000330363 0.0353653 -0.128915)
(-0.00687699 0.0716999 -0.202382)
(-0.0125779 -0.0338951 -0.413336)
(-0.0138133 -0.0975214 -0.563373)
(-0.015147 -0.137833 -0.677127)
(-0.0160234 -0.179175 -0.771732)
(-0.0165559 -0.216609 -0.840607)
(-0.0157038 -0.244358 -0.884183)
(-0.0142656 -0.261847 -0.908856)
(-0.0128737 -0.272703 -0.923144)
(-0.0123145 -0.279375 -0.931988)
(-0.0123036 -0.284033 -0.937757)
(-0.012135 -0.287717 -0.941827)
(-0.0113988 -0.291769 -0.945079)
(-0.0106594 -0.296194 -0.947494)
(-0.0107344 -0.299575 -0.948895)
(-0.0116909 -0.301548 -0.949649)
(-0.0138676 -0.302444 -0.950119)
(-0.016693 -0.30284 -0.950494)
(-0.0194151 -0.302893 -0.950868)
(-0.0219805 -0.302383 -0.951279)
(-0.0231129 -0.30124 -0.951795)
(-0.0193771 -0.299874 -0.952422)
(-0.0102016 -0.29866 -0.952979)
(0.00106721 -0.298663 -0.953057)
(0.00968989 -0.299965 -0.95263)
(0.0139679 -0.299556 -0.952737)
(0.0139584 -0.300343 -0.952527)
(0.0117657 -0.300624 -0.952492)
(0.00803404 -0.301802 -0.952195)
(0.00392996 -0.303513 -0.951743)
(-0.00038031 -0.309905 -0.949783)
(-0.00588345 -0.323647 -0.945244)
(-0.0176025 -0.354267 -0.934163)
(-0.0445406 -0.416233 -0.907575)
(-0.0966742 -0.494927 -0.863192)
(-0.191236 -0.580366 -0.791406)
(-0.259211 -0.689136 -0.676615)
(-0.228359 -0.811867 -0.537307)
(-0.086282 -0.879567 -0.467879)
(-0.00968564 -0.83279 -0.553502)
(0.0263365 -0.773672 -0.633037)
(0.0387386 -0.658774 -0.75134)
(0.051872 -0.400878 -0.914657)
(0.181137 -0.30583 -0.934593)
(0.981076 -0.000697604 -0.00885636)
(-0.0156542 0.0203706 0.0202259)
(-0.00323388 0.00141928 0.00188775)
(-0.000135906 4.19428e-05 5.70607e-05)
(-2.96043e-06 6.39118e-07 8.62692e-07)
(-3.66072e-08 4.31775e-09 5.74162e-09)
(-0.000309238 0.00285632 -0.00151379)
(-0.000686764 -0.00546611 -0.0555212)
(-0.00182713 -0.0375633 -0.2046)
(-0.0033976 -0.0336583 -0.299353)
(-0.00382762 0.144156 -0.0111582)
(0.00116123 -0.0197747 -0.54578)
(0.00062779 -0.221154 -0.880432)
(6.50128e-05 -0.269447 -0.939279)
(-0.000623622 -0.281964 -0.950341)
(-0.000576331 -0.310374 -0.945587)
(-0.00180321 -0.27924 -0.953251)
(-0.0167446 -0.198573 -0.9469)
(-0.0195135 -0.208493 -0.950191)
(-0.0193832 -0.241788 -0.95299)
(-0.0220084 -0.262835 -0.953366)
(-0.0252574 -0.279443 -0.952086)
(-0.0273255 -0.292158 -0.950339)
(-0.0286178 -0.301315 -0.948686)
(-0.02971 -0.306332 -0.947842)
(-0.0306086 -0.307415 -0.948064)
(-0.0333231 -0.305151 -0.949117)
(-0.0429714 -0.302873 -0.949769)
(-0.062556 -0.30854 -0.947181)
(-0.0782096 -0.317408 -0.943471)
(-0.0779127 -0.325781 -0.940979)
(-0.0697329 -0.333047 -0.939269)
(-0.0612368 -0.340412 -0.937377)
(-0.0536898 -0.347739 -0.935364)
(-0.0492364 -0.361167 -0.930623)
(-0.0399325 -0.376737 -0.924932)
(-0.0284066 -0.384261 -0.922303)
(-0.0153533 -0.386429 -0.921738)
(-0.00634582 -0.40115 -0.915568)
(-0.00646988 -0.411524 -0.910945)
(-0.00841744 -0.41947 -0.907241)
(-0.00956265 -0.42734 -0.903556)
(-0.00828688 -0.429122 -0.902753)
(-0.00904257 -0.438295 -0.898317)
(-0.0168857 -0.44585 -0.89447)
(-0.0276932 -0.435308 -0.899408)
(-0.0257395 -0.410955 -0.910946)
(-0.0199598 -0.379885 -0.924618)
(-0.0313444 -0.353693 -0.934727)
(-0.058707 -0.357438 -0.932017)
(-0.102892 -0.390558 -0.914758)
(-0.187258 -0.435086 -0.88067)
(-0.308109 -0.465996 -0.829391)
(-0.318157 -0.662578 -0.678056)
(-0.124638 -0.825754 -0.550087)
(-0.0423007 -0.76223 -0.645922)
(-0.00166239 -0.601038 -0.799218)
(0.0356185 -0.480132 -0.876473)
(0.124641 -0.364034 -0.923007)
(0.68782 -0.227496 -0.6893)
(0.999532 -0.00654716 -0.0216141)
(0.176327 0.048199 0.00500632)
(-0.011305 0.00831821 0.00860039)
(-0.000981048 0.000331934 0.000373571)
(-2.93388e-05 6.19149e-06 6.95496e-06)
(-4.3985e-07 4.95056e-08 5.46297e-08)
(-0.0224046 -0.0467274 -0.209234)
(-0.0766585 -0.0658948 -0.389105)
(-0.145077 0.155486 -0.0215875)
(0.00633224 -0.452804 -0.833519)
(-0.00276479 -0.342537 -0.931883)
(-0.0135874 -0.363158 -0.928571)
(-0.0198624 -0.557515 -0.828731)
(-0.0141853 -0.904904 -0.424707)
(-0.00597804 -0.996142 -0.0866792)
(-0.000800503 -0.998803 -0.0478638)
(0.00684632 -0.996717 -0.0796738)
(0.0294731 -0.952816 -0.300294)
(-0.0474412 -0.1681 -0.981217)
(-0.0643818 -0.182482 -0.978635)
(-0.0621399 -0.203031 -0.975416)
(-0.059793 -0.220055 -0.972273)
(-0.0549688 -0.230012 -0.970487)
(-0.0500617 -0.237899 -0.968967)
(-0.0474136 -0.254123 -0.965076)
(-0.0433121 -0.283119 -0.957272)
(-0.0372133 -0.31985 -0.945992)
(-0.0402414 -0.349582 -0.935349)
(-0.0603857 -0.36442 -0.92861)
(-0.0867842 -0.379185 -0.920603)
(-0.0863069 -0.402452 -0.910765)
(-0.0740995 -0.460938 -0.883797)
(-0.101741 -0.510763 -0.853222)
(-0.104809 -0.464501 -0.878979)
(-0.065949 -0.380299 -0.922208)
(-0.0447889 -0.280494 -0.958557)
(-0.0360687 -0.291705 -0.955609)
(-0.0263014 -0.616633 -0.78662)
(-0.00648307 -0.793194 -0.608792)
(0.0109284 -0.678035 -0.734856)
(0.0085765 -0.651766 -0.758288)
(-0.00499172 -0.443326 -0.896262)
(-0.0023192 -0.236542 -0.971523)
(0.00653734 -0.257811 -0.966064)
(-0.00424403 -0.379221 -0.925182)
(-0.0432312 -0.385291 -0.921664)
(-0.171174 -0.355412 -0.918769)
(-0.436968 -0.397069 -0.80692)
(-0.564966 -0.483796 -0.668205)
(-0.511613 -0.411978 -0.753876)
(-0.592063 -0.173497 -0.786918)
(-0.858239 0.0737891 -0.507848)
(-0.980519 0.160216 -0.113537)
(-0.997227 0.0733566 -0.0124144)
(-0.978655 -0.19941 -0.0496927)
(-0.2477 -0.786743 -0.565402)
(-0.0254433 -0.600847 -0.798959)
(0.0826406 -0.549814 -0.831189)
(0.420456 -0.483716 -0.767616)
(0.975884 -0.11292 -0.186806)
(0.999946 -0.00311462 -0.00743559)
(0.980671 0.00216874 0.00351025)
(-0.00938219 0.0344676 0.0315586)
(-0.00486829 0.00187927 0.001719)
(-0.000204965 4.31836e-05 3.86568e-05)
(-3.77067e-06 4.09829e-07 3.55144e-07)
(-0.167108 0.0162762 -0.0148654)
(0.112858 0.164623 0.00498172)
(-0.00291903 -0.971132 0.236957)
(-0.0587089 -0.968767 0.237445)
(-0.168878 -0.0935516 -0.980169)
(-0.0592193 -0.144166 -0.987632)
(-0.0339749 -0.274927 -0.960825)
(-0.0169479 -0.564608 -0.82517)
(-0.00547825 -0.951646 -0.307133)
(0.000661123 -0.999744 0.0225133)
(0.00529261 -0.989213 0.146371)
(0.0116366 -0.986756 0.16175)
(0.0220799 -0.9007 -0.433665)
(-0.0238884 -0.13377 -0.990554)
(-0.0279917 -0.120099 -0.992201)
(-0.0253188 -0.124658 -0.991723)
(-0.0211577 -0.105726 -0.99401)
(-0.0242032 -0.0569436 -0.997868)
(-0.0353277 -0.0267044 -0.998752)
(-0.0420838 -0.0232687 -0.998578)
(-0.0375718 -0.0259819 -0.998709)
(-0.0266775 -0.062156 -0.99747)
(-0.0229906 -0.156408 -0.987184)
(-0.0323209 -0.234686 -0.971295)
(-0.0512277 -0.26532 -0.962574)
(-0.0686084 -0.276444 -0.958385)
(-0.0768081 -0.282587 -0.956007)
(-0.073501 -0.28253 -0.956319)
(-0.0583975 -0.263603 -0.962772)
(-0.0452675 -0.217393 -0.974968)
(-0.0499512 -0.16017 -0.985774)
(-0.0835547 -0.124732 -0.988624)
(-0.118231 -0.0961116 -0.988289)
(-0.0754577 -0.076905 -0.99415)
(-0.00379073 -0.0706936 -0.997466)
(0.0301688 -0.0704109 -0.99704)
(0.0325343 -0.073945 -0.996712)
(0.0136684 -0.0616563 -0.997986)
(0.00365964 -0.032577 -0.999445)
(0.011868 -0.010991 -0.999852)
(0.0251679 0.0148811 -0.999555)
(0.0263157 0.0742945 -0.996867)
(-0.0430059 0.310464 -0.949569)
(-0.332445 0.939333 -0.0835886)
(-0.227095 0.91364 0.337032)
(-0.0868612 0.798212 0.59603)
(-0.170445 0.657145 0.73422)
(-0.489016 0.514907 0.704078)
(-0.961732 0.135501 0.238142)
(-0.962457 -0.25098 -0.103372)
(-0.173885 -0.715733 -0.67638)
(0.289901 -0.730064 -0.618841)
(0.796638 -0.504033 -0.333643)
(0.991044 -0.115517 -0.0669799)
(0.999896 -0.011263 -0.00784073)
(0.994716 0.00502949 0.00315555)
(-0.0953074 0.100822 0.0860963)
(-0.0204656 0.00733098 0.0067865)
(-0.00107442 0.000212035 0.000194413)
(-2.37926e-05 2.42387e-06 2.15421e-06)
(0.000730806 -0.92073 -0.39018)
(0.000730865 -0.920819 -0.389983)
(0.000730926 -0.920901 -0.389788)
(-0.00423598 -0.921017 -0.389475)
(-0.0413569 -0.91833 -0.393618)
(-0.0658244 -0.912815 -0.40302)
(-0.04023 -0.916541 -0.397909)
(-0.0136654 -0.919393 -0.393101)
(-0.00123177 -0.919751 -0.392501)
(0.00678454 -0.918976 -0.394256)
(0.0104955 -0.918276 -0.395802)
(0.00814952 -0.918363 -0.395655)
(0.00263824 -0.918988 -0.394275)
(0.00101412 -0.918933 -0.394412)
(0.000494828 -0.918689 -0.39498)
(0.000648538 -0.918503 -0.395412)
(0.0012273 -0.918751 -0.394835)
(0.00132456 -0.919118 -0.39398)
(0.000920543 -0.91924 -0.393695)
(0.000632006 -0.919359 -0.393417)
(0.000571977 -0.919669 -0.392692)
(0.000589392 -0.920323 -0.391157)
(0.000452686 -0.920354 -0.391083)
(-0.000692594 -0.916822 -0.399287)
(-0.00433119 -0.909244 -0.416225)
(-0.00799621 -0.904211 -0.426994)
(-0.0115069 -0.899583 -0.436585)
(-0.0137572 -0.897428 -0.440935)
(-0.0125904 -0.900057 -0.435583)
(-0.00865524 -0.905199 -0.424894)
(-0.00445873 -0.911045 -0.412281)
(-0.00202573 -0.915944 -0.4013)
(-0.00104153 -0.918939 -0.394398)
(-0.000816435 -0.920176 -0.391504)
(-0.000898345 -0.920267 -0.391289)
(-0.000860413 -0.920134 -0.391603)
(-0.000542013 -0.919953 -0.392027)
(-6.5897e-05 -0.91982 -0.392339)
(0.000304473 -0.919666 -0.392701)
(0.000750027 -0.919314 -0.393524)
(0.00236161 -0.91914 -0.393923)
(0.00603887 -0.919563 -0.392896)
(0.0088563 -0.92012 -0.391534)
(0.00572422 -0.920383 -0.390975)
(0.00149854 -0.921019 -0.389513)
(0.000735584 -0.921274 -0.388913)
(0.000976745 -0.923525 -0.383534)
(-0.0536649 -0.938064 -0.342275)
(-0.991825 -0.121988 -0.037432)
(-0.946883 -0.309783 -0.0862919)
(-0.433481 -0.797707 -0.419235)
(0.425191 -0.814865 -0.393964)
(0.753761 -0.603919 -0.259088)
(0.971928 -0.215231 -0.0950306)
(0.999353 -0.0323736 -0.0153431)
(0.998358 0.00724206 0.00362473)
(-0.270619 0.251729 0.15569)
(-0.0684883 0.0269425 0.0172743)
(-0.00478409 0.00103046 0.000629548)
(-0.00013216 1.4638e-05 8.47864e-06)
(0.000674931 -0.97361 -0.228206)
(0.000674901 -0.97348 -0.228766)
(0.00067487 -0.973349 -0.229326)
(0.000434657 -0.973216 -0.229889)
(-0.00349749 -0.973446 -0.228883)
(-0.0501548 -0.981074 -0.186988)
(-0.0468405 -0.986486 -0.156986)
(-0.0157661 -0.979185 -0.202353)
(-0.00434262 -0.972564 -0.232595)
(0.00030357 -0.970622 -0.240608)
(0.00403849 -0.970093 -0.242701)
(0.00491412 -0.971711 -0.23612)
(0.00221083 -0.972436 -0.233157)
(0.000317546 -0.972322 -0.233644)
(-0.000100279 -0.972158 -0.234325)
(-1.82873e-05 -0.971916 -0.235326)
(0.000449409 -0.971616 -0.236561)
(0.000714332 -0.97134 -0.237694)
(0.000853548 -0.971128 -0.238559)
(0.00123772 -0.97098 -0.239155)
(0.0017613 -0.970891 -0.239514)
(0.00180766 -0.970803 -0.239868)
(0.0011862 -0.970653 -0.24048)
(0.000438563 -0.970399 -0.241507)
(-0.000895632 -0.969827 -0.243788)
(-0.00514261 -0.969449 -0.24523)
(-0.00781879 -0.969794 -0.243793)
(-0.00935314 -0.968758 -0.247826)
(-0.0104328 -0.96899 -0.246874)
(-0.00818223 -0.970447 -0.241172)
(-0.00393187 -0.970739 -0.240102)
(-0.00100109 -0.970313 -0.241848)
(0.000116103 -0.970014 -0.24305)
(0.000362951 -0.969968 -0.243233)
(0.000355772 -0.970002 -0.243097)
(0.000390014 -0.970036 -0.242959)
(0.000465986 -0.970033 -0.242973)
(0.00050717 -0.970009 -0.243069)
(0.00054642 -0.969887 -0.243555)
(0.000929425 -0.969737 -0.244149)
(0.001806 -0.969634 -0.244553)
(0.00253202 -0.969552 -0.244873)
(0.00209566 -0.969057 -0.246827)
(0.000852479 -0.967927 -0.251231)
(0.00073758 -0.967561 -0.252637)
(0.00239342 -0.967422 -0.253155)
(0.00571139 -0.967489 -0.252847)
(-0.0308766 -0.966895 -0.253297)
(-0.929054 -0.352465 -0.112365)
(-0.815515 -0.550117 -0.179742)
(-0.333893 -0.937336 -0.0995832)
(0.384462 -0.921583 -0.053597)
(0.700323 -0.711086 -0.0624893)
(0.964831 -0.262123 -0.0198194)
(0.999329 -0.0363797 -0.00217908)
(0.997941 0.00929594 0.00176952)
(-0.242447 0.275937 0.0905688)
(-0.0742767 0.0302795 0.00941675)
(-0.00558337 0.00119892 0.000360904)
(-0.000161018 1.73035e-05 5.16537e-06)
(0.000240422 -0.981997 -0.188887)
(0.000240523 -0.981801 -0.189908)
(0.000240628 -0.981598 -0.190956)
(0.000205216 -0.981376 -0.192086)
(-0.00290478 -0.981956 -0.189058)
(-0.0143223 -0.984784 -0.173171)
(-0.017715 -0.983276 -0.181253)
(-0.0120099 -0.981677 -0.190174)
(-0.00514459 -0.980174 -0.19807)
(0.000813271 -0.980095 -0.198528)
(0.00659352 -0.980476 -0.196528)
(0.00860979 -0.980555 -0.196057)
(0.00380623 -0.980393 -0.197016)
(0.000268998 -0.980408 -0.196976)
(-0.000223121 -0.980271 -0.197655)
(-0.000401621 -0.980019 -0.198901)
(-0.000209418 -0.97962 -0.200858)
(-1.5349e-05 -0.979294 -0.20244)
(0.00015073 -0.979047 -0.203632)
(0.000399807 -0.978814 -0.204751)
(0.000605319 -0.978499 -0.206249)
(0.000471447 -0.977983 -0.208684)
(2.79101e-05 -0.977216 -0.212244)
(-0.000591269 -0.976811 -0.214102)
(-0.000863139 -0.977152 -0.212535)
(-0.00129636 -0.983614 -0.180257)
(-0.0576964 -0.997731 0.034132)
(-0.0731956 -0.989732 -0.122639)
(-0.0102974 -0.96363 -0.267014)
(0.00193792 -0.979091 -0.2034)
(0.000621148 -0.981114 -0.193426)
(0.000117888 -0.979095 -0.203401)
(6.43178e-05 -0.977591 -0.210514)
(-1.50789e-06 -0.976915 -0.213626)
(-0.00011224 -0.975304 -0.220867)
(-0.000142487 -0.97484 -0.222903)
(3.31773e-05 -0.974796 -0.223096)
(0.000171298 -0.975964 -0.217932)
(0.000166453 -0.976189 -0.21692)
(0.000393397 -0.975982 -0.217852)
(0.00111974 -0.975731 -0.218967)
(0.00185735 -0.975603 -0.219534)
(0.00148155 -0.976241 -0.21668)
(-0.000250627 -0.979263 -0.202587)
(-0.000732162 -0.982969 -0.18376)
(0.00505375 -0.985025 -0.172325)
(0.0117272 -0.984199 -0.176658)
(-0.126543 -0.964166 -0.233161)
(-0.976589 -0.209706 -0.0479214)
(-0.85778 -0.511261 -0.0531645)
(-0.351667 -0.862677 -0.363481)
(0.428412 -0.698341 -0.573396)
(0.816643 -0.383044 -0.431708)
(0.987936 -0.106796 -0.112148)
(0.999843 -0.0152766 -0.00786944)
(0.989439 0.0235673 0.0146202)
(-0.208483 0.254744 0.0580242)
(-0.0899997 0.0298449 0.00427271)
(-0.00632165 0.00121299 0.000157424)
(-0.00017614 1.74262e-05 2.31805e-06)
(0.0864975 0.933265 -0.309632)
(0.0136406 -0.831875 -0.550866)
(-0.0223381 -0.833167 -0.550489)
(-0.00739925 -0.856886 -0.514766)
(0.00144903 -0.86147 -0.507472)
(0.000663754 -0.886825 -0.461969)
(-0.0246067 -0.886759 -0.461552)
(-0.0636082 -0.883873 -0.463379)
(-0.0127706 -0.875133 -0.483713)
(0.00224179 -0.865801 -0.500383)
(0.00623987 -0.862005 -0.506862)
(0.00616074 -0.860253 -0.50983)
(8.14522e-05 -0.863764 -0.503892)
(-0.0220685 -0.892755 -0.449914)
(-0.0185993 -0.912483 -0.408604)
(-0.00637821 -0.918634 -0.395019)
(-0.0037693 -0.918673 -0.394981)
(-0.00472228 -0.920679 -0.390274)
(-0.00324124 -0.92389 -0.382627)
(0.00205217 -0.925276 -0.379269)
(-0.000250771 -0.92413 -0.382052)
(-0.0569546 -0.922077 -0.382749)
(-0.176277 -0.866271 -0.467344)
(0.134741 -0.591582 -0.794702)
(0.750534 -0.656769 0.0703349)
(0.278054 -0.61299 0.739365)
(-0.566963 -0.649412 0.506583)
(-0.734737 -0.572907 0.363104)
(-0.350854 -0.936084 -0.0233435)
(0.201514 -0.646102 -0.736142)
(0.161798 -0.695613 -0.699939)
(0.0694873 -0.892916 -0.44479)
(-0.0274235 -0.979336 -0.200279)
(-0.378225 -0.91847 -0.115423)
(-0.582451 -0.812797 -0.00784338)
(-0.118046 -0.989378 -0.0844169)
(0.354048 -0.65297 -0.669504)
(0.346885 -0.689141 -0.636177)
(0.110526 -0.859544 -0.498922)
(-0.0434678 -0.997339 0.05805)
(-0.00710306 -0.988894 0.148252)
(0.0782525 -0.993677 -0.0801782)
(0.0878243 -0.934552 -0.344745)
(0.0176777 -0.697176 -0.716656)
(-0.0249478 -0.725543 -0.687694)
(0.0350424 -0.93842 -0.343609)
(0.336362 -0.932919 0.126995)
(-0.955965 0.291623 -0.0315924)
(-0.999587 -0.025931 -0.0123534)
(-0.929629 -0.366285 -0.0403244)
(-0.554636 -0.804852 -0.211169)
(0.441854 -0.706211 -0.5532)
(0.923201 -0.169002 -0.345164)
(0.997736 -0.0046183 -0.0670847)
(0.999978 0.00186937 -0.00585457)
(0.998585 0.00167312 0.00219545)
(-0.449509 0.136855 0.0155897)
(-0.0816168 0.0175387 0.000972092)
(-0.00469922 0.000601803 2.73755e-05)
(-0.000113182 7.44438e-06 2.38508e-07)
(-0.458703 0.756515 0.427563)
(-0.143292 -0.865096 0.475502)
(-0.0712596 -0.74783 -0.658943)
(-0.0649189 -0.914067 -0.399585)
(-0.168369 -0.970088 -0.17391)
(-0.454072 -0.874792 0.168596)
(-0.495519 -0.827507 0.263951)
(-0.340284 -0.917159 0.20742)
(-0.134954 -0.977096 0.164533)
(-0.029134 -0.998592 -0.0443318)
(0.0391192 -0.972766 -0.228465)
(0.10846 -0.909197 -0.40199)
(0.267753 -0.761904 -0.589753)
(0.540287 -0.796555 -0.271174)
(0.0126653 -0.890329 0.455067)
(-8.1487e-05 -0.895669 0.444688)
(-7.94941e-05 -0.90415 0.427197)
(-9.58988e-05 -0.914595 0.404355)
(-0.000885007 -0.922001 0.387169)
(-0.00263898 -0.92421 0.381857)
(-0.00535299 -0.928898 0.370271)
(-0.0432131 -0.929254 0.366863)
(-0.189906 -0.806351 0.560049)
(-0.205575 -0.2083 0.9561)
(0.606342 0.110424 0.787291)
(0.797799 -0.529951 0.286622)
(-0.05118 -0.992946 0.104595)
(-0.232141 -0.700119 0.675158)
(-0.465644 -0.532106 0.707103)
(-0.497427 -0.561199 0.661491)
(0.35232 -0.858128 0.373398)
(0.451057 -0.871952 0.190279)
(0.177112 -0.96805 0.177409)
(0.0215376 -0.977099 0.211606)
(-0.0522884 -0.780981 0.622338)
(-0.288001 -0.689946 0.66408)
(-0.369911 -0.582505 0.723753)
(0.169845 -0.935205 0.310607)
(0.53908 -0.842219 0.00314492)
(0.330184 -0.939826 0.0875407)
(0.0484667 -0.969401 0.240559)
(-0.0559593 -0.949032 0.3101)
(-0.391807 -0.90082 0.186985)
(-0.519522 -0.753537 -0.402738)
(0.522374 -0.712019 -0.469119)
(0.507483 -0.831648 -0.225285)
(0.800037 -0.574614 -0.171197)
(-0.937146 0.312656 -0.154665)
(-0.992899 -0.0637048 -0.100462)
(-0.86482 -0.45649 -0.209051)
(-0.494033 -0.751698 0.4369)
(0.333353 -0.534887 0.776384)
(0.870425 -0.144215 0.470704)
(0.9966 0.00301751 0.0823293)
(0.999978 0.00264665 0.00556093)
(0.998792 0.00171976 -0.00115261)
(-0.446942 0.134178 -0.0520801)
(-0.0768501 0.0171018 -0.00552992)
(-0.00441938 0.000588112 -0.000153471)
(-0.000107614 7.31745e-06 -1.5445e-06)
(-0.000107426 -0.982556 0.185957)
(-0.000467298 -0.98251 0.186206)
(-0.000486686 -0.985618 0.168983)
(-0.000544814 -0.991134 0.132862)
(-0.00156579 -0.999907 -0.013374)
(-0.250448 -0.0440695 -0.967063)
(-0.975036 0.175456 -0.135965)
(-0.949134 -0.312238 0.0405938)
(-0.360785 -0.923493 0.130366)
(-0.0589848 -0.990581 0.123572)
(0.0115076 -0.997759 0.0659062)
(0.0685174 -0.997152 0.0315173)
(0.160537 -0.987021 0.00422727)
(0.146886 -0.979984 0.134368)
(0.00617724 -0.9826 0.18563)
(-0.000707455 -0.982782 0.184766)
(-0.000969276 -0.982495 0.186285)
(-0.00078006 -0.982257 0.187536)
(-0.000396401 -0.982122 0.188242)
(-6.43439e-05 -0.982019 0.18878)
(0.000116789 -0.981962 0.189077)
(0.00030429 -0.98189 0.189448)
(0.000278726 -0.981546 0.191224)
(8.31488e-05 -0.980922 0.194399)
(-0.000168151 -0.98029 0.197562)
(-0.00300668 -0.980189 0.198027)
(-0.0955418 -0.98289 -0.157129)
(-0.0689988 -0.429484 -0.900403)
(-0.0479113 -0.976391 -0.210567)
(-0.0128409 -0.977151 0.212141)
(-0.00190226 -0.975596 0.219558)
(-0.000118878 -0.98051 0.196465)
(-0.000263114 -0.981439 0.191773)
(-0.000329697 -0.981356 0.192196)
(-0.00033053 -0.981341 0.192273)
(-0.000494964 -0.981392 0.192012)
(-0.000803527 -0.980844 0.194793)
(-0.000551576 -0.98202 0.188773)
(8.9015e-05 -0.982254 0.187553)
(0.000762228 -0.982042 0.188658)
(0.00124402 -0.982067 0.188524)
(0.000371959 -0.982481 0.186362)
(-0.00431969 -0.983237 0.182279)
(-0.0078406 -0.978687 0.205202)
(0.00334477 -0.978356 0.206893)
(0.0306295 -0.986063 0.163507)
(0.0301955 -0.979729 0.198017)
(-0.552745 -0.814249 0.177383)
(-0.979048 -0.202935 -0.0167722)
(-0.616595 -0.715929 -0.3275)
(-0.113915 -0.875436 0.469719)
(0.350617 -0.491968 0.796891)
(0.63728 -0.153031 0.755285)
(0.945719 -0.0254997 0.323983)
(0.999198 0.000350526 0.0394641)
(-0.545263 0.262004 -0.339504)
(-0.342291 0.178564 -0.083241)
(-0.0696048 0.0242744 -0.00834786)
(-0.00449312 0.000976465 -0.000268554)
(-0.000127719 1.42171e-05 -3.34282e-06)
(-0.000181124 -0.975773 0.218771)
(-0.0247296 -0.97556 0.218332)
(-0.0187158 -0.976818 0.213252)
(-0.00236129 -0.97649 0.215551)
(0.00618784 -0.97634 0.21615)
(0.00464589 -0.976237 0.216654)
(-0.0118521 -0.976869 0.213507)
(-0.168462 -0.968719 0.182218)
(-0.49787 -0.852431 0.159642)
(-0.20747 -0.923938 0.321395)
(-0.025866 -0.962384 0.270458)
(0.0582832 -0.965644 0.253248)
(0.16706 -0.959313 0.227615)
(0.459141 -0.867738 0.190312)
(0.293832 -0.938876 0.179329)
(-0.0145708 -0.981822 0.189216)
(-0.00164349 -0.97881 0.204752)
(0.000954169 -0.977587 0.210523)
(0.000989554 -0.977454 0.211141)
(0.000342473 -0.97761 0.210419)
(-4.69664e-05 -0.977701 0.209996)
(0.000672653 -0.977567 0.210618)
(0.00212193 -0.977475 0.211035)
(0.00244995 -0.977276 0.211947)
(-0.000319415 -0.982287 0.187342)
(-0.126643 -0.358281 -0.924952)