/*--------------------------------*- C++ -*----------------------------------*\
| =========                 |                                                 |
| \\      /  F ield         | OpenFOAM: The Open Source CFD Toolbox           |
|  \\    /   O peration     | Version:  2.1.1                                 |
|   \\  /    A nd           | Web:      www.OpenFOAM.org                      |
|    \\/     M anipulation  |                                                 |
\*---------------------------------------------------------------------------*/
FoamFile
{
    version     2.0;
    format      ascii;
    class       volScalarField;
    location    "0.0012";
    object      k;
}
// * * * * * * * * * * * * * * * * * * * * * * * * * * * * * * * * * * * * * //

dimensions      [0 2 -2 0 0 0 0];

internalField   nonuniform List<scalar> 
36520
(
0.0922783
0.184786
0.318665
0.381688
0.438858
0.474381
0.495559
0.496002
0.48114
0.458346
0.439707
0.428217
0.418659
0.408316
0.394452
0.377064
0.357552
0.337038
0.316142
0.295582
0.275137
0.255367
0.235667
0.216335
0.197092
0.178313
0.15995
0.142308
0.12548
0.10977
0.0953338
0.0824173
0.0710965
0.0614172
0.0533355
0.0467156
0.0413751
0.0371118
0.0337025
0.0309284
0.028615
0.026666
0.0251912
0.0244558
0.0244305
0.0244701
0.0218375
0.0170795
0.0120519
0.00784144
0.0048495
0.00232988
0.000758377
0.000302395
0.000237765
0.000205789
0.000196011
0.000179093
0.000184284
0.000216435
0.0517336
0.0683284
0.0842271
0.0809906
0.0798172
0.0732346
0.0639645
0.0506181
0.0403101
0.0364804
0.0358765
0.0353766
0.0346563
0.0335044
0.0319953
0.0304245
0.0285252
0.0268562
0.0253413
0.0242274
0.0232956
0.022442
0.0213533
0.0199517
0.018274
0.0164441
0.0144836
0.0124528
0.0104984
0.00873246
0.00723997
0.0060931
0.00532325
0.00490508
0.00479775
0.00494167
0.00522259
0.00558994
0.0060137
0.00646964
0.00695576
0.00752591
0.00833519
0.00962713
0.0116175
0.0141298
0.0161126
0.0176927
0.018978
0.0192973
0.016527
0.00960747
0.00306923
0.000304344
3.75868e-05
3.08465e-05
3.40408e-05
3.51007e-05
4.23836e-05
0.00013256
0.0241946
0.0197458
0.0199314
0.0161868
0.0142334
0.0113536
0.0085137
0.00551311
0.00384233
0.00351564
0.00342701
0.00321726
0.00309617
0.00297906
0.0028655
0.00279258
0.0026775
0.00260424
0.00256119
0.00258095
0.00262184
0.00267103
0.00268292
0.00264011
0.00255241
0.00244101
0.00231617
0.00219175
0.00210046
0.00206216
0.00209025
0.00219355
0.00237308
0.00262935
0.00296152
0.00337481
0.00388701
0.00451697
0.00529077
0.00624277
0.00743758
0.00899169
0.0111403
0.0143052
0.0190886
0.0262767
0.0366221
0.0484546
0.0583664
0.0592652
0.0486373
0.0293105
0.0114537
0.00170488
8.64466e-05
7.07452e-06
5.24103e-06
5.3313e-06
1.10482e-05
0.000108739
0.0120648
0.00592302
0.00487123
0.00343217
0.00284524
0.00229411
0.0021144
0.00242552
0.00359004
0.00570726
0.00449316
0.00163097
0.000881824
0.000827455
0.000873583
0.000959938
0.00105923
0.00118104
0.00132811
0.00151126
0.00170934
0.00191694
0.00216099
0.00245271
0.00279555
0.00320338
0.00367838
0.00422583
0.00483421
0.00549097
0.00618084
0.00688593
0.00756146
0.00817244
0.00873144
0.00884019
0.0091455
0.0100407
0.0113359
0.0130605
0.0153299
0.018255
0.0220028
0.0270616
0.0342177
0.0448691
0.0623233
0.0928381
0.128999
0.132465
0.107353
0.0684325
0.0302937
0.00682182
0.000464335
1.70325e-05
1.13996e-06
8.42004e-07
6.30118e-06
0.000103515
0.00665048
0.00193903
0.0015473
0.00162718
0.00275823
0.00541315
0.0109291
0.0213145
0.0380179
0.062455
0.0495543
0.0161124
0.00380817
0.00218719
0.00234283
0.00282029
0.00342329
0.00417163
0.00514941
0.00653227
0.00804076
0.00946666
0.0110609
0.0136341
0.0172021
0.0218651
0.0277892
0.0352964
0.0443061
0.0546607
0.0662373
0.0789543
0.0916738
0.104222
0.0983994
0.0777732
0.055402
0.0406982
0.0355239
0.0367554
0.0400934
0.0452943
0.0522419
0.061624
0.0744435
0.088384
0.109228
0.1496
0.209055
0.219804
0.188226
0.135471
0.068146
0.0201663
0.00199276
9.51464e-05
3.16026e-06
3.18936e-07
5.6459e-06
0.000101871
0.00431347
0.00170841
0.0039126
0.00996191
0.0229369
0.0496572
0.100775
0.192251
0.327297
0.497289
0.416259
0.178649
0.0515391
0.0227469
0.0210806
0.0249617
0.0303447
0.0379981
0.0502001
0.0659262
0.0817925
0.093993
0.103462
0.118035
0.146005
0.190694
0.248634
0.327625
0.430029
0.550642
0.680818
0.814251
0.924078
0.945553
0.857836
0.705907
0.539167
0.396504
0.295145
0.219477
0.177376
0.168292
0.166326
0.177282
0.199811
0.217888
0.237862
0.277969
0.326341
0.335258
0.295854
0.232203
0.141521
0.0486423
0.0068745
0.000448447
2.06306e-05
7.19757e-07
5.44974e-06
0.000100797
0.0078356
0.0135838
0.0384096
0.0942579
0.19653
0.391706
0.734615
1.28646
1.97158
2.5864
2.33986
1.39438
0.659431
0.388193
0.364899
0.428426
0.496174
0.574653
0.674095
0.755183
0.832106
0.885877
0.900552
0.903867
0.956554
1.08637
1.26594
1.50526
1.81651
2.19009
2.57612
2.9308
3.1961
3.28737
3.17761
2.88192
2.46432
2.00303
1.59841
1.24446
0.94454
0.7141
0.522868
0.425858
0.404364
0.397649
0.378884
0.366019
0.365425
0.352106
0.312234
0.258506
0.200842
0.100863
0.0200438
0.00178847
0.000102362
3.54786e-06
5.35441e-06
9.96385e-05
0.0513956
0.091893
0.21959
0.486961
0.933084
1.76209
2.98917
4.51235
5.76441
6.48666
6.51513
5.66364
4.40145
3.85387
4.1244
4.69599
5.22978
5.51331
5.38492
4.92482
4.42003
4.15229
4.08778
4.04112
4.04547
4.17807
4.42221
4.70735
5.01681
5.36474
5.69128
5.88769
5.93863
5.87923
5.70992
5.38402
4.89159
4.25279
3.57552
2.93818
2.37312
1.90731
1.49898
1.13252
0.886196
0.760841
0.664787
0.540859
0.435469
0.360356
0.295524
0.240061
0.196645
0.12382
0.0382756
0.00487219
0.000353639
1.46761e-05
5.46039e-06
9.82336e-05
0.0832649
0.138763
0.354258
0.630954
1.00802
1.45438
1.98094
2.58707
3.28726
4.02464
4.55358
4.94392
5.45947
6.14102
6.93009
7.73087
8.39412
8.73765
8.69778
8.39501
7.96385
7.50015
7.04915
6.62621
6.24307
5.94934
5.76622
5.64738
5.54374
5.4419
5.35644
5.27038
5.16548
5.02899
4.85577
4.63831
4.35392
3.99083
3.55059
3.07383
2.614
2.21541
1.89638
1.62079
1.35452
1.12237
0.955739
0.812152
0.635498
0.467559
0.331975
0.241146
0.186776
0.127637
0.0530612
0.0101126
0.00100444
5.30743e-05
6.46657e-06
9.72767e-05
0.0706541
0.117171
0.3329
0.531152
0.763455
1.02223
1.3326
1.73626
2.22244
2.70898
3.1335
3.4034
3.45741
3.45787
3.59362
3.95876
4.4907
5.03825
5.53605
6.01363
6.56555
7.20008
7.67269
7.68106
7.21249
6.59557
6.05776
5.63236
5.30559
5.06604
4.91306
4.8331
4.77971
4.69184
4.53566
4.29856
3.9762
3.58431
3.14711
2.69184
2.22177
1.75128
1.30619
0.934642
0.686678
0.553354
0.462432
0.375472
0.309264
0.253845
0.203721
0.172296
0.154567
0.116686
0.052223
0.0107319
0.00114501
6.43169e-05
6.83655e-06
9.7253e-05
0.0509318
0.0961694
0.362587
0.699626
0.872035
1.12166
1.55697
2.39585
3.68054
5.09635
6.38294
7.30882
7.57022
7.51135
7.47719
7.67505
8.1388
8.70708
9.32536
10.0435
10.9254
11.9591
12.9437
13.3175
12.6486
11.4596
10.4542
9.76859
9.40063
9.29811
9.37791
9.56511
9.74414
9.79092
9.65415
9.32833
8.79616
8.06389
7.13666
6.06463
4.89926
3.66088
2.4794
1.57234
0.988299
0.681792
0.532869
0.43579
0.367043
0.305518
0.246149
0.20482
0.179454
0.130993
0.0564944
0.0118175
0.00129372
7.40566e-05
7.11224e-06
9.69909e-05
0.0461638
0.0941812
0.259532
0.568442
0.862747
1.35702
2.16134
3.72728
6.17575
8.47507
10.4075
11.6968
12.2153
12.7317
13.2793
13.8072
14.4577
15.2343
15.9062
16.5927
17.3456
17.9027
17.8838
17.033
15.5122
13.7615
12.18
11.3566
11.293
11.6586
12.1844
12.7084
13.1034
13.2832
13.2336
12.9308
12.3501
11.4139
10.1167
8.48201
6.54096
4.51929
2.79529
1.59474
0.948801
0.702701
0.654608
0.623503
0.555855
0.498028
0.414953
0.328979
0.257019
0.175938
0.0705062
0.0124098
0.00111206
5.45994e-05
6.39834e-06
9.75567e-05
0.0569601
0.107451
0.21136
0.466702
0.743667
1.25743
2.16603
3.74406
5.35393
6.91264
8.92205
11.0295
12.077
12.5912
13.5607
14.3341
15.1945
16.2218
17.1267
17.7649
18.2665
18.5106
18.152
17.0141
15.4151
13.8653
12.3741
11.3178
10.9637
11.226
11.7926
12.3589
12.83
13.1066
13.0859
12.6847
11.9086
10.7813
9.35216
7.64131
5.67388
3.74514
2.24659
1.3022
0.837647
0.697296
0.782855
0.86653
0.810366
0.685444
0.532783
0.395076
0.291833
0.191991
0.0740656
0.0125015
0.00109692
5.34533e-05
6.36782e-06
9.75532e-05
0.0585002
0.178055
0.659328
1.04276
1.15174
1.3964
1.88971
2.52603
3.01703
3.68294
4.81146
6.64903
8.512
9.13881
9.05904
9.39932
10.1289
10.9664
11.7029
12.2026
12.5426
12.8679
13.234
13.2793
12.3928
10.8706
9.59585
8.79063
8.35098
8.21814
8.31164
8.5299
8.73446
8.77052
8.57949
8.165
7.56366
6.82674
6.01193
5.13115
4.12078
2.9742
1.90775
1.16223
0.749618
0.576391
0.539544
0.519
0.461601
0.384298
0.312576
0.259816
0.224354
0.148706
0.0537627
0.0102868
0.00109014
6.19559e-05
6.77144e-06
9.71277e-05
0.0619636
0.0724526
0.305543
0.655051
1.08813
1.36198
1.48936
1.66602
2.02187
2.53145
3.54207
5.6089
8.53481
10.058
9.58312
9.13901
9.32013
9.85819
10.4955
10.9772
11.151
10.9261
10.328
9.37696
8.30644
7.42259
6.77774
6.38142
6.18308
6.07984
6.05736
6.11058
6.1641
6.07954
5.75657
5.1797
4.45862
3.76064
3.15635
2.6281
2.12522
1.6139
1.13578
0.77178
0.542061
0.411681
0.342358
0.296696
0.26022
0.23034
0.207399
0.195783
0.18053
0.109398
0.0337268
0.00608369
0.000628281
3.52548e-05
6.01257e-06
9.74552e-05
0.0583173
0.0830739
0.372004
0.630651
0.849879
1.20666
1.75028
2.55654
3.72628
5.66607
8.36443
10.6311
10.6859
9.21062
8.6699
8.87046
9.17571
9.41598
9.53693
9.44409
9.08714
8.5933
8.0786
7.52797
6.94721
6.38994
5.91686
5.60394
5.39504
5.20073
4.99115
4.75728
4.47179
4.1105
3.70657
3.26897
2.81598
2.38749
1.99812
1.66084
1.36643
1.08213
0.819311
0.614849
0.47724
0.40071
0.379615
0.366807
0.331013
0.283157
0.238281
0.209922
0.185558
0.10864
0.0316337
0.00533595
0.000514388
2.73298e-05
5.78067e-06
9.75252e-05
0.0352096
0.0643231
0.193599
0.380953
0.766989
1.41083
2.2545
3.566
5.11726
5.92807
5.77682
5.06723
4.03036
3.04346
2.87982
3.41341
4.11115
4.71621
5.03708
5.07158
5.00016
4.88716
4.5779
4.14833
3.805
3.57904
3.53853
3.72922
4.05689
4.41531
4.71311
4.87625
4.84263
4.64277
4.29154
3.77969
3.18206
2.57992
2.03893
1.60096
1.27324
1.02396
0.847597
0.732921
0.677351
0.688351
0.713898
0.658297
0.533016
0.402831
0.304322
0.239547
0.193296
0.107578
0.0275847
0.00339024
0.000244012
1.02512e-05
5.36174e-06
9.80676e-05
0.00677831
0.00820304
0.0244255
0.0625344
0.141029
0.29355
0.57074
1.03082
1.56481
1.87156
1.59753
1.12644
0.662742
0.356434
0.282315
0.35181
0.48615
0.65402
0.831762
0.916262
0.968345
0.977077
0.880565
0.716215
0.57124
0.511585
0.557032
0.636137
0.725417
0.815224
0.878408
0.903753
0.909317
0.890612
0.821637
0.724723
0.641442
0.567994
0.516366
0.479255
0.469317
0.519303
0.62954
0.785298
0.95184
1.08126
1.05993
0.919566
0.748236
0.579362
0.426112
0.304356
0.212664
0.0988334
0.0180293
0.00151317
8.32397e-05
2.86688e-06
5.35545e-06
9.96911e-05
0.0064527
0.00128191
0.00272383
0.00747621
0.018466
0.040316
0.0803877
0.145775
0.230602
0.304068
0.239908
0.13277
0.0545183
0.0212517
0.0153565
0.0199114
0.0275693
0.0376477
0.0499916
0.0649992
0.077069
0.0801798
0.067033
0.0475941
0.0361854
0.0379762
0.0423622
0.0473362
0.0523564
0.0567142
0.0593093
0.0601256
0.0601604
0.0601405
0.0606414
0.0626696
0.0674832
0.0755409
0.0881443
0.106956
0.136528
0.184222
0.261657
0.382986
0.537358
0.644254
0.705062
0.712561
0.67848
0.604002
0.468711
0.320361
0.191008
0.0644608
0.00747224
0.000465222
2.08514e-05
7.35684e-07
5.48863e-06
0.00010105
0.0106806
0.00178302
0.000942337
0.000873755
0.00167065
0.00359305
0.00739041
0.0137244
0.0221878
0.0304524
0.0223136
0.0100415
0.00364305
0.00204656
0.00209195
0.00260019
0.00329547
0.00417245
0.00524411
0.00663022
0.0079124
0.00853669
0.00818247
0.00779254
0.00810504
0.00905173
0.0101761
0.0114746
0.0128992
0.0143961
0.0159065
0.0174437
0.0190887
0.0209776
0.023308
0.0263239
0.0304858
0.0362667
0.0444127
0.0562926
0.0743292
0.102195
0.144791
0.203438
0.27612
0.346915
0.391744
0.389159
0.354427
0.315996
0.263129
0.189197
0.105014
0.0325082
0.00292507
0.000136406
4.31597e-06
3.44961e-07
5.69731e-06
0.000102367
0.0190253
0.00575887
0.00326209
0.00166959
0.00118313
0.000888543
0.000855451
0.00106914
0.00152492
0.00205346
0.00158165
0.000948704
0.000761425
0.000813114
0.000939195
0.00110624
0.00130807
0.00154089
0.00180472
0.00209552
0.00238204
0.00264648
0.00287287
0.00311674
0.00341799
0.00379853
0.00422897
0.00471711
0.0052576
0.00584935
0.00648682
0.00719157
0.00800561
0.00899024
0.0102351
0.0118666
0.014102
0.0172544
0.021814
0.0285655
0.0387453
0.0539763
0.0759638
0.104554
0.140115
0.172708
0.190564
0.183347
0.164731
0.148991
0.130282
0.0979231
0.0529938
0.014963
0.00103917
3.85906e-05
1.27229e-06
5.72947e-07
6.11581e-06
0.000103339
0.0300822
0.0190352
0.0145618
0.00923364
0.00714748
0.00505159
0.00349576
0.00219221
0.00156712
0.00147455
0.00145936
0.00146105
0.00148547
0.00150292
0.00151223
0.00152988
0.001558
0.00163287
0.00173531
0.0018509
0.00197679
0.00211518
0.0022613
0.00242158
0.00260138
0.00275776
0.00287584
0.00298443
0.00310848
0.00328133
0.00352864
0.00386454
0.00430197
0.00487104
0.00561802
0.00661504
0.00798969
0.00996639
0.0129393
0.0175769
0.0250362
0.0372062
0.0565905
0.0825974
0.104958
0.116085
0.109225
0.0863003
0.0634901
0.0480511
0.0388088
0.0303055
0.0164156
0.00376496
0.000176379
6.90232e-06
3.18118e-06
3.67676e-06
9.60299e-06
0.000106619
0.0566498
0.0668011
0.0700777
0.0589948
0.0542965
0.0466909
0.0397358
0.0320814
0.0269134
0.0250427
0.0242115
0.0235734
0.0229493
0.0221182
0.0210368
0.0198426
0.0185774
0.01763
0.0168276
0.0161389
0.0155502
0.0150843
0.014702
0.0143898
0.0140625
0.0134149
0.0124686
0.0113427
0.0101569
0.00907392
0.00823476
0.00767166
0.00734732
0.00722624
0.00728724
0.00751809
0.00791445
0.0085081
0.00934629
0.010487
0.0120493
0.0142483
0.0169661
0.0191645
0.0204012
0.020084
0.017629
0.0140149
0.0109755
0.00880055
0.00735053
0.00589668
0.00302224
0.000504612
3.66846e-05
2.53358e-05
2.8553e-05
3.02195e-05
3.73027e-05
0.000124526
0.129994
0.20061
0.317899
0.361112
0.399802
0.421085
0.433194
0.43353
0.425466
0.412553
0.399927
0.389227
0.378032
0.365983
0.351016
0.333633
0.313917
0.293214
0.272332
0.252328
0.232936
0.214823
0.197481
0.18112
0.165042
0.149641
0.134774
0.120632
0.107186
0.0946973
0.0833848
0.0734699
0.0649314
0.057705
0.051648
0.0466598
0.0425954
0.0393291
0.0367457
0.0346072
0.0326045
0.0303876
0.0277979
0.0244772
0.020867
0.0167399
0.0123746
0.00844493
0.00540919
0.00329299
0.00196019
0.00115437
0.000595075
0.000284815
0.00022446
0.000202074
0.000194612
0.000180286
0.000184051
0.000201009
0.101023
0.171356
0.279233
0.319473
0.359462
0.38237
0.402076
0.412528
0.416733
0.415861
0.408726
0.399043
0.384254
0.36832
0.349311
0.329732
0.309043
0.288335
0.267877
0.247954
0.228369
0.209577
0.191299
0.173904
0.157089
0.141126
0.12589
0.111611
0.0983531
0.0863343
0.0756049
0.0662255
0.0581556
0.0513876
0.045857
0.0414628
0.0380174
0.0353571
0.0333442
0.0317808
0.0304063
0.0289281
0.026997
0.0242189
0.021057
0.0174694
0.0135087
0.00964792
0.00644793
0.00410245
0.00252488
0.00151555
0.000786984
0.000313581
0.000219486
0.00019706
0.000190844
0.000177407
0.000182409
0.000208547
0.04771
0.05071
0.0575109
0.0499905
0.0474145
0.043266
0.0421746
0.0398475
0.0380694
0.0358313
0.03381
0.0311199
0.02896
0.0264181
0.0242014
0.0220824
0.0201535
0.0187496
0.0176237
0.0167111
0.0159053
0.0151625
0.0144285
0.0136376
0.0127095
0.0116784
0.010587
0.00952737
0.00855608
0.00773849
0.00711486
0.00669673
0.00647916
0.00646941
0.00665738
0.00701401
0.00751342
0.00814893
0.00894532
0.00991599
0.011095
0.0124947
0.0138278
0.0149815
0.0160071
0.016552
0.0161724
0.0147601
0.0128895
0.0109935
0.00909194
0.00706555
0.00396865
0.000817184
4.99255e-05
2.58956e-05
2.89435e-05
3.03204e-05
3.75109e-05
0.000126986
0.0213237
0.0128453
0.010634
0.00695554
0.00558926
0.00434781
0.00397251
0.00347402
0.00318913
0.00289527
0.00266822
0.00240565
0.0022299
0.00203232
0.00189192
0.0017846
0.00171448
0.00171274
0.0017538
0.00182168
0.00190733
0.00200412
0.00210376
0.00219989
0.00228229
0.00236392
0.00245751
0.00258544
0.00275996
0.00299769
0.00331186
0.00371535
0.00422227
0.00486029
0.00567258
0.00672087
0.0081129
0.0100297
0.012743
0.0166274
0.0223662
0.0309595
0.0436575
0.0617031
0.0777298
0.0875535
0.0890785
0.0790276
0.0633828
0.0501404
0.0394065
0.030603
0.0182651
0.0050095
0.000275197
8.48287e-06
3.05901e-06
3.394e-06
9.23395e-06
0.000106494
0.011333
0.00355554
0.00211131
0.001058
0.000766617
0.000570008
0.000546199
0.00052217
0.000549761
0.000592126
0.000662407
0.000751466
0.000868845
0.00100776
0.00117219
0.00136167
0.00157399
0.00180539
0.00205721
0.00233299
0.00263623
0.00296715
0.00332332
0.00371217
0.00413883
0.00462141
0.00516757
0.00578742
0.00648103
0.0072568
0.00812921
0.00915291
0.0104198
0.0120811
0.0143483
0.0175636
0.0223288
0.0296933
0.041417
0.0603609
0.0923714
0.147763
0.243232
0.399332
0.620061
0.72751
0.69705
0.557029
0.368653
0.233982
0.157526
0.107321
0.0621552
0.0199952
0.00176595
5.41906e-05
1.46493e-06
4.20087e-07
5.9055e-06
0.000102349
0.00669696
0.00113363
0.000544374
0.000314612
0.000319637
0.000379835
0.000503104
0.000673307
0.000916744
0.00124175
0.00167867
0.00224228
0.00295508
0.00381929
0.0048238
0.00593535
0.0071213
0.00832608
0.00958685
0.010906
0.0122391
0.0135024
0.0147015
0.0159571
0.0173506
0.0188144
0.0203279
0.021867
0.0234057
0.0248854
0.0262626
0.0276691
0.0294284
0.0319935
0.0358836
0.0413912
0.0492087
0.0613903
0.0814625
0.115365
0.175735
0.286231
0.488843
0.840589
1.35363
1.94768
2.01093
1.60813
0.965743
0.570055
0.407156
0.285649
0.163693
0.0571929
0.00770791
0.000334288
1.0964e-05
4.14563e-07
5.56901e-06
0.000101507
0.00448744
0.00051492
0.000394335
0.000489559
0.000711074
0.00104919
0.00156491
0.00234539
0.00355933
0.0053558
0.00801285
0.0118008
0.016994
0.0237683
0.032035
0.0411967
0.050335
0.058235
0.0644894
0.070709
0.0767919
0.0796885
0.0800003
0.0819728
0.0876932
0.0938723
0.0991514
0.103026
0.105945
0.107859
0.1069
0.101631
0.093753
0.0867477
0.0827314
0.0825089
0.0869225
0.0979696
0.120349
0.161174
0.236782
0.375118
0.62869
1.09463
1.85626
2.78935
3.18733
2.66629
1.70058
0.992323
0.669015
0.460571
0.280329
0.120913
0.0225527
0.00129928
5.4611e-05
1.46486e-06
5.46522e-06
0.000100864
0.00391271
0.00113006
0.001923
0.00315019
0.00468037
0.00691404
0.0104337
0.0161648
0.0258636
0.0416149
0.0669501
0.106935
0.1673
0.253639
0.365072
0.490497
0.621708
0.747951
0.851126
0.929997
0.990998
1.00583
0.989852
0.988767
1.0679
1.18288
1.30527
1.41911
1.53145
1.66094
1.77026
1.79283
1.69706
1.52081
1.31805
1.12439
0.940614
0.673258
0.464537
0.40767
0.457768
0.576051
0.83344
1.33631
2.01408
2.68198
2.96851
2.61745
1.95128
1.33529
0.885682
0.544656
0.312156
0.148495
0.0379794
0.00334756
0.000156546
4.40104e-06
5.39771e-06
0.000100014
0.00743857
0.00870131
0.018191
0.0307414
0.0445391
0.0644136
0.0968467
0.153316
0.25441
0.421031
0.673117
1.05364
1.58059
2.28538
3.1366
3.96415
4.72842
5.49828
6.08185
6.34479
6.52327
6.5702
6.53105
6.50692
6.64196
7.13032
7.82982
8.54875
9.24775
10.0767
11.012
11.7945
12.1614
12.0405
11.4491
10.1968
8.4943
6.7534
5.15918
3.62705
2.67749
2.13081
1.8945
1.87581
2.01183
2.28565
2.38687
2.06867
1.57907
1.07975
0.693822
0.431942
0.26788
0.142916
0.0434592
0.00532332
0.000330755
1.16648e-05
5.40911e-06
9.86874e-05
0.0584847
0.135331
0.26979
0.281931
0.413894
0.5932
0.774602
1.1077
1.69197
2.62244
3.63651
4.93163
6.42081
8.10747
9.96978
11.6341
12.6852
13.3502
13.9696
14.3485
14.3852
14.2331
13.9447
13.6674
13.4718
13.44
13.6995
14.1956
14.7793
15.3137
15.6993
15.805
15.5104
14.8492
13.8773
12.6571
11.349
10.0635
8.7889
7.34412
5.68824
4.19509
3.05363
2.21934
1.64037
1.34027
1.30219
1.24166
1.01413
0.721811
0.484575
0.324209
0.228065
0.132496
0.0424625
0.0064038
0.000524433
2.4088e-05
5.63173e-06
9.73317e-05
0.102574
0.304172
0.851968
1.95247
2.98822
3.7241
4.23907
4.73203
5.21079
5.68684
6.19174
6.6662
7.14847
7.60533
8.09652
8.64767
9.19971
9.67533
10.0746
10.4129
10.6762
10.8751
10.9479
10.7583
10.3105
9.85911
9.59641
9.43872
9.28744
9.01658
8.57011
7.98594
7.36375
6.71677
6.04064
5.343
4.65394
3.98195
3.33296
2.72414
2.15279
1.64058
1.22405
0.916121
0.705215
0.573208
0.513379
0.481834
0.417116
0.329769
0.254313
0.203993
0.175165
0.119476
0.0458082
0.00869146
0.00090503
5.1364e-05
6.46387e-06
9.66765e-05
0.0840707
0.165369
1.10354
2.46012
3.44672
4.17519
4.54008
4.82535
5.21788
5.57617
5.68854
5.52365
5.28182
5.15853
5.22078
5.39497
5.57983
5.71017
5.75491
5.71038
5.59558
5.41824
5.18056
4.8824
4.52405
4.16253
3.86255
3.66361
3.53708
3.42617
3.33408
3.31079
3.33032
3.34686
3.32433
3.24862
3.09976
2.83981
2.46016
2.01079
1.5679
1.16707
0.835387
0.585805
0.418278
0.318069
0.263148
0.230162
0.206118
0.181518
0.165209
0.161211
0.159504
0.111068
0.0407121
0.00779076
0.000836644
4.90362e-05
6.43353e-06
9.68292e-05
0.0698318
0.118802
0.31908
0.702754
1.62229
3.41752
5.37717
5.97359
6.1643
7.18764
8.14662
8.38836
8.41328
8.6537
8.973
9.20391
9.24575
9.067
8.72835
8.29826
7.81543
7.27589
6.66591
6.02535
5.42738
4.93
4.55328
4.31299
4.20733
4.21345
4.29599
4.41006
4.52099
4.59493
4.61358
4.53707
4.27553
3.78239
3.08953
2.31305
1.59525
1.02945
0.645229
0.415832
0.291734
0.229627
0.195705
0.177196
0.170586
0.166655
0.166462
0.175236
0.166291
0.101645
0.0341585
0.00679874
0.000754575
4.49697e-05
6.30118e-06
9.67253e-05
0.0665096
0.112842
0.429191
0.907209
1.72387
2.77863
3.58862
4.1153
4.95733
6.40533
8.23604
9.23539
8.96725
8.51074
8.44833
8.67892
8.98089
9.2118
9.26477
9.05494
8.66066
8.17075
7.59215
6.95715
6.31481
5.73348
5.28241
4.99807
4.87205
4.87637
4.96665
5.10783
5.26173
5.38301
5.43053
5.36628
5.12227
4.63566
3.87312
2.89903
1.96097
1.23679
0.751471
0.461488
0.304767
0.233855
0.200649
0.184331
0.179228
0.174036
0.16935
0.173096
0.169557
0.11033
0.0381015
0.0074449
0.00081945
4.83972e-05
6.39273e-06
9.67119e-05
0.0723646
0.143747
0.481849
1.19845
1.6701
2.25371
2.86843
3.43457
3.99228
4.55989
4.86945
4.69521
4.45093
4.4517
4.64683
4.97716
5.38596
5.81691
6.23752
6.62955
6.95718
7.0769
6.8362
6.30834
5.73412
5.26146
4.91327
4.73199
4.70418
4.80311
4.99928
5.25147
5.50615
5.7124
5.82883
5.78507
5.52273
5.05579
4.41558
3.61094
2.72502
1.91549
1.28594
0.849593
0.576444
0.420782
0.343021
0.303043
0.271745
0.240128
0.209144
0.187961
0.176283
0.132723
0.0554694
0.0106057
0.00110927
6.2617e-05
6.7735e-06
9.67362e-05
0.110341
0.239124
0.5268
1.02869
1.51901
2.15644
2.90272
3.7318
4.45185
4.90614
5.0958
5.1665
5.34574
5.68966
6.20886
6.85154
7.54313
8.28124
9.03745
9.76648
10.4612
11.0013
11.1287
10.7687
10.1558
9.59127
9.16431
8.93956
9.0443
9.50308
10.1539
10.7879
11.2705
11.5523
11.5745
11.0766
9.75225
7.79416
5.73893
3.96351
2.61308
1.66469
1.03581
0.636259
0.40757
0.297626
0.272306
0.31003
0.323128
0.291477
0.252156
0.217308
0.190405
0.146614
0.0678143
0.0133381
0.00130812
6.80961e-05
6.85008e-06
9.71822e-05
0.139719
0.167046
0.224023
0.360701
0.627203
1.10907
1.92603
3.02474
4.16073
5.03363
5.83201
6.75336
7.82555
9.13
10.6485
12.1869
13.555
14.6143
15.2157
15.3115
14.9875
14.1879
13.0373
11.7527
10.5849
9.853
9.74319
10.1351
10.9134
11.7994
12.4553
12.6608
12.4083
11.694
10.4709
8.61588
6.43159
4.44053
2.91637
1.85625
1.178
0.75123
0.492608
0.344279
0.279548
0.300514
0.430267
0.595906
0.615633
0.534113
0.42716
0.330312
0.255791
0.174318
0.0665143
0.00954093
0.000693605
2.83077e-05
5.72595e-06
9.8068e-05
0.0579688
0.112438
0.248209
0.509434
0.951556
1.77562
2.9875
4.38078
5.75554
6.8547
7.85281
8.76509
9.75104
11.2669
13.1834
15.153
16.9632
18.3892
19.0755
18.8556
18.0609
16.9993
15.7983
14.4848
13.2788
12.6619
12.5774
12.8229
13.4246
14.0908
14.4285
14.2665
13.6594
12.6927
11.3659
9.55346
7.33026
4.85403
2.70741
1.37029
0.783126
0.560897
0.471239
0.463003
0.532448
0.683657
0.864702
0.924258
0.841101
0.692817
0.54209
0.412648
0.308442
0.195851
0.0681363
0.00895708
0.000607639
2.32576e-05
5.66066e-06
9.88587e-05
0.0195388
0.0248104
0.0575094
0.119522
0.227378
0.416174
0.738046
1.25886
1.82861
2.35172
2.84822
3.18964
3.40188
3.66978
4.13755
4.66942
5.19742
5.6745
5.98626
6.19451
6.30879
6.32253
6.17972
5.9615
5.84634
5.97704
6.29635
6.8973
7.5299
7.85875
7.70568
7.16156
6.37477
5.4527
4.45599
3.44317
2.47821
1.652
1.08409
0.75677
0.618847
0.574002
0.574729
0.625195
0.741175
0.88732
0.940048
0.864461
0.728673
0.586981
0.466536
0.361049
0.254505
0.114915
0.0238643
0.00239042
0.00015341
5.82698e-06
5.36216e-06
9.88295e-05
0.00878233
0.00209243
0.00374706
0.00716919
0.0129498
0.0224379
0.0378541
0.0620453
0.100254
0.144804
0.158376
0.149937
0.158573
0.178045
0.213959
0.265647
0.332233
0.409964
0.493506
0.593801
0.6729
0.705692
0.683397
0.62909
0.610249
0.669889
0.803029
0.974976
1.1347
1.24634
1.32908
1.32672
1.23959
1.09692
0.913466
0.719878
0.545363
0.427009
0.372596
0.364549
0.436821
0.540224
0.691481
0.940166
1.25544
1.4949
1.53167
1.41756
1.18358
0.899257
0.604306
0.348313
0.15778
0.0551326
0.00834077
0.00061293
3.10455e-05
1.10135e-06
5.44621e-06
0.000100584
0.0138635
0.00192447
0.001013
0.000819044
0.00103295
0.00141633
0.00197178
0.00263209
0.00334559
0.00403035
0.00449352
0.00440864
0.00472288
0.00535623
0.00637309
0.00781656
0.00964695
0.0117534
0.0140046
0.0165747
0.0199682
0.0224365
0.022463
0.022626
0.0265027
0.0321614
0.0393347
0.047493
0.0551006
0.0616675
0.0677243
0.0728178
0.0786665
0.0804038
0.0751875
0.0684219
0.0640007
0.0663243
0.0782942
0.0983597
0.132322
0.185236
0.270635
0.393161
0.529112
0.65122
0.703973
0.682072
0.585646
0.43497
0.289559
0.170958
0.0807215
0.025786
0.00275703
0.000147744
5.2773e-06
3.12302e-07
5.60595e-06
0.000101761
0.0198738
0.00572309
0.00322546
0.00165674
0.00115775
0.000815951
0.000697765
0.000628384
0.000635529
0.000677067
0.000752542
0.000838943
0.000932682
0.00103364
0.00114581
0.00127731
0.00142831
0.00160682
0.00180611
0.0020384
0.00230155
0.00259433
0.00292425
0.00331564
0.00378437
0.00434563
0.00499967
0.00574164
0.00653279
0.00736434
0.00823057
0.00910968
0.0100276
0.0110544
0.0123085
0.01396
0.0162059
0.0193168
0.02376
0.0303634
0.0406434
0.0565292
0.081322
0.118435
0.173497
0.21852
0.235214
0.220711
0.190991
0.15938
0.122
0.0780621
0.0375677
0.0102694
0.00074435
2.88919e-05
1.00327e-06
4.97828e-07
6.03544e-06
0.000103009
0.03041
0.0190066
0.0144743
0.00934633
0.00723715
0.00533625
0.00438222
0.0034936
0.00302207
0.00275989
0.00269586
0.0027479
0.00278714
0.00272904
0.00261647
0.00248729
0.0023513
0.0022851
0.00225708
0.00226826
0.00230179
0.00235706
0.00242158
0.00248199
0.00251886
0.00254376
0.00257304
0.00263044
0.00273823
0.00290628
0.00313856
0.00343111
0.00378601
0.00421337
0.00473553
0.00538758
0.00621927
0.00729722
0.00873574
0.0107481
0.0137446
0.0183757
0.0258583
0.0379958
0.0521716
0.0626614
0.0675569
0.0636304
0.0556666
0.0493193
0.0408467
0.0276447
0.0132486
0.00278469
0.000135905
6.3518e-06
3.40102e-06
3.81894e-06
9.75232e-06
0.000107002
0.0589292
0.0654349
0.0694275
0.0587127
0.054215
0.0480489
0.0442848
0.0397234
0.0366393
0.0342604
0.0330085
0.032294
0.0316008
0.0302134
0.0284842
0.0265937
0.0245117
0.0228434
0.0213942
0.0202019
0.019106
0.0181098
0.0171078
0.0160054
0.0146625
0.0131342
0.0114995
0.00988215
0.00843641
0.00727258
0.00644975
0.00594302
0.00567742
0.00559495
0.00566295
0.00584431
0.00611745
0.00646233
0.00684798
0.00725606
0.00770976
0.00831312
0.00930721
0.011018
0.0128577
0.0143016
0.0147234
0.0136085
0.012
0.0108168
0.00952065
0.00656207
0.00297625
0.000454384
3.7185e-05
2.66602e-05
2.99961e-05
3.14429e-05
3.88579e-05
0.000128724
0.115331
0.19557
0.308773
0.35127
0.391037
0.414516
0.429297
0.433536
0.429831
0.421143
0.408988
0.396382
0.382466
0.368181
0.351818
0.334827
0.316531
0.298069
0.279356
0.261125
0.242598
0.224449
0.206338
0.188741
0.171171
0.153915
0.137053
0.121036
0.106082
0.0925617
0.0805629
0.0701506
0.0612272
0.0536693
0.0473326
0.0421127
0.0378887
0.0344834
0.0316998
0.0293372
0.0271907
0.0250743
0.0229994
0.0210852
0.018753
0.0158021
0.0123396
0.00877095
0.00576788
0.00365173
0.00232515
0.00133163
0.000642571
0.000288969
0.00022248
0.000198756
0.000191085
0.000177386
0.000182429
0.000211792
0.117168
0.174241
0.287467
0.33415
0.373214
0.394552
0.405702
0.405432
0.396799
0.383756
0.370757
0.359655
0.348284
0.336181
0.321557
0.304966
0.286604
0.267942
0.249266
0.23157
0.214496
0.198812
0.183912
0.170129
0.156976
0.144452
0.132389
0.120941
0.110064
0.0999666
0.0908769
0.0830108
0.076302
0.0706694
0.0659617
0.0621076
0.0590547
0.0567504
0.0550143
0.0533303
0.0510795
0.0474192
0.0424855
0.0373992
0.0320769
0.0260684
0.0197117
0.0138643
0.00914841
0.00570482
0.00342119
0.00193363
0.000905662
0.000300388
0.000204497
0.000186643
0.00018596
0.000171942
0.000178296
0.000196759
0.0861834
0.146002
0.242639
0.281359
0.313659
0.332193
0.340445
0.338602
0.329872
0.317861
0.305466
0.294664
0.283837
0.272805
0.26035
0.24699
0.233057
0.219405
0.205987
0.193721
0.18233
0.172205
0.162949
0.15478
0.147148
0.139883
0.132748
0.125726
0.118608
0.111461
0.104482
0.0979705
0.0920802
0.0868043
0.0820247
0.0778191
0.0744619
0.0720224
0.0697293
0.0671174
0.0637692
0.0593433
0.0542239
0.0488469
0.0430583
0.036391
0.0289313
0.0216931
0.0153768
0.01038
0.00678913
0.00404226
0.00182726
0.000417377
0.000186242
0.000169823
0.000174798
0.000162495
0.000170247
0.000186461
0.077482
0.1167
0.182479
0.208512
0.231206
0.245209
0.250859
0.249424
0.243089
0.234287
0.224419
0.215705
0.207455
0.199765
0.191723
0.183902
0.175775
0.16794
0.160147
0.153083
0.146651
0.141036
0.136036
0.131598
0.127144
0.122432
0.117281
0.111642
0.105441
0.0991711
0.0935815
0.0886066
0.0839076
0.0796552
0.0761123
0.0730936
0.0706836
0.0693804
0.0692895
0.0703105
0.0718552
0.0722843
0.070312
0.0664617
0.0618556
0.0548366
0.0449181
0.0352012
0.0266927
0.0194341
0.0141992
0.00924995
0.00436477
0.000886832
0.000184944
0.000152196
0.000161045
0.00015176
0.0001607
0.000175852
0.0720736
0.091485
0.126558
0.13812
0.151756
0.161192
0.165348
0.16515
0.161739
0.156793
0.151058
0.145668
0.140806
0.136584
0.132405
0.128346
0.12385
0.119052
0.113844
0.108646
0.103691
0.0991644
0.0949835
0.0914031
0.0886467
0.0869529
0.086653
0.0882062
0.0925674
0.101324
0.116453
0.12636
0.125148
0.119866
0.11577
0.109207
0.100389
0.0963394
0.101897
0.112768