/*--------------------------------*- C++ -*----------------------------------*\
| =========                 |                                                 |
| \\      /  F ield         | OpenFOAM: The Open Source CFD Toolbox           |
|  \\    /   O peration     | Version:  2.1.1                                 |
|   \\  /    A nd           | Web:      www.OpenFOAM.org                      |
|    \\/     M anipulation  |                                                 |
\*---------------------------------------------------------------------------*/
FoamFile
{
    version     2.0;
    format      ascii;
    class       volScalarField;
    location    "0.0012";
    object      Lzero;
}
// * * * * * * * * * * * * * * * * * * * * * * * * * * * * * * * * * * * * * //

dimensions      [0 1 0 0 0 0 0];

internalField   nonuniform List<scalar> 
36520
(
9.25621e-05
9.2507e-05
9.26363e-05
9.26859e-05
9.27381e-05
9.28673e-05
9.30521e-05
9.32674e-05
9.34166e-05
9.33667e-05
9.31555e-05
9.29935e-05
9.29253e-05
9.29345e-05
9.29847e-05
9.30337e-05
9.30579e-05
9.30739e-05
9.30847e-05
9.30872e-05
9.30884e-05
9.30908e-05
9.30984e-05
9.31129e-05
9.31356e-05
9.31668e-05
9.32058e-05
9.32512e-05
9.33003e-05
9.33502e-05
9.33972e-05
9.34381e-05
9.347e-05
9.34919e-05
9.35058e-05
9.35125e-05
9.35162e-05
9.35204e-05
9.35285e-05
9.35474e-05
9.35899e-05
9.36808e-05
9.38551e-05
9.41276e-05
9.44649e-05
9.4839e-05
9.52117e-05
9.54195e-05
9.5583e-05
9.55622e-05
9.57952e-05
9.74147e-05
9.9278e-05
9.47012e-05
9.30854e-05
9.28674e-05
9.26358e-05
9.24959e-05
9.24277e-05
9.25303e-05
0.000194834
6.30888e-05
5.93971e-05
5.4488e-05
5.0959e-05
4.77917e-05
4.52153e-05
4.32905e-05
4.30255e-05
4.29266e-05
4.27139e-05
4.29085e-05
4.31939e-05
4.33624e-05
4.3373e-05
4.32755e-05
4.3274e-05
4.32945e-05
4.32579e-05
4.30426e-05
4.26952e-05
4.22445e-05
4.16941e-05
4.10532e-05
4.03258e-05
3.95054e-05
3.85465e-05
3.7414e-05
3.61307e-05
3.46986e-05
3.3132e-05
3.14809e-05
2.9875e-05
2.84986e-05
2.757e-05
2.71525e-05
2.69169e-05
2.66657e-05
2.62471e-05
2.55081e-05
2.43511e-05
2.28387e-05
2.12403e-05
1.98836e-05
1.89251e-05
1.80912e-05
1.68472e-05
1.5726e-05
1.50238e-05
1.43809e-05
1.28429e-05
9.88598e-06
6.52356e-06
2.80489e-06
3.53168e-06
1.10014e-05
1.22232e-05
1.2282e-05
1.44879e-05
0.000193949
0.000195037
3.94708e-05
3.46393e-05
2.9546e-05
2.62068e-05
2.31288e-05
2.04465e-05
1.73825e-05
1.40419e-05
1.15774e-05
1.31199e-05
1.75905e-05
1.91997e-05
1.96419e-05
1.96905e-05
1.95933e-05
1.94572e-05
1.92538e-05
1.89771e-05
1.86743e-05
1.8363e-05
1.80465e-05
1.76382e-05
1.70966e-05
1.64117e-05
1.55869e-05
1.46158e-05
1.35184e-05
1.24376e-05
1.14978e-05
1.07985e-05
1.03904e-05
1.02595e-05
1.03583e-05
1.06229e-05
1.10117e-05
1.14546e-05
1.19276e-05
1.24229e-05
1.29294e-05
1.34511e-05
1.40288e-05
1.47507e-05
1.57284e-05
1.70491e-05
1.87428e-05
2.07739e-05
2.2863e-05
2.44906e-05
2.47857e-05
2.3081e-05
1.80151e-05
1.25256e-05
6.00156e-06
1.84503e-06
1.41876e-06
3.08032e-06
3.06875e-06
5.72151e-06
0.000193944
0.000195084
2.46925e-05
1.94402e-05
1.42365e-05
1.00998e-05
6.09518e-06
3.64042e-06
2.61493e-06
2.60579e-06
3.01733e-06
2.87986e-06
2.82092e-06
5.95852e-06
8.28396e-06
8.6541e-06
8.73086e-06
8.7811e-06
8.88615e-06
9.02331e-06
9.16293e-06
9.32575e-06
9.51995e-06
9.67011e-06
9.78269e-06
9.90179e-06
1.00524e-05
1.02422e-05
1.04772e-05
1.07529e-05
1.10571e-05
1.13729e-05
1.16896e-05
1.20078e-05
1.23413e-05
1.27175e-05
1.33988e-05
1.41257e-05
1.45974e-05
1.50581e-05
1.5606e-05
1.62954e-05
1.71408e-05
1.81681e-05
1.94608e-05
2.11253e-05
2.33201e-05
2.63026e-05
3.0277e-05
3.38961e-05
3.47295e-05
3.29084e-05
2.8799e-05
2.08614e-05
1.16954e-05
3.9949e-06
9.1773e-07
5.32984e-07
1.021e-06
5.0814e-06
0.000193907
0.00019534
1.11103e-05
5.22822e-06
2.87748e-06
2.82004e-06
3.39312e-06
4.42753e-06
5.79303e-06
7.26312e-06
8.89418e-06
8.11861e-06
5.39833e-06
3.93082e-06
4.84413e-06
5.64614e-06
6.29796e-06
7.07352e-06
8.0215e-06
9.09591e-06
1.00777e-05
1.10172e-05
1.19772e-05
1.29035e-05
1.37729e-05
1.47211e-05
1.57972e-05
1.69827e-05
1.82649e-05
1.95632e-05
2.08159e-05
2.19776e-05
2.29944e-05
2.37177e-05
2.40614e-05
2.30558e-05
2.11686e-05
1.95631e-05
1.92813e-05
1.99186e-05
2.03713e-05
2.09985e-05
2.1848e-05
2.29244e-05
2.42731e-05
2.6012e-05
2.82092e-05
3.14568e-05
3.64519e-05
4.18943e-05
4.35027e-05
4.20772e-05
3.83997e-05
3.1431e-05
1.99526e-05
8.00969e-06
2.05972e-06
4.10059e-07
3.58923e-07
5.2923e-06
0.000193845
0.000195873
2.86413e-06
3.39157e-06
4.90691e-06
6.97152e-06
9.65273e-06
1.3035e-05
1.71082e-05
2.11071e-05
2.40863e-05
2.21861e-05
1.62847e-05
1.06818e-05
8.76157e-06
9.09523e-06
1.02641e-05
1.18596e-05
1.39342e-05
1.64477e-05
1.90121e-05
2.14058e-05
2.35009e-05
2.56518e-05
2.8182e-05
3.10764e-05
3.43801e-05
3.79692e-05
4.20452e-05
4.63357e-05
5.04226e-05
5.40532e-05
5.70418e-05
5.8664e-05
5.77551e-05
5.42837e-05
4.92145e-05
4.3601e-05
3.84905e-05
3.45157e-05
3.15519e-05
3.01783e-05
3.02192e-05
3.09189e-05
3.23129e-05
3.43686e-05
3.66549e-05
3.97597e-05
4.42958e-05
4.88275e-05
5.0971e-05
5.06454e-05
4.78008e-05
4.12232e-05
2.99704e-05
1.43154e-05
4.37459e-06
1.00146e-06
2.35272e-07
5.20963e-06
0.000193783
0.000196659
6.43512e-06
1.00448e-05
1.47111e-05
1.96916e-05
2.57364e-05
3.28068e-05
4.05536e-05
4.69928e-05
5.04751e-05
4.83934e-05
4.16073e-05
3.34737e-05
2.9827e-05
3.1507e-05
3.42186e-05
3.71944e-05
4.05394e-05
4.41581e-05
4.772e-05
5.11632e-05
5.35362e-05
5.5046e-05
5.69789e-05
6.04162e-05
6.47097e-05
6.87792e-05
7.34856e-05
7.8833e-05
8.42928e-05
8.92162e-05
9.31304e-05
9.53216e-05
9.51619e-05
9.25739e-05
8.77084e-05
8.11464e-05
7.38125e-05
6.67516e-05
6.00401e-05
5.3971e-05
4.89891e-05
4.50969e-05
4.41172e-05
4.53366e-05
4.70623e-05
4.90108e-05
5.15911e-05
5.42144e-05
5.54474e-05
5.47885e-05
5.27207e-05
4.85709e-05
3.95319e-05
2.29673e-05
8.42706e-06
2.22183e-06
4.532e-07
4.76682e-06
0.000193718
0.000194792
1.63349e-05
2.32655e-05
3.17459e-05
3.98142e-05
4.91745e-05
5.90034e-05
6.87881e-05
7.56281e-05
7.85306e-05
7.85241e-05
7.63773e-05
7.4296e-05
7.67805e-05
8.18891e-05
8.64104e-05
9.01881e-05
9.2663e-05
9.33211e-05
9.34457e-05
9.43861e-05
9.5718e-05
9.64691e-05
9.67966e-05
9.74429e-05
9.89394e-05
0.000101003
0.000103378
0.000106105
0.000109101
0.000111818
0.000113705
0.000114575
0.000114467
0.000113221
0.000110491
0.000106106
0.000100218
9.34354e-05
8.6228e-05
7.91518e-05
7.25539e-05
6.62844e-05
6.08454e-05
5.77667e-05
5.70285e-05
5.6885e-05
5.65184e-05
5.64058e-05
5.62028e-05
5.54552e-05
5.45177e-05
5.27208e-05
4.68017e-05
3.25306e-05
1.42976e-05
4.32438e-06
9.51859e-07
3.61133e-06
0.000193632
0.000194713
1.91516e-05
2.65911e-05
3.32621e-05
4.10468e-05
4.76529e-05
5.4025e-05
6.06301e-05
6.68694e-05
7.19288e-05
7.60774e-05
8.00072e-05
8.43316e-05
8.93326e-05
9.45991e-05
9.95915e-05
0.000103736
0.000106504
0.000108021
0.000109016
0.000110129
0.000111576
0.000112662
0.000112519
0.000111368
0.000110199
0.000109579
0.000109499
0.000109823
0.000110491
0.000111376
0.000112206
0.000112764
0.000112845
0.000112274
0.000110869
0.000108418
0.000104846
0.000100276
9.49877e-05
8.93499e-05
8.35627e-05
7.80048e-05
7.29602e-05
6.84173e-05
6.48457e-05
6.2932e-05
6.15154e-05
5.8916e-05
5.59212e-05
5.38123e-05
5.41526e-05
5.66606e-05
5.66542e-05
4.69003e-05
2.46637e-05
8.55274e-06
2.08939e-06
2.307e-06
0.000193569
0.000194459
1.81546e-05
2.61139e-05
3.16477e-05
3.866e-05
4.51006e-05
5.19982e-05
5.98529e-05
6.78995e-05
7.47473e-05
7.99546e-05
8.36094e-05
8.57694e-05
8.76376e-05
9.0653e-05
9.53609e-05
0.000101235
0.000107149
0.000112878
0.000118787
0.000124774
0.000129718
0.000132744
0.000133308
0.000131723
0.000129499
0.000127722
0.000126572
0.000126062
0.000126168
0.000126852
0.000127948
0.000129031
0.000129599
0.000129296
0.000127884
0.000125151
0.000120942
0.000115109
0.000107719
9.89243e-05
8.90499e-05
7.90513e-05
7.0151e-05
6.36068e-05
5.96007e-05
5.71877e-05
5.53511e-05
5.44007e-05
5.43899e-05
5.61024e-05
6.0357e-05
6.48618e-05
6.46157e-05
5.29447e-05
2.78928e-05
9.81364e-06
2.43834e-06
2.19475e-06
0.000193559
0.000194516
1.79127e-05
2.95973e-05
3.80254e-05
4.29702e-05
4.92483e-05
5.81494e-05
7.00701e-05
8.26669e-05
9.29435e-05
0.000101088
0.000108025
0.000113056
0.000116834
0.00012084
0.000125909
0.000131771
0.000137728
0.000143418
0.000148879
0.000153975
0.000158215
0.000160853
0.000161111
0.000158923
0.000155331
0.000152258
0.000150456
0.000150237
0.000151287
0.000153126
0.000155364
0.000157323
0.000158451
0.000158537
0.000157465
0.000154927
0.000150641
0.000144242
0.00013533
0.000123602
0.000108514
9.17697e-05
7.64733e-05
6.4924e-05
5.87082e-05
5.64163e-05
5.51545e-05
5.43546e-05
5.39302e-05
5.41653e-05
5.57242e-05
5.76195e-05
5.62523e-05
4.59662e-05
2.51845e-05
9.23124e-06
2.36207e-06
1.9494e-06
0.000193564
0.000194458
1.98255e-05
2.88005e-05
3.61247e-05
4.13561e-05
4.88206e-05
5.98494e-05
7.51144e-05
9.04742e-05
0.000100918
0.000110288
0.000119473
0.00012753
0.00013438
0.000140063
0.000145278
0.000150641
0.000155818
0.00016008
0.000163801
0.000167113
0.000169844
0.000171547
0.000171648
0.000169619
0.000164934
0.000158607
0.000154463
0.000153259
0.000154089
0.000156177
0.000158978
0.000161691
0.00016378
0.000164974
0.000164815
0.000162656
0.000158093
0.000151407
0.000141736
0.000128245
0.000110588
9.07116e-05
7.24671e-05
6.02717e-05
5.61182e-05
5.75376e-05
5.95054e-05
6.03251e-05
6.13401e-05
6.06215e-05
5.83096e-05
5.45332e-05
4.79057e-05
3.55012e-05
1.78815e-05
6.1623e-06
1.51271e-06
1.88415e-06
0.000193619
0.000193983
2.13799e-05
2.58268e-05
3.32909e-05
3.9905e-05
4.87909e-05
6.09645e-05
7.59066e-05
8.75705e-05
9.61588e-05
0.000105873
0.000116184
0.000125554
0.000134251
0.000142106
0.0001481
0.00015378
0.000159356
0.000163997
0.000167314
0.000169844
0.000171645
0.000172355
0.00017134
0.000168311
0.000163241
0.000156167
0.000150801
0.000149111
0.000150722
0.000153936
0.000157481
0.000160476
0.000162212
0.000162288
0.00016053
0.000157153
0.000152026
0.000144673
0.000133827
0.000118801
0.000100381
8.16344e-05
6.66147e-05
5.83523e-05
5.76196e-05
6.35824e-05
6.90249e-05
7.07456e-05
6.97186e-05
6.64155e-05
6.18389e-05
5.63209e-05
4.82896e-05
3.49308e-05
1.73393e-05
5.96285e-06
1.46771e-06
1.88025e-06
0.00019362
0.000194608
2.34967e-05
3.10502e-05
3.82921e-05
4.29241e-05
4.93897e-05
5.7948e-05
6.68683e-05
7.41077e-05
8.18771e-05
9.12931e-05
0.000102529
0.000114067
0.000124118
0.000132614
0.000139522
0.000146011
0.000152352
0.000157984
0.000162225
0.00016503
0.000166409
0.000166212
0.000164266
0.000160361
0.000154964
0.000150205
0.000147136
0.000146189
0.000147214
0.000149398
0.000151996
0.000154278
0.000155471
0.000155163
0.00015307
0.000149077
0.000143173
0.00013539
0.000125226
0.000112047
9.56913e-05
7.87431e-05
6.50831e-05
5.7104e-05
5.53741e-05
5.82226e-05
6.15863e-05
6.25047e-05
6.20179e-05
6.147e-05
6.13212e-05
6.05017e-05
5.56477e-05
4.28263e-05
2.30236e-05
8.40163e-06
2.15012e-06
2.06449e-06
0.000193586
0.000194439
1.82641e-05
2.65882e-05
3.29865e-05
3.92441e-05
4.46553e-05
4.87978e-05
5.2793e-05
5.89374e-05
6.68158e-05
7.71317e-05
8.98416e-05
0.000104082
0.000116344
0.000124814
0.000130678
0.000135781
0.000140566
0.000144549
0.00014702
0.000147725
0.000146704
0.000144062
0.000139706
0.000134414
0.000129807
0.000127003
0.000125963
0.000125949
0.000126544
0.000127601
0.000128888
0.000129755
0.000129212
0.000126562
0.00012185
0.000115695
0.000108857
0.000101586
9.37322e-05
8.49049e-05
7.4846e-05
6.47385e-05
5.65208e-05
5.14882e-05
4.97511e-05
5.03434e-05
5.1839e-05
5.35755e-05
5.60067e-05
5.93082e-05
6.28134e-05
6.35816e-05
5.78062e-05
4.18325e-05
2.08994e-05
7.21776e-06
1.7836e-06
2.67257e-06
0.000193616
0.000194884
1.63664e-05
2.61487e-05
3.13931e-05
3.6607e-05
4.26014e-05
4.90033e-05
5.58706e-05
6.37007e-05
7.44672e-05
8.76497e-05
9.98151e-05
0.000108239
0.000113893
0.000118402
0.000122287
0.000125815
0.000128695
0.000130529
0.000131015
0.000130308
0.00012873
0.000126328
0.000123052
0.000119407
0.000116354
0.000114334
0.000113466
0.000113271
0.000113281
0.00011329
0.000113035
0.000112051
0.000109974
0.000106725
0.000102292
9.69307e-05
9.10545e-05
8.49652e-05
7.88986e-05
7.26919e-05
6.61622e-05
5.99442e-05
5.51786e-05
5.25734e-05
5.24353e-05
5.44361e-05
5.66219e-05
5.76578e-05
5.83654e-05
5.95954e-05
6.16292e-05
6.19178e-05
5.56926e-05
3.8864e-05
1.86568e-05
6.24268e-06
1.50821e-06
2.90867e-06
0.000193631
0.000195605
1.36834e-05
2.16673e-05
2.82521e-05
3.64766e-05
4.48477e-05
5.32639e-05
6.3421e-05
7.19162e-05
7.65037e-05
7.91655e-05
7.994e-05
7.90887e-05
7.80201e-05
8.17873e-05
8.96803e-05
9.67152e-05
0.000101818
0.000104093
0.000104265
0.000103894
0.000103558
0.000102658
0.000100904
9.84718e-05
9.65362e-05
9.63167e-05
9.83264e-05
0.00010179
0.000105564
0.000108589
0.000110085
0.000109382
0.000106677
0.000102428
9.67849e-05
9.02272e-05
8.33614e-05
7.67677e-05
7.05947e-05
6.52425e-05
6.07825e-05
5.75641e-05
5.59264e-05
5.60818e-05
5.77259e-05
5.95708e-05
5.99011e-05
5.86318e-05
5.67415e-05
5.54003e-05
5.48772e-05
5.29792e-05
4.50482e-05
2.81619e-05
1.17513e-05
3.48737e-06
7.70428e-07
3.89085e-06
0.000193648
0.000196631
5.75694e-06
9.23901e-06
1.38451e-05
1.92111e-05
2.55056e-05
3.28238e-05
4.08738e-05
4.73707e-05
5.00945e-05
4.79711e-05
4.30443e-05
3.66531e-05
3.1233e-05
3.1329e-05
3.57103e-05
4.09771e-05
4.59331e-05
4.98923e-05
5.15793e-05
5.28544e-05
5.3303e-05
5.14521e-05
4.77465e-05
4.41579e-05
4.27158e-05
4.39838e-05
4.60184e-05
4.81921e-05
5.01754e-05
5.13246e-05
5.15069e-05
5.12211e-05
5.04896e-05
4.87113e-05
4.63464e-05
4.4313e-05
4.2467e-05
4.09926e-05
3.97974e-05
3.95142e-05
4.10938e-05
4.44592e-05
4.90925e-05
5.37712e-05
5.7586e-05
5.91796e-05
5.87796e-05
5.73869e-05
5.52421e-05
5.23383e-05
4.94264e-05
4.54467e-05
3.6475e-05
2.00447e-05
7.17179e-06
1.87786e-06
3.89821e-07
4.83509e-06
0.000193728
0.000195732
3.3972e-06
3.41209e-06
5.12612e-06
7.62105e-06
1.07215e-05
1.44335e-05
1.84277e-05
2.16749e-05
2.32301e-05
2.08496e-05
1.6418e-05
1.18857e-05
9.19448e-06
9.08738e-06
1.03598e-05
1.19258e-05
1.35481e-05
1.51247e-05
1.66297e-05
1.77862e-05
1.81503e-05
1.72289e-05
1.59584e-05
1.57064e-05
1.6179e-05
1.6724e-05
1.7307e-05
1.79024e-05
1.84636e-05
1.89514e-05
1.94059e-05
1.99169e-05
2.05476e-05
2.13005e-05
2.21297e-05
2.29672e-05
2.38065e-05
2.47111e-05
2.58086e-05
2.73302e-05
2.95538e-05
3.27206e-05
3.67642e-05
4.09741e-05
4.4057e-05
4.61871e-05
4.72e-05
4.7938e-05
4.81629e-05
4.68397e-05
4.39295e-05
3.89177e-05
2.8927e-05
1.35656e-05
4.05832e-06
9.34481e-07
2.3063e-07
5.20536e-06
0.000193806
0.000195344
1.34569e-05
5.57831e-06
2.61426e-06
2.70269e-06
3.49987e-06
4.65149e-06
5.93367e-06
7.18013e-06
8.06573e-06
7.03024e-06
5.19035e-06
4.28591e-06
5.60223e-06
6.89515e-06
7.34093e-06
7.72001e-06
8.10235e-06
8.48551e-06
8.84761e-06
9.33343e-06
9.99987e-06
1.1166e-05
1.289e-05
1.40742e-05
1.45991e-05
1.5166e-05
1.57963e-05
1.64589e-05
1.71111e-05
1.77035e-05
1.81853e-05
1.85361e-05
1.87821e-05
1.89689e-05
1.91508e-05
1.94084e-05
1.97725e-05
2.02844e-05
2.10433e-05
2.22091e-05
2.39295e-05
2.62341e-05
2.87907e-05
3.12888e-05
3.36819e-05
3.54972e-05
3.6897e-05
3.84699e-05
3.94715e-05
3.89082e-05
3.62875e-05
3.11059e-05
2.18728e-05
8.58225e-06
2.23008e-06
4.37968e-07
3.12854e-07
5.28585e-06
0.000193877
0.000195134
2.46333e-05
1.69877e-05
1.15092e-05
7.91662e-06
4.62194e-06
2.84168e-06
2.29901e-06
2.38386e-06
2.60451e-06
2.59471e-06
3.24179e-06
5.88244e-06
7.66027e-06
8.22454e-06
8.6006e-06
8.94892e-06
9.30535e-06
9.64452e-06
9.97353e-06
1.03957e-05
1.10004e-05
1.17043e-05
1.22455e-05
1.25962e-05
1.28919e-05
1.31711e-05
1.34428e-05
1.36944e-05
1.39135e-05
1.40795e-05
1.41945e-05
1.42737e-05
1.4338e-05
1.44076e-05
1.45052e-05
1.46671e-05
1.49241e-05
1.53231e-05
1.59359e-05
1.68575e-05
1.81469e-05
1.97761e-05
2.14962e-05
2.31285e-05
2.45267e-05
2.5743e-05
2.67881e-05
2.81278e-05
2.93926e-05
2.96215e-05
2.78045e-05
2.29368e-05
1.46907e-05
5.28309e-06
1.23707e-06
3.1073e-07
7.49427e-07
5.17317e-06
0.000193918
0.000194804
3.94327e-05
3.1222e-05
2.44874e-05
2.08839e-05
1.78904e-05
1.5645e-05
1.36572e-05
1.22034e-05
1.14694e-05
1.25922e-05
1.40528e-05
1.47064e-05
1.49767e-05
1.51453e-05
1.52642e-05
1.5338e-05
1.5436e-05
1.55456e-05
1.5673e-05
1.58122e-05
1.59787e-05
1.61438e-05
1.62731e-05
1.63389e-05
1.6163e-05
1.5746e-05
1.5171e-05
1.45229e-05
1.39156e-05
1.34285e-05
1.3057e-05
1.27604e-05
1.25215e-05
1.23264e-05
1.21629e-05
1.2033e-05
1.19672e-05
1.2027e-05
1.22919e-05
1.28607e-05
1.38152e-05
1.51545e-05
1.65119e-05
1.74544e-05
1.78377e-05
1.75214e-05
1.67756e-05
1.6406e-05
1.64625e-05
1.63547e-05
1.50842e-05
1.221e-05
7.48714e-06
2.25193e-06
7.63089e-07
2.17354e-06
2.61038e-06
5.67838e-06
0.000193888
0.000194952
6.40714e-05
5.74051e-05
5.09564e-05
4.70423e-05
4.3661e-05
4.13361e-05
3.98083e-05
3.9419e-05
3.90851e-05
3.8963e-05
3.90255e-05
3.91962e-05
3.93371e-05
3.94787e-05
3.96704e-05
3.99666e-05
4.02993e-05
4.06373e-05
4.09852e-05
4.13216e-05
4.16209e-05
4.18263e-05
4.18731e-05
4.17028e-05
4.13925e-05
4.09335e-05
4.0278e-05
3.93786e-05
3.82309e-05
3.68813e-05
3.534e-05
3.36068e-05
3.17152e-05
2.97339e-05
2.76993e-05
2.55952e-05
2.34393e-05
2.12e-05
1.88306e-05
1.64904e-05
1.44781e-05
1.30165e-05
1.21717e-05
1.16256e-05
1.10965e-05
1.04424e-05
9.68384e-06
8.78547e-06
7.70191e-06
6.89587e-06
6.35693e-06
5.25124e-06
2.93508e-06
2.31646e-06
1.01104e-05
1.19327e-05
1.22165e-05
1.44878e-05
0.000193861
9.68899e-05
9.69077e-05
9.69769e-05
9.70502e-05
9.71156e-05
9.72143e-05
9.73262e-05
9.74449e-05
9.75425e-05
9.75103e-05
9.74208e-05
9.73513e-05
9.73224e-05
9.73266e-05
9.7357e-05
9.73973e-05
9.74319e-05
9.74565e-05
9.74687e-05
9.74683e-05
9.74607e-05
9.74487e-05
9.74434e-05
9.74551e-05
9.74781e-05
9.75099e-05
9.75551e-05
9.76074e-05
9.766e-05
9.77085e-05
9.77503e-05
9.77842e-05
9.78105e-05
9.78316e-05
9.78502e-05
9.78697e-05
9.78941e-05
9.79309e-05
9.79894e-05
9.808e-05
9.82148e-05
9.84017e-05
9.87047e-05
9.90385e-05
9.92966e-05
9.94927e-05
9.96788e-05
9.98975e-05
0.000100109
0.000100256
0.000100168
0.000100475
0.000101913
9.94695e-05
9.72907e-05
9.71187e-05
9.69394e-05
9.68582e-05
9.67962e-05
9.68522e-05
9.73178e-05
9.73902e-05
9.74392e-05
9.75182e-05
9.75363e-05
9.75609e-05
9.75897e-05
9.76207e-05
9.76555e-05
9.76852e-05
9.77127e-05
9.77341e-05
9.77527e-05
9.77696e-05
9.77849e-05
9.78002e-05
9.78123e-05
9.78213e-05
9.78284e-05
9.78306e-05
9.7833e-05
9.78334e-05
9.78369e-05
9.78477e-05
9.78694e-05
9.79026e-05
9.79443e-05
9.79904e-05
9.80366e-05
9.80797e-05
9.81163e-05
9.81439e-05
9.81626e-05
9.81743e-05
9.81821e-05
9.81887e-05
9.81979e-05
9.82172e-05
9.8257e-05
9.8334e-05
9.84658e-05
9.86494e-05
9.89703e-05
9.9332e-05
9.95906e-05
9.97537e-05
9.98588e-05
9.99878e-05
0.000100165
0.000100338
0.000100428
0.000100827
0.000102778
0.000101455
9.77411e-05
9.74473e-05
9.72689e-05
9.71865e-05
9.71337e-05
9.71785e-05
0.00019484
6.25694e-05
5.81561e-05
5.2842e-05
4.97622e-05
4.71664e-05
4.56134e-05
4.41956e-05
4.31679e-05
4.22643e-05
4.1576e-05
4.08838e-05
4.04245e-05
4.00062e-05
3.97866e-05
3.9709e-05
3.97991e-05
4.00024e-05
4.02313e-05
4.03987e-05
4.04865e-05
4.04651e-05
4.03054e-05
3.99969e-05
3.95415e-05
3.89564e-05
3.82293e-05
3.73349e-05
3.62254e-05
3.4888e-05
3.33526e-05
3.16838e-05
2.99968e-05
2.84522e-05
2.71234e-05
2.59292e-05
2.47233e-05
2.3385e-05
2.18786e-05
2.01397e-05
1.82247e-05
1.62801e-05
1.45868e-05
1.33156e-05
1.24726e-05
1.18219e-05
1.11509e-05
1.03521e-05
9.3946e-06
8.28285e-06
7.11393e-06
6.1327e-06
5.06622e-06
3.08559e-06
1.76967e-06
8.92292e-06
1.15078e-05
1.17141e-05
1.40478e-05
0.000193849
0.000194977
3.71626e-05
3.07771e-05
2.50075e-05
2.20653e-05
1.96743e-05
1.85085e-05
1.74397e-05
1.68073e-05
1.62988e-05
1.59597e-05
1.56591e-05
1.54916e-05
1.53219e-05
1.52076e-05
1.50854e-05
1.49347e-05
1.48131e-05
1.47023e-05
1.45766e-05
1.4429e-05
1.42464e-05
1.40047e-05
1.3677e-05
1.32225e-05
1.26831e-05
1.2107e-05
1.15748e-05
1.11248e-05
1.07926e-05
1.05852e-05
1.04863e-05
1.04713e-05
1.05216e-05
1.06244e-05
1.07626e-05
1.09323e-05
1.11456e-05
1.14315e-05
1.18115e-05
1.23436e-05
1.30878e-05
1.40759e-05
1.52332e-05
1.61915e-05
1.69698e-05
1.74365e-05
1.73086e-05
1.67279e-05
1.59438e-05
1.47954e-05
1.30495e-05
1.0814e-05
7.23678e-06
2.37649e-06
6.74672e-07
1.87845e-06
2.3489e-06
5.41471e-06
0.000193869
0.000195205
2.25795e-05
1.62605e-05
1.1818e-05
9.89262e-06
8.42716e-06
7.84266e-06
7.27978e-06
7.00804e-06
6.78968e-06
6.68071e-06
6.6273e-06
6.67386e-06
6.77404e-06
6.9464e-06
7.17826e-06
7.44917e-06
7.74788e-06
8.04899e-06
8.33451e-06
8.59537e-06
8.84062e-06
9.06201e-06
9.27052e-06
9.47522e-06
9.70357e-06
9.96927e-06
1.02786e-05
1.06196e-05
1.09831e-05
1.13477e-05
1.16846e-05
1.19707e-05
1.22102e-05
1.24341e-05
1.27034e-05
1.30998e-05
1.37115e-05
1.46235e-05
1.59123e-05
1.7754e-05
2.0317e-05
2.36909e-05
2.77339e-05
3.16608e-05
3.30561e-05
3.25599e-05
3.06197e-05
2.80179e-05
2.59216e-05
2.45615e-05
2.30993e-05
2.04324e-05
1.42836e-05
5.75653e-06
1.2695e-06
2.58277e-07
5.45228e-07
5.14309e-06
0.000193852
0.00019532
1.35602e-05
7.91088e-06
4.72686e-06
3.90642e-06
3.64146e-06
3.75633e-06
3.9427e-06
4.22458e-06
4.55607e-06
4.94845e-06
5.38768e-06
5.88269e-06
6.42606e-06
7.01183e-06
7.62786e-06
8.27703e-06
8.93593e-06
9.58984e-06
1.02376e-05
1.08637e-05
1.14645e-05
1.19946e-05
1.24296e-05
1.27912e-05
1.3165e-05
1.35827e-05
1.40524e-05
1.45495e-05
1.50476e-05
1.55305e-05
1.59717e-05
1.63276e-05
1.65708e-05
1.67354e-05
1.68986e-05
1.71455e-05
1.76431e-05
1.85751e-05
2.01065e-05
2.25115e-05
2.607e-05
3.09914e-05
3.70883e-05
4.32814e-05
4.85284e-05
4.83849e-05
4.44707e-05
3.86645e-05
3.57629e-05
3.52552e-05
3.34896e-05
2.97224e-05
2.31163e-05
1.13963e-05
3.01351e-06
6.08956e-07
1.89401e-07
5.28444e-06
0.000193823
0.000195341
4.75303e-06
2.51784e-06
2.28733e-06
2.5698e-06
2.9447e-06
3.39497e-06
3.92438e-06
4.57048e-06
5.33244e-06
6.24069e-06
7.29356e-06
8.4892e-06
9.80198e-06
1.11678e-05
1.24912e-05
1.36965e-05
1.47082e-05
1.55516e-05
1.63839e-05
1.71898e-05
1.77711e-05
1.81822e-05
1.86198e-05
1.91048e-05
1.94966e-05
1.97925e-05
2.00261e-05
2.02502e-05
2.04259e-05
2.04316e-05
2.02267e-05
1.99832e-05
1.98983e-05
1.99777e-05
2.01567e-05
2.04433e-05
2.08502e-05
2.15537e-05
2.28657e-05
2.51903e-05
2.88161e-05
3.40131e-05
4.08524e-05
4.83465e-05
5.49762e-05
5.72981e-05
5.36291e-05
4.70799e-05
4.23201e-05
4.09875e-05
3.97102e-05
3.64983e-05
2.97399e-05
1.72061e-05
5.37843e-06
1.24845e-06
2.44863e-07
5.12005e-06
0.000193792
0.000195458
2.62993e-06
2.96855e-06
3.60126e-06
4.40625e-06
5.30094e-06
6.3907e-06
7.77235e-06
9.57266e-06
1.18366e-05
1.46865e-05
1.82268e-05
2.24564e-05
2.7299e-05
3.23287e-05
3.70328e-05
4.1329e-05
4.50335e-05
4.78431e-05
4.98168e-05
5.14257e-05
5.22501e-05
5.27257e-05
5.34918e-05
5.51295e-05
5.69586e-05
5.86102e-05
5.99772e-05
6.13245e-05
6.28693e-05
6.3919e-05
6.35348e-05
6.13568e-05
5.78237e-05
5.3494e-05
4.87164e-05
4.38206e-05
3.79929e-05
3.34192e-05
3.16888e-05
3.22991e-05
3.45354e-05
3.89874e-05
4.57198e-05
5.29053e-05
5.9463e-05
6.36608e-05
6.2482e-05
5.82789e-05
5.37844e-05
4.98454e-05
4.51812e-05
4.03091e-05
3.36071e-05
2.14155e-05
7.87427e-06
1.98091e-06
3.81409e-07
4.64289e-06
0.000193744
0.000195891
5.29846e-06
6.9642e-06
8.90348e-06
1.09782e-05
1.3537e-05
1.68384e-05
2.11586e-05
2.67238e-05
3.33559e-05
4.0927e-05
4.96609e-05
5.91242e-05
6.92642e-05
7.90623e-05
8.70139e-05
9.38129e-05
0.000100158
0.000104607
0.000106936
0.000108757
0.00010979
0.000110299
0.00011058
0.00011122
0.000113141
0.000115598
0.000117761
0.000119807
0.000122442
0.000125328
0.000127398
0.000127851
0.000126451
0.000122961
0.000116494
0.000107322
9.67295e-05
8.5245e-05
7.26248e-05
6.3123e-05
5.68327e-05
5.47848e-05
5.60879e-05
5.93688e-05
6.43924e-05
6.84454e-05
6.81916e-05
6.47474e-05
5.98421e-05
5.4421e-05
4.92698e-05
4.49193e-05
3.88471e-05
2.62814e-05
1.11163e-05
3.18963e-06
6.71867e-07
3.7541e-06
0.000193659
0.000196174
1.61481e-05
2.02346e-05
2.43213e-05
2.92688e-05
3.44428e-05
3.99919e-05
4.70937e-05
5.60667e-05
6.6169e-05
7.51276e-05
8.50245e-05
9.47497e-05
0.000104742
0.000114067
0.000121375
0.000126683
0.000131117
0.000134979
0.000137674
0.000139224
0.000140073
0.000140552
0.000140921
0.000141151
0.000141366
0.000142275
0.000143906
0.000145899
0.000148057
0.0001501
0.000151493
0.000151724
0.00015069
0.000148189
0.000143816
0.000137934
0.000130818
0.000122304
0.000111806
9.95753e-05
8.73935e-05
7.69192e-05
6.87845e-05
6.36712e-05
6.27324e-05
6.52778e-05
6.65842e-05
6.42987e-05
5.97153e-05
5.47294e-05
5.11591e-05
4.92501e-05
4.51186e-05
3.24371e-05
1.54114e-05
5.01754e-06
1.17538e-06
2.93047e-06
0.000193584
0.00019525
2.37176e-05
3.39681e-05
4.73544e-05
5.73057e-05
6.44996e-05
7.01765e-05
7.54801e-05
8.11932e-05
8.60507e-05
8.98673e-05
9.31702e-05
9.67173e-05
0.000100796
0.000105437
0.000110267
0.000114841
0.000118941
0.000122501
0.000125385
0.000127454
0.000128787
0.000129521
0.000129745
0.000129693
0.000129925
0.000130711
0.000131767
0.000132892
0.000133699
0.000133966
0.000133614
0.000132638
0.000130917
0.000128274
0.000124517
0.000119685
0.000113596
0.000106314
9.80401e-05
8.90367e-05
7.97094e-05
7.11316e-05
6.41449e-05
5.92952e-05
5.71025e-05
5.75875e-05
5.82906e-05
5.75619e-05
5.64997e-05
5.63719e-05
5.87615e-05
6.24313e-05
6.1745e-05
4.79771e-05
2.44913e-05
8.58475e-06
2.15244e-06
2.31745e-06
0.000193577
0.000194999
1.86949e-05
3.78704e-05
5.23128e-05
6.2023e-05
7.05781e-05
7.82559e-05
8.44388e-05
8.95935e-05
9.41733e-05
9.74926e-05
9.92543e-05
0.00010027
0.000101782
0.000104345
0.000107413
0.000110322
0.000112687
0.000114336
0.000115194
0.0001152
0.000114327
0.000112616
0.000110259
0.000107606
0.000105374
0.000104102
0.000103987
0.000104863
0.000106373
0.000108367
0.00011066
0.000112766
0.000114227
0.000114503
0.000113249
0.000110255
0.000105282
9.81772e-05
8.94063e-05
7.98764e-05
7.02132e-05
6.14156e-05
5.42989e-05
4.94866e-05
4.71907e-05
4.70925e-05
4.82342e-05
5.00687e-05
5.33905e-05
5.91983e-05
6.68166e-05
7.25214e-05
7.04932e-05
5.2759e-05
2.61635e-05
9.05199e-06
2.26124e-06
2.43436e-06
0.000193587
0.00019489
3.11186e-05
3.00287e-05
3.44571e-05
4.39281e-05
5.80048e-05
7.29004e-05
8.42432e-05
9.26156e-05
0.000100788
0.000107287
0.000111422
0.00011428
0.000116727
0.000119293
0.000121889
0.00012403
0.000125377
0.000125988
0.000125899
0.000124901
0.000122825
0.000119759
0.000116133
0.000112689
0.000110118
0.000108697
0.000108602
0.000109718
0.000111703
0.000114131
0.000116526
0.000118601
0.00012002
0.000120318
0.000118869
0.000114802
0.000107634
9.7447e-05
8.51725e-05
7.23211e-05
6.05406e-05
5.13303e-05
4.53232e-05
4.2364e-05
4.17609e-05
4.25757e-05
4.45932e-05
4.82758e-05
5.36127e-05
6.05704e-05
6.78529e-05
7.17273e-05
6.79791e-05
5.03644e-05
2.50964e-05
8.71198e-06
2.17722e-06
2.4981e-06
0.000193603
0.000194534
1.96561e-05
2.85157e-05
3.61716e-05
4.55313e-05
5.67259e-05
6.73881e-05
7.6859e-05
8.52468e-05
9.38469e-05
0.000102691
0.000109414
0.000113377
0.000115894
0.000118533
0.000121618
0.000124632
0.000127174
0.000128982
0.000129853
0.000129791
0.000128507
0.000125866
0.000122312
0.000118641
0.000115727
0.000114175
0.000114189
0.000115587
0.000117974
0.000120822
0.000123668
0.000126124
0.000127822
0.000128242
0.000126738
0.000122501
0.000115061
0.000104268
9.06023e-05
7.61289e-05
6.27991e-05
5.20426e-05
4.45837e-05
4.06525e-05
3.99639e-05
4.11544e-05
4.34093e-05
4.69705e-05
5.19287e-05
5.8305e-05
6.52766e-05
6.93447e-05
6.58765e-05
4.92776e-05
2.48472e-05
8.67886e-06
2.17159e-06
2.38774e-06
0.000193603
0.000194846
1.96367e-05
3.11362e-05
4.08814e-05
4.84431e-05
5.68892e-05
6.56978e-05
7.25283e-05
7.7697e-05
8.26782e-05
8.72961e-05
9.11383e-05
9.46896e-05
9.84034e-05
0.0001028
0.000107866
0.000113359
0.000119023
0.000124497
0.000129214
0.000132555
0.000133915
0.000133034
0.000130565
0.000127931
0.00012597
0.000124853
0.000125059
0.000126617
0.000129258
0.000132383
0.000135378
0.000137773
0.000139252
0.000139581
0.000138279
0.000134795
0.000128758
0.000119955
0.000108271
9.46295e-05
8.04651e-05
6.75532e-05
5.70734e-05
4.9905e-05
4.64522e-05
4.64524e-05
4.83866e-05
5.07658e-05
5.37848e-05
5.75321e-05
6.19547e-05
6.50283e-05
6.26034e-05
4.91992e-05
2.54453e-05
8.97022e-06
2.24723e-06
2.09666e-06
0.000193593
0.000194609
2.93674e-05
3.8239e-05
4.61599e-05
5.34213e-05
6.06008e-05
6.83547e-05
7.59113e-05
8.25604e-05
8.8186e-05
9.39493e-05
0.000100296
0.000106942
0.000113734
0.000120741
0.000127688
0.000134416
0.000140961
0.000146812
0.000151489
0.000154754
0.000156234
0.000155873
0.000154049
0.000151503
0.000149182
0.000147413
0.000146765
0.000147774
0.000149916
0.000152051
0.000153392
0.000153535
0.000152213
0.000149045
0.000143227
0.000134081
0.000122141
0.000108837
9.49925e-05
8.12123e-05
6.81549e-05
5.68243e-05
4.81951e-05
4.36317e-05
4.40799e-05
4.90919e-05
5.60547e-05
5.99386e-05
6.08871e-05
6.09092e-05
6.06378e-05
5.94503e-05
5.48862e-05
4.27831e-05
2.22991e-05
7.80944e-06
1.93367e-06
1.85221e-06
0.000193573
0.000194901
3.11958e-05
3.34831e-05
3.91452e-05
4.74565e-05
5.77187e-05
7.02342e-05
8.19935e-05
9.40566e-05
0.000103712
0.0001132
0.000122445
0.000130297
0.00013805
0.00014625
0.0001543
0.00016149
0.000167239
0.000171012
0.000172652
0.000172714
0.0001713
0.000168667
0.000164906
0.000160074
0.000155775
0.000153734
0.000153827
0.000155759
0.000158511
0.000160896
0.000161448
0.00015965
0.000155218
0.000147568
0.000135619
0.000119779
0.000102363
8.59223e-05
7.15489e-05
5.98623e-05
5.07814e-05
4.46457e-05
4.18807e-05
4.34155e-05
4.97009e-05
5.92585e-05
6.78033e-05
7.04709e-05
6.92483e-05
6.59843e-05
6.16874e-05
5.62731e-05
4.78265e-05
3.30654e-05
1.46755e-05
4.4816e-06
9.98944e-07
2.55376e-06
0.000193635
0.000195158
2.47528e-05
3.35277e-05
4.38839e-05
5.51159e-05
6.98223e-05
8.45434e-05
9.6928e-05
0.000107303
0.000115938
0.000123747
0.000129763
0.000134474
0.000141046
0.00014885
0.000156765
0.000164177
0.000170332
0.00017451
0.000176484
0.000177124
0.000176746
0.000175207
0.000172172
0.000167846
0.000164524
0.00016328
0.00016388
0.000165872
0.000168115
0.000169296
0.000168687
0.000166241
0.000161856
0.000154804
0.000143982
0.000128609
0.000107826
8.47001e-05
6.52521e-05
5.39844e-05
4.90803e-05
4.76726e-05
4.91166e-05
5.37088e-05
6.09681e-05
6.80645e-05
7.19771e-05
7.28297e-05