/*--------------------------------*- C++ -*----------------------------------*\
| =========                 |                                                 |
| \\      /  F ield         | OpenFOAM: The Open Source CFD Toolbox           |
|  \\    /   O peration     | Version:  2.1.1                                 |
|   \\  /    A nd           | Web:      www.OpenFOAM.org                      |
|    \\/     M anipulation  |                                                 |
\*---------------------------------------------------------------------------*/
FoamFile
{
    version     2.0;
    format      ascii;
    class       volScalarField;
    location    "0.0012";
    object      nut;
}
// * * * * * * * * * * * * * * * * * * * * * * * * * * * * * * * * * * * * * //

dimensions      [0 2 -1 0 0 0 0];

internalField   nonuniform List<scalar> 
36520
(
8.14851e-06
1.1524e-05
1.51546e-05
1.65945e-05
1.78039e-05
1.85362e-05
1.89832e-05
1.90356e-05
1.87783e-05
1.83182e-05
1.79013e-05
1.76352e-05
1.74245e-05
1.72096e-05
1.6924e-05
1.65555e-05
1.61257e-05
1.56589e-05
1.51675e-05
1.46664e-05
1.41503e-05
1.36328e-05
1.30975e-05
1.25507e-05
1.19825e-05
1.14011e-05
1.08026e-05
1.01945e-05
9.57781e-06
8.96298e-06
8.35704e-06
7.77371e-06
7.22257e-06
6.71451e-06
6.25809e-06
5.85728e-06
5.51253e-06
5.22105e-06
4.97588e-06
4.76766e-06
4.58798e-06
4.43327e-06
4.31696e-06
4.26582e-06
4.27889e-06
4.29932e-06
4.07744e-06
3.61385e-06
3.04091e-06
2.45233e-06
1.93325e-06
1.36266e-06
7.92302e-07
4.77241e-07
4.15959e-07
3.86073e-07
3.7585e-07
3.58721e-07
3.63615e-07
3.94497e-07
1.28424e-05
4.77912e-06
4.99558e-06
4.4938e-06
4.17219e-06
3.74805e-06
3.31398e-06
2.82254e-06
2.50339e-06
2.37603e-06
2.34461e-06
2.33882e-06
2.33029e-06
2.30017e-06
2.24832e-06
2.18751e-06
2.11805e-06
2.05613e-06
1.99561e-06
1.94154e-06
1.88848e-06
1.83399e-06
1.76564e-06
1.68048e-06
1.57977e-06
1.46811e-06
1.34437e-06
1.20993e-06
1.07283e-06
9.39671e-07
8.16978e-07
7.12134e-07
6.31672e-07
5.78418e-07
5.53415e-07
5.53148e-07
5.63719e-07
5.77765e-07
5.89858e-07
5.94585e-07
5.88553e-07
5.74178e-07
5.61971e-07
5.65378e-07
5.91138e-07
6.23204e-07
6.19737e-07
6.06191e-07
5.99793e-07
5.78937e-07
4.7847e-07
2.80814e-07
1.04736e-07
1.41806e-08
6.27472e-09
1.77071e-08
2.06671e-08
2.10874e-08
2.73338e-08
6.47128e-07
8.79166e-06
1.60734e-06
1.4172e-06
1.08937e-06
9.06072e-07
7.14192e-07
5.46731e-07
3.7403e-07
2.52242e-07
1.98934e-07
2.22578e-07
2.89145e-07
3.09601e-07
3.10683e-07
3.05458e-07
3.00059e-07
2.9177e-07
2.84742e-07
2.78322e-07
2.74935e-07
2.72485e-07
2.70288e-07
2.6476e-07
2.54575e-07
2.40283e-07
2.23172e-07
2.03846e-07
1.83407e-07
1.65192e-07
1.51312e-07
1.43073e-07
1.41027e-07
1.44837e-07
1.53925e-07
1.67531e-07
1.85384e-07
2.06958e-07
2.32313e-07
2.61866e-07
2.96047e-07
3.36178e-07
3.85509e-07
4.51187e-07
5.45162e-07
6.82629e-07
8.80472e-07
1.15208e-06
1.45847e-06
1.71465e-06
1.74862e-06
1.47515e-06
8.93809e-07
3.88479e-07
7.18135e-08
4.97134e-09
1.09358e-09
2.04361e-09
2.0534e-09
5.51126e-09
5.86089e-07
6.20978e-06
5.50721e-07
3.93202e-07
2.41704e-07
1.56122e-07
8.46037e-08
4.8511e-08
3.73213e-08
4.52464e-08
6.60591e-08
5.59425e-08
3.30148e-08
5.12772e-08
6.90566e-08
7.41257e-08
7.83924e-08
8.28208e-08
8.84997e-08
9.52969e-08
1.03228e-07
1.11736e-07
1.20791e-07
1.30272e-07
1.40403e-07
1.5172e-07
1.64881e-07
1.80019e-07
1.97377e-07
2.16663e-07
2.37443e-07
2.59115e-07
2.81111e-07
3.02596e-07
3.23319e-07
3.44382e-07
3.65083e-07
3.91479e-07
4.2389e-07
4.64614e-07
5.16852e-07
5.84697e-07
6.71146e-07
7.80985e-07
9.27754e-07
1.13246e-06
1.43153e-06
1.90291e-06
2.67345e-06
3.52808e-06
3.66305e-06
3.1247e-06
2.18325e-06
1.05224e-06
2.79937e-07
2.49469e-08
1.09761e-09
1.64912e-10
2.71506e-10
3.69649e-09
5.71729e-07
4.61651e-06
1.41779e-07
5.95987e-08
3.36376e-08
4.29207e-08
7.23468e-08
1.34137e-07
2.45097e-07
4.10405e-07
6.44146e-07
5.23742e-07
1.98579e-07
7.0297e-08
6.56531e-08
7.91985e-08
9.69263e-08
1.19937e-07
1.50143e-07
1.89156e-07
2.36043e-07
2.86295e-07
3.37715e-07
3.93277e-07
4.66053e-07
5.59533e-07
6.76939e-07
8.20425e-07
9.94437e-07
1.19335e-06
1.41035e-06
1.63918e-06
1.87243e-06
2.08109e-06
2.2511e-06
2.09591e-06
1.71081e-06
1.33443e-06
1.12725e-06
1.08797e-06
1.13182e-06
1.21848e-06
1.3475e-06
1.51846e-06
1.74621e-06
2.05675e-06
2.43037e-06
3.01284e-06
4.08584e-06
5.55111e-06
5.91057e-06
5.29032e-06
4.09588e-06
2.37779e-06
8.21123e-07
1.03619e-07
5.82237e-09
2.11253e-10
5.87419e-11
3.64423e-09
5.66992e-07
3.72805e-06
3.43071e-08
6.14794e-08
1.4193e-07
3.05978e-07
6.23356e-07
1.19917e-06
2.17387e-06
3.49941e-06
4.92231e-06
4.14818e-06
1.99469e-06
7.0276e-07
3.82947e-07
3.82693e-07
4.6995e-07
5.98696e-07
7.87151e-07
1.06795e-06
1.41467e-06
1.77412e-06
2.08798e-06
2.39113e-06
2.8059e-06
3.44121e-06
4.35083e-06
5.48665e-06
6.9743e-06
8.80563e-06
1.08431e-05
1.2925e-05
1.49165e-05
1.63426e-05
1.62753e-05
1.45703e-05
1.19829e-05
9.27799e-06
7.02381e-06
5.43412e-06
4.28366e-06
3.6833e-06
3.59262e-06
3.65426e-06
3.94279e-06
4.45212e-06
4.95843e-06
5.61954e-06
6.76793e-06
8.08341e-06
8.55279e-06
7.98314e-06
6.6752e-06
4.49415e-06
1.91555e-06
3.43968e-07
2.68465e-08
1.31821e-09
5.78439e-11
3.52444e-09
5.63811e-07
5.04482e-06
2.17352e-07
5.70499e-07
1.30887e-06
2.52983e-06
4.66792e-06
8.14871e-06
1.33298e-05
1.9122e-05
2.35245e-05
2.14524e-05
1.42382e-05
7.87741e-06
5.38553e-06
5.51555e-06
6.49076e-06
7.5926e-06
8.90585e-06
1.05067e-05
1.20177e-05
1.35252e-05
1.46026e-05
1.51382e-05
1.56986e-05
1.71239e-05
1.95458e-05
2.24263e-05
2.61279e-05
3.07909e-05
3.61507e-05
4.14975e-05
4.6204e-05
4.93852e-05
5.00014e-05
4.78227e-05
4.31497e-05
3.69159e-05
3.0274e-05
2.44569e-05
1.94101e-05
1.52008e-05
1.1997e-05
9.45012e-06
8.34326e-06
8.35469e-06
8.60039e-06
8.74259e-06
9.04528e-06
9.49749e-06
9.53484e-06
8.87207e-06
7.76805e-06
6.30809e-06
3.63839e-06
9.42315e-07
1.03279e-07
6.5144e-09
2.47382e-10
3.19654e-09
5.60374e-07
1.27976e-05
1.435e-06
3.15947e-06
6.41992e-06
1.11454e-05
1.89169e-05
2.95629e-05
4.23457e-05
5.26206e-05
5.79622e-05
5.80844e-05
5.26754e-05
4.51708e-05
4.36812e-05
4.8195e-05
5.42656e-05
5.97704e-05
6.30532e-05
6.27574e-05
6.00966e-05
5.75064e-05
5.65239e-05
5.65233e-05
5.63905e-05
5.67975e-05
5.86074e-05
6.15528e-05
6.49997e-05
6.88722e-05
7.32319e-05
7.73059e-05
7.99552e-05
8.09148e-05
8.04333e-05
7.84034e-05
7.4298e-05
6.80078e-05
5.98932e-05
5.12007e-05
4.28334e-05
3.53359e-05
2.9038e-05
2.35182e-05
1.87649e-05
1.57593e-05
1.44156e-05
1.34411e-05
1.20456e-05
1.07869e-05
9.77731e-06
8.73643e-06
7.74093e-06
6.77515e-06
4.77256e-06
1.84437e-06
2.89216e-07
2.35667e-08
1.05675e-09
2.44554e-09
5.56162e-07
1.62825e-05
2.06746e-06
4.5866e-06
7.65674e-06
1.19429e-05
1.66542e-05
2.20356e-05
2.8261e-05
3.5135e-05
4.18178e-05
4.70465e-05
5.15537e-05
5.71032e-05
6.41542e-05
7.21692e-05
8.02476e-05
8.70986e-05
9.12341e-05
9.23225e-05
9.15372e-05
9.00655e-05
8.85525e-05
8.66846e-05
8.39369e-05
8.06406e-05
7.78947e-05
7.62547e-05
7.54098e-05
7.49357e-05
7.46962e-05
7.4701e-05
7.46503e-05
7.42712e-05
7.33364e-05
7.16974e-05
6.91968e-05
6.55599e-05
6.06986e-05
5.47573e-05
4.82617e-05
4.18642e-05
3.60442e-05
3.113e-05
2.69181e-05
2.30757e-05
1.99087e-05
1.78294e-05
1.60656e-05
1.36109e-05
1.10813e-05
8.98524e-06
7.70645e-06
7.09637e-06
5.86564e-06
3.13083e-06
7.18762e-07
7.85531e-08
4.4112e-09
1.70012e-09
5.53269e-07
1.49793e-05
1.80092e-06
4.36639e-06
6.68416e-06
9.78924e-06
1.32145e-05
1.73954e-05
2.28554e-05
2.93344e-05
3.56528e-05
4.1016e-05
4.46999e-05
4.62171e-05
4.7227e-05
4.98016e-05
5.49851e-05
6.21702e-05
6.96987e-05
7.6967e-05
8.44174e-05
9.26522e-05
0.000100871
0.000106557
0.000107068
0.000102517
9.63803e-05
9.10994e-05
8.70516e-05
8.41483e-05
8.22958e-05
8.14833e-05
8.15156e-05
8.17503e-05
8.13518e-05
7.97995e-05
7.68372e-05
7.2321e-05
6.63551e-05
5.91779e-05
5.12166e-05
4.27314e-05
3.41512e-05
2.61822e-05
1.9654e-05
1.52748e-05
1.28484e-05
1.127e-05
9.82901e-06
8.76728e-06
7.9414e-06
7.33828e-06
7.26039e-06
7.38998e-06
6.3965e-06
3.5063e-06
8.37387e-07
9.62344e-08
5.66698e-09
1.66302e-09
5.53171e-07
1.27217e-05
1.60981e-06
5.16479e-06
9.21726e-06
1.16287e-05
1.51153e-05
2.10272e-05
3.1431e-05
4.59603e-05
6.08056e-05
7.40126e-05
8.46338e-05
9.01455e-05
9.27946e-05
9.5758e-05
0.000101086
0.000108942
0.000117775
0.000126921
0.000136733
0.00014749
0.000158559
0.000167708
0.000170385
0.000163796
0.000152383
0.000142666
0.000136276
0.00013349
0.000133689
0.000135893
0.000139248
0.000142318
0.000143682
0.000142752
0.000139374
0.000133158
0.000123969
0.000111669
9.6581e-05
7.92844e-05
6.01692e-05
4.18763e-05
2.77893e-05
1.87044e-05
1.40482e-05
1.19347e-05
1.05515e-05
9.54311e-06
8.63864e-06
7.78781e-06
7.30845e-06
7.0736e-06
5.90012e-06
3.16619e-06
7.93398e-07
9.62223e-08
5.89075e-09
1.5066e-09
5.52439e-07
1.2108e-05
1.7632e-06
4.25198e-06
7.89301e-06
1.11321e-05
1.64813e-05
2.54986e-05
4.20257e-05
6.51576e-05
8.51403e-05
0.000103109
0.000118413
0.00012917
0.000138955
0.000147913
0.000156439
0.000165992
0.000176248
0.000185019
0.000193362
0.000201697
0.00020826
0.000210236
0.000205296
0.0001936
0.000177312
0.000160414
0.000150849
0.000149254
0.000152472
0.000157984
0.00016424
0.000169618
0.000172984
0.00017392
0.000171753
0.000165654
0.000154784
0.00013956
0.000119626
9.50508e-05
6.81297e-05
4.39513e-05
2.65204e-05
1.70136e-05
1.36328e-05
1.34908e-05
1.36167e-05
1.30339e-05
1.25449e-05
1.13167e-05
9.69213e-06
8.01195e-06
5.8232e-06
2.73182e-06
5.77273e-07
5.95529e-08
3.23924e-09
1.38116e-09
5.54206e-07
1.34166e-05
2.03098e-06
3.44094e-06
6.59084e-06
9.97268e-06
1.58554e-05
2.60019e-05
4.25644e-05
5.87204e-05
7.32666e-05
9.16457e-05
0.00011182
0.000126446
0.000138054
0.000151652
0.000162493
0.000173716
0.000186001
0.000196684
0.000204366
0.000210365
0.000214011
0.000212804
0.000204813
0.000191505
0.000176153
0.000159199
0.000147022
0.000143082
0.000146347
0.000153193
0.000160441
0.000166578
0.000170186
0.000170131
0.000165689
0.000157162
0.00014466
0.000128215
0.000107207
8.20077e-05
5.62961e-05
3.54594e-05
2.20295e-05
1.54769e-05
1.39436e-05
1.63032e-05
1.86206e-05
1.84559e-05
1.67275e-05
1.40488e-05
1.12641e-05
8.81722e-06
6.13183e-06
2.75494e-06
5.61834e-07
5.72317e-08
3.10972e-09
1.37501e-09
5.54201e-07
1.36406e-05
2.87329e-06
7.30651e-06
1.13317e-05
1.33498e-05
1.69136e-05
2.3085e-05
3.07989e-05
3.73034e-05
4.5536e-05
5.80325e-05
7.66163e-05
9.64429e-05
0.000108736
0.000115672
0.000123961
0.000134667
0.00014621
0.000156623
0.000164225
0.000169376
0.000172992
0.000175227
0.000173472
0.000163598
0.000148065
0.000134841
0.000126423
0.000122427
0.000122301
0.00012482
0.000128646
0.000132135
0.000133432
0.000131709
0.000126755
0.000118816
0.000108409
9.62029e-05
8.22049e-05
6.59153e-05
4.78248e-05
3.15187e-05
2.03334e-05
1.43279e-05
1.21832e-05
1.23937e-05
1.28577e-05
1.23067e-05
1.11416e-05
9.95947e-06
9.05813e-06
8.30481e-06
6.2188e-06
2.87771e-06
6.7672e-07
8.03898e-08
4.90456e-09
1.55686e-09
5.52893e-07
1.40264e-05
1.42469e-06
4.25913e-06
7.73693e-06
1.18634e-05
1.51027e-05
1.72582e-05
1.97475e-05
2.42864e-05
3.08077e-05
4.20685e-05
6.16611e-05
8.81185e-05
0.000106929
0.000111972
0.000114484
0.000120128
0.000127901
0.00013571
0.000141162
0.000142957
0.00014053
0.000134169
0.000123977
0.000112266
0.000102488
9.58187e-05
9.22142e-05
9.07595e-05
9.04234e-05
9.10104e-05
9.23315e-05
9.33585e-05
9.23283e-05
8.79996e-05
8.03663e-05
7.07959e-05
6.11762e-05
5.23022e-05
4.40357e-05
3.58699e-05
2.75551e-05
1.99943e-05
1.43896e-05
1.09857e-05
9.25078e-06
8.53646e-06
8.18291e-06
7.92012e-06
7.78968e-06
7.82731e-06
8.05445e-06
7.8289e-06
5.54082e-06
2.22637e-06
4.72403e-07
5.24294e-08
3.06904e-09
1.89913e-09
5.5391e-07
1.36386e-05
1.36704e-06
4.62188e-06
7.22476e-06
9.77999e-06
1.35617e-05
1.87877e-05
2.58884e-05
3.5635e-05
5.1369e-05
7.34621e-05
9.43151e-05
0.000102538
0.00010017
0.000101032
0.000105547
0.000110446
0.000114443
0.000116817
0.00011668
0.000113836
0.000109359
0.000104055
9.78416e-05
9.12076e-05
8.52363e-05
8.05968e-05
7.78407e-05
7.62448e-05
7.48658e-05
7.33476e-05
7.14474e-05
6.86675e-05
6.46149e-05
5.95455e-05
5.35973e-05
4.7138e-05
4.07725e-05
3.48055e-05
2.94665e-05
2.46249e-05
1.99455e-05
1.57241e-05
1.25386e-05
1.05252e-05
9.61909e-06
9.71973e-06
9.93798e-06
9.61338e-06
9.00045e-06
8.43048e-06
8.18297e-06
7.72948e-06
5.3197e-06
2.00317e-06
3.94947e-07
4.1031e-08
2.28495e-09
2.02665e-09
5.5415e-07
1.06367e-05
1.00571e-06
2.76282e-06
5.05338e-06
9.25773e-06
1.54373e-05
2.31768e-05
3.47071e-05
4.71455e-05
5.39802e-05
5.51411e-05
5.21488e-05
4.60131e-05
3.94444e-05
4.0222e-05
4.80161e-05
5.68292e-05
6.40793e-05
6.77029e-05
6.80464e-05
6.73252e-05
6.63446e-05
6.36536e-05
5.95582e-05
5.56653e-05
5.2926e-05
5.25059e-05
5.50268e-05
5.94154e-05
6.42824e-05
6.83177e-05
7.04475e-05
6.97562e-05
6.66121e-05
6.1492e-05
5.45294e-05
4.66431e-05
3.88028e-05
3.17669e-05
2.58856e-05
2.13344e-05
1.78244e-05
1.53582e-05
1.38752e-05
1.33759e-05
1.38794e-05
1.45864e-05
1.40845e-05
1.2405e-05
1.04366e-05
8.85674e-06
7.78362e-06
6.75013e-06
4.28188e-06
1.35547e-06
1.98288e-07
1.5787e-08
7.1485e-10
2.61091e-09
5.55739e-07
4.69146e-06
1.51103e-07
4.18449e-07
1.00334e-06
2.09075e-06
4.00471e-06
7.18626e-06
1.20263e-05
1.71726e-05
1.98604e-05
1.75711e-05
1.32393e-05
8.64725e-06
5.40378e-06
4.82402e-06
6.13822e-06
8.27984e-06
1.07651e-05
1.31865e-05
1.43081e-05
1.50727e-05
1.5269e-05
1.3992e-05
1.171e-05
9.67193e-06
8.85406e-06
9.51323e-06
1.06366e-05
1.1895e-05
1.31288e-05
1.39402e-05
1.41901e-05
1.41547e-05
1.38083e-05
1.27957e-05
1.1434e-05
1.0285e-05
9.27509e-06
8.53648e-06
7.98423e-06
7.84479e-06
8.58186e-06
1.02228e-05
1.26075e-05
1.52029e-05
1.73531e-05
1.76565e-05
1.63348e-05
1.43856e-05
1.21854e-05
9.90095e-06
7.90214e-06
6.07357e-06
3.3231e-06
7.79982e-07
8.08474e-08
4.96504e-09
1.91278e-10
3.24263e-09
5.60551e-07
4.55647e-06
3.52489e-08
5.16067e-08
1.28447e-07
3.00121e-07
6.23862e-07
1.18593e-06
2.03896e-06
3.01637e-06
3.71221e-06
2.95947e-06
1.73366e-06
8.04251e-07
3.88435e-07
3.26347e-07
4.2364e-07
5.73846e-07
7.61805e-07
9.80011e-07
1.22866e-06
1.43093e-06
1.4894e-06
1.2927e-06
1.00893e-06
8.65839e-07
9.13697e-07
9.97527e-07
1.09122e-06
1.18711e-06
1.27426e-06
1.33751e-06
1.37898e-06
1.4157e-06
1.46029e-06
1.52009e-06
1.60546e-06
1.72903e-06
1.89619e-06
2.12611e-06
2.44603e-06
2.92651e-06
3.67603e-06
4.85046e-06
6.59343e-06
8.70435e-06
1.0248e-05
1.1239e-05
1.15464e-05
1.14431e-05
1.08474e-05
9.29312e-06
7.20562e-06
4.9291e-06
2.12837e-06
3.39829e-07
2.53671e-08
1.23661e-09
5.73266e-11
3.5341e-09
5.64587e-07
5.85052e-06
1.64671e-07
4.96251e-08
2.23943e-08
3.20136e-08
6.07966e-08
1.15883e-07
2.01449e-07
3.09945e-07
4.07896e-07
3.04334e-07
1.50727e-07
7.4967e-08
7.34461e-08
9.13933e-08
1.0848e-07
1.28432e-07
1.51671e-07
1.78077e-07
2.08778e-07
2.40597e-07
2.67753e-07
2.92708e-07
3.29752e-07
3.67195e-07
4.02519e-07
4.4336e-07
4.90365e-07
5.41723e-07
5.94972e-07
6.47054e-07
6.96041e-07
7.42169e-07
7.88346e-07
8.39247e-07
9.00446e-07
9.82049e-07
1.09122e-06
1.23883e-06
1.44689e-06
1.75471e-06
2.21688e-06
2.8929e-06
3.76326e-06
4.76467e-06
5.74914e-06
6.43859e-06
6.67036e-06
6.63712e-06
6.43013e-06
5.7839e-06
4.57414e-06
2.9212e-06
1.14287e-06
1.34513e-07
7.54799e-09
2.6368e-10
5.32502e-11
3.65633e-09
5.68464e-07
7.79999e-06
5.41735e-07
2.81176e-07
1.36283e-07
7.89135e-08
3.99263e-08
2.40862e-08
2.17848e-08
2.69774e-08
3.4203e-08
2.99046e-08
2.89365e-08
4.70399e-08
6.33016e-08
7.3044e-08
8.2899e-08
9.37953e-08
1.05856e-07
1.18736e-07
1.32309e-07
1.47036e-07
1.63998e-07
1.81802e-07
1.98116e-07
2.13412e-07
2.3026e-07
2.48219e-07
2.67561e-07
2.87762e-07
3.08378e-07
3.28623e-07
3.48842e-07
3.7011e-07
3.93977e-07
4.22408e-07
4.57912e-07
5.04755e-07
5.68111e-07
6.55856e-07
7.80537e-07
9.61609e-07
1.2218e-06
1.57957e-06
2.01431e-06
2.50892e-06
2.95387e-06
3.25667e-06
3.3241e-06
3.3084e-06
3.28785e-06
3.09845e-06
2.52146e-06
1.53017e-06
5.20773e-07
4.93544e-08
2.22705e-09
1.01571e-10
1.64392e-10
3.70748e-09
5.71275e-07
9.79147e-06
1.57663e-06
1.09185e-06
6.81905e-07
5.11662e-07
3.68494e-07
2.68066e-07
1.8531e-07
1.39999e-07
1.27634e-07
1.39405e-07
1.55665e-07
1.64261e-07
1.68259e-07
1.70679e-07
1.73021e-07
1.75448e-07
1.80761e-07
1.87669e-07
1.95406e-07
2.03736e-07
2.12966e-07
2.22475e-07
2.32068e-07
2.41501e-07
2.45977e-07
2.44707e-07
2.40181e-07
2.34652e-07
2.31005e-07
2.31167e-07
2.35228e-07
2.42545e-07
2.53258e-07
2.67745e-07
2.8668e-07
3.11698e-07
3.46225e-07
3.96469e-07
4.72263e-07
5.89716e-07
7.72252e-07
1.04474e-06
1.37523e-06
1.63873e-06
1.76125e-06
1.67812e-06
1.42817e-06
1.19799e-06
1.04579e-06
9.3369e-07
7.60989e-07
4.53354e-07
1.33135e-07
8.66709e-09
5.8099e-10
1.12346e-09
1.45054e-09
5.09945e-09
5.8018e-07
1.34469e-05
4.799e-06
4.40388e-06
3.58675e-06
3.17665e-06
2.73404e-06
2.3879e-06
2.06631e-06
1.87407e-06
1.79245e-06
1.75695e-06
1.73642e-06
1.72077e-06
1.6954e-06
1.65939e-06
1.61942e-06
1.57865e-06
1.55067e-06
1.52768e-06
1.50889e-06
1.49328e-06
1.48139e-06
1.46971e-06
1.45565e-06
1.43315e-06
1.38935e-06
1.3246e-06
1.24314e-06
1.15011e-06
1.05538e-06
9.69901e-07
8.9703e-07
8.34808e-07
7.81302e-07
7.35578e-07
6.96012e-07
6.59879e-07
6.2655e-07
5.93952e-07
5.58837e-07
5.24576e-07
5.00826e-07
4.91339e-07
4.88308e-07
4.81213e-07
4.5573e-07
4.01798e-07
3.32229e-07
2.6673e-07
2.09386e-07
1.71334e-07
1.41464e-07
8.36606e-08
1.91071e-08
4.06594e-09
1.47479e-08
1.84782e-08
1.94619e-08
2.56429e-08
6.26924e-07
1.01236e-05
1.25785e-05
1.58456e-05
1.6901e-05
1.77954e-05
1.82814e-05
1.85638e-05
1.85936e-05
1.84383e-05
1.81504e-05
1.78541e-05
1.7601e-05
1.73409e-05
1.70631e-05
1.67158e-05
1.63034e-05
1.58199e-05
1.52932e-05
1.47404e-05
1.41887e-05
1.36315e-05
1.30892e-05
1.2549e-05
1.20194e-05
1.14762e-05
1.09312e-05
1.03788e-05
9.82445e-06
9.26577e-06
8.71358e-06
8.18006e-06
7.68101e-06
7.22284e-06
6.81053e-06
6.44442e-06
6.12654e-06
5.85508e-06
5.62823e-06
5.44349e-06
5.2876e-06
5.13938e-06
4.97102e-06
4.76913e-06
4.49035e-06
4.1568e-06
3.73046e-06
3.21339e-06
2.66041e-06
2.1337e-06
1.66725e-06
1.28521e-06
9.89293e-07
7.20459e-07
4.86482e-07
4.22412e-07
4.00086e-07
3.91904e-07
3.76888e-07
3.8056e-07
3.97936e-07
8.96392e-06
1.16832e-05
1.49215e-05
1.59734e-05
1.69468e-05
1.74829e-05
1.7933e-05
1.81704e-05
1.82692e-05
1.82557e-05
1.81035e-05
1.78917e-05
1.75603e-05
1.71954e-05
1.67484e-05
1.62748e-05
1.57579e-05
1.52222e-05
1.46733e-05
1.41174e-05
1.35487e-05
1.29794e-05
1.24009e-05
1.1825e-05
1.12412e-05
1.06584e-05
1.00709e-05
9.48707e-06
8.90999e-06
8.35153e-06
7.81828e-06
7.31933e-06
6.8602e-06
6.44944e-06
6.09299e-06
5.7941e-06
5.54866e-06
5.35206e-06
5.19959e-06
5.0802e-06
4.9758e-06
4.86238e-06
4.71257e-06
4.47982e-06
4.18805e-06
3.82088e-06
3.36348e-06
2.84616e-06
2.33088e-06
1.86244e-06
1.46242e-06
1.13751e-06
8.35561e-07
5.20646e-07
4.19639e-07
3.96428e-07
3.89412e-07
3.75134e-07
3.80179e-07
4.06693e-07
1.23333e-05
4.08323e-06
4.04171e-06
3.42387e-06
3.14015e-06
2.84316e-06
2.71465e-06
2.55667e-06
2.44087e-06
2.31846e-06
2.21544e-06
2.09009e-06
1.99361e-06
1.8844e-06
1.79371e-06
1.71005e-06
1.63736e-06
1.58736e-06
1.54777e-06
1.51344e-06
1.47971e-06
1.44398e-06
1.40304e-06
1.3536e-06
1.29185e-06
1.22002e-06
1.13993e-06
1.05608e-06
9.7106e-07
8.89404e-07
8.15283e-07
7.51387e-07
6.99727e-07
6.63199e-07
6.41345e-07
6.29314e-07
6.2104e-07
6.11763e-07
5.99669e-07
5.81189e-07
5.56312e-07
5.27369e-07
4.97087e-07
4.72318e-07
4.57307e-07
4.40766e-07
4.10953e-07
3.64476e-07
3.09095e-07
2.51677e-07
1.96577e-07
1.49389e-07
9.24913e-08
2.5562e-08
3.62367e-09
1.31588e-08
1.79417e-08
1.86927e-08
2.49334e-08
6.3305e-07
8.25108e-06
1.2206e-06
9.19751e-07
6.04409e-07
4.7806e-07
3.75949e-07
3.38063e-07
2.97886e-07
2.75061e-07
2.54153e-07
2.38908e-07
2.22576e-07
2.11999e-07
2.00172e-07
1.91694e-07
1.84682e-07
1.79208e-07
1.77659e-07
1.78431e-07
1.80296e-07
1.82618e-07
1.84826e-07
1.86152e-07
1.85903e-07
1.83061e-07
1.78705e-07
1.73932e-07
1.7056e-07
1.69371e-07
1.71243e-07
1.76534e-07
1.85233e-07
1.97183e-07
2.12574e-07
2.31894e-07
2.55697e-07
2.85361e-07
3.23477e-07
3.73968e-07
4.4138e-07
5.34976e-07
6.67357e-07
8.52319e-07
1.09658e-06
1.30821e-06
1.45516e-06
1.50813e-06
1.41009e-06
1.22046e-06
1.03462e-06
8.51148e-07
6.61561e-07
4.23539e-07
1.48435e-07
1.14249e-08
5.69455e-10
9.52109e-10
1.25405e-09
4.76831e-09
5.79783e-07
6.02223e-06
3.90178e-07
2.16524e-07
1.11399e-07
7.93771e-08
5.83065e-08
5.31171e-08
4.8208e-08
4.76188e-08
4.78797e-08
4.98287e-08
5.26486e-08
5.7009e-08
6.23191e-08
6.89214e-08
7.67627e-08
8.56455e-08
9.54032e-08
1.05798e-07
1.16663e-07
1.27894e-07
1.39556e-07
1.51393e-07
1.63687e-07
1.76654e-07
1.91168e-07
2.07683e-07
2.26606e-07
2.47757e-07
2.71139e-07
2.96502e-07
3.23959e-07
3.54116e-07
3.8893e-07
4.31629e-07
4.8789e-07
5.67273e-07
6.84716e-07
8.62454e-07
1.13293e-06
1.56373e-06
2.26328e-06
3.386e-06
5.07893e-06
7.22494e-06
8.17082e-06
7.8779e-06
6.62269e-06
4.92991e-06
3.6337e-06
2.82505e-06
2.19299e-06
1.47622e-06
5.85323e-07
7.01044e-08
2.70826e-09
9.05922e-11
1.0241e-10
3.62199e-09
5.68338e-07
4.63212e-06
1.32311e-07
5.34895e-08
2.42971e-08
2.02396e-08
2.05669e-08
2.44167e-08
2.9648e-08
3.70683e-08
4.65268e-08
5.87552e-08
7.39337e-08
9.26736e-08
1.15088e-07
1.41131e-07
1.70303e-07
2.02418e-07
2.36295e-07
2.7211e-07
3.09832e-07
3.48296e-07
3.8606e-07
4.21464e-07
4.55017e-07
4.88273e-07
5.23314e-07
5.61214e-07
6.022e-07
6.45069e-07
6.87915e-07
7.29371e-07
7.69915e-07
8.11707e-07
8.58955e-07
9.1871e-07
9.96322e-07
1.10222e-06
1.26683e-06
1.5364e-06
1.9791e-06
2.73482e-06
4.04198e-06
6.27945e-06
9.85425e-06
1.45931e-05
1.96268e-05
1.9884e-05
1.63429e-05
1.10113e-05
7.82503e-06
6.51927e-06
5.18706e-06
3.48493e-06
1.60208e-06
2.89953e-07
1.59672e-08
5.8434e-10
3.53406e-11
3.61396e-09
5.65911e-07
3.79217e-06
3.12562e-08
1.44896e-08
1.46665e-08
1.98588e-08
2.76415e-08
3.89203e-08
5.50774e-08
7.90207e-08
1.13092e-07
1.61891e-07
2.2961e-07
3.20708e-07
4.37933e-07
5.79262e-07
7.34736e-07
8.90511e-07
1.0286e-06
1.1445e-06
1.26255e-06
1.38046e-06
1.45381e-06
1.49034e-06
1.54491e-06
1.63954e-06
1.7311e-06
1.80612e-06
1.86279e-06
1.91013e-06
1.94403e-06
1.93591e-06
1.86867e-06
1.77318e-06
1.6984e-06
1.66524e-06
1.6779e-06
1.74668e-06
1.89126e-06
2.16689e-06
2.66028e-06
3.55225e-06
5.11462e-06
7.81554e-06
1.23864e-05
1.90889e-05
2.66086e-05
2.96448e-05
2.53776e-05
1.77922e-05
1.22171e-05
9.71548e-06
7.80991e-06
5.60018e-06
2.99689e-06
7.48817e-07
5.61826e-08
2.67367e-09
8.5885e-11
3.46875e-09
5.64025e-07
3.54314e-06
2.56206e-08
3.7725e-08
5.85758e-08
8.73584e-08
1.27736e-07
1.89175e-07
2.86373e-07
4.46141e-07
6.99757e-07
1.10126e-06
1.72729e-06
2.66185e-06
3.98427e-06
5.66074e-06
7.51623e-06
9.44373e-06
1.12867e-05
1.27912e-05
1.39223e-05
1.48358e-05
1.5186e-05
1.52021e-05
1.54145e-05
1.65099e-05
1.79525e-05
1.94052e-05
2.07057e-05
2.19928e-05
2.34807e-05
2.46458e-05
2.46534e-05
2.31636e-05
2.06651e-05
1.77978e-05
1.49702e-05
1.23163e-05
9.03417e-06
6.60087e-06
5.86348e-06
6.33298e-06
7.5961e-06
1.03147e-05
1.53163e-05
2.17587e-05
2.82208e-05
3.17861e-05
2.92948e-05
2.35921e-05
1.8011e-05
1.35944e-05
9.66305e-06
6.52655e-06
3.75303e-06
1.20948e-06
1.32029e-07
7.18258e-09
2.3188e-10
3.126e-09
5.61508e-07
4.89614e-06
1.43231e-07
2.72204e-07
4.52394e-07
6.71422e-07
9.95649e-07
1.51858e-06
2.40091e-06
3.90625e-06
6.27226e-06
9.73085e-06
1.47726e-05
2.15412e-05
3.03447e-05
4.05783e-05
5.02064e-05
5.91174e-05
6.80605e-05
7.47611e-05
7.80597e-05
8.04982e-05
8.15544e-05
8.16879e-05
8.17445e-05
8.30662e-05
8.75529e-05
9.3739e-05
9.97812e-05
0.000105583
0.000112638
0.000120525
0.000126793
0.000129208
0.000127157
0.000120573
0.000107803
9.06459e-05
7.28476e-05
5.61118e-05
4.00827e-05
2.99328e-05
2.40418e-05
2.18526e-05
2.22617e-05
2.44033e-05
2.8212e-05
3.06446e-05
2.84231e-05
2.35786e-05
1.80203e-05
1.31367e-05
9.38402e-06
6.73749e-06
4.25592e-06
1.58776e-06
2.35043e-07
1.68108e-08
6.64992e-10
2.53025e-09
5.57524e-07
1.37486e-05
1.72153e-06
3.04581e-06
3.74242e-06
5.45688e-06
7.68767e-06
1.02002e-05
1.43638e-05
2.11347e-05
3.10529e-05
4.15181e-05
5.47185e-05
6.95774e-05
8.64286e-05
0.000104375
0.000119975
0.000130756
0.000138835
0.000146202
0.00015113
0.000153026
0.000153143
0.000152102
0.000150978
0.000150139
0.00015019
0.000152608
0.000157127
0.000162545
0.000167905
0.000172352
0.000174536
0.000173165
0.00016828
0.000159979
0.000148276
0.000134662
0.000120264
0.000105076
8.78073e-05
6.88233e-05
5.18734e-05
3.89528e-05
2.9696e-05
2.36324e-05
2.10466e-05
2.15873e-05
2.15014e-05
1.87648e-05
1.47025e-05
1.10407e-05
8.44171e-06
6.81604e-06
4.75939e-06
1.93705e-06
3.57401e-07
3.3299e-08
1.67176e-09
2.01536e-09
5.53468e-07
1.8122e-05
3.79074e-06
9.08612e-06
1.91755e-05
2.87078e-05
3.60714e-05
4.18718e-05
4.7583e-05
5.37114e-05
5.94682e-05
6.48042e-05
6.97126e-05
7.49387e-05
8.0556e-05
8.69437e-05
9.39706e-05
0.000100943
0.000107216
0.000112681
0.000117254
0.000120686
0.000123079
0.000124194
0.000123327
0.000120684
0.000118224
0.000117345
0.000117317
0.000117366
0.000116344
0.000113654
0.000109423
0.000104306
9.83268e-05
9.13639e-05
8.34095e-05
7.48246e-05
6.56909e-05
5.62472e-05
4.68936e-05
3.78587e-05
2.95872e-05
2.28064e-05
1.77924e-05
1.44303e-05
1.25287e-05
1.19575e-05
1.17258e-05
1.07735e-05
9.40255e-06
8.23838e-06
7.69122e-06
7.57219e-06
6.18497e-06
2.97578e-06
6.61689e-07
7.48435e-08
4.47049e-09
1.70746e-09
5.51582e-07
1.63852e-05
2.20316e-06
1.15289e-05
2.37783e-05
3.33696e-05
4.1793e-05
4.83219e-05
5.37529e-05
5.93087e-05
6.44453e-05
6.73856e-05
6.76017e-05
6.67816e-05
6.69931e-05
6.90931e-05
7.23012e-05
7.55213e-05
7.8036e-05
7.94874e-05
7.97735e-05
7.89715e-05
7.71214e-05
7.42821e-05
7.06033e-05
6.63276e-05
6.23027e-05
5.92912e-05
5.76803e-05
5.71532e-05
5.706e-05
5.7343e-05
5.83516e-05
5.96369e-05
6.05593e-05
6.0501e-05
5.91534e-05
5.62548e-05
5.14155e-05
4.46259e-05
3.67406e-05
2.8985e-05
2.19817e-05
1.62674e-05
1.20438e-05
9.27504e-06
7.7128e-06
7.00079e-06
6.70606e-06
6.58748e-06
6.59202e-06
6.97302e-06
7.77458e-06
8.39357e-06
6.80826e-06
3.08499e-06
6.69238e-07
7.58769e-08
4.58881e-09
1.78939e-09
5.52045e-07
1.49249e-05
3.10834e-06
4.91566e-06
8.37096e-06
1.62144e-05
3.10752e-05
4.89894e-05
5.96689e-05
6.66379e-05
7.83061e-05
8.87424e-05
9.352e-05
9.6061e-05
9.951e-05
0.000103557
0.000107163
0.000109293
0.000109407
0.000107867
0.000105102
0.00010119
9.60119e-05
8.96055e-05
8.26118e-05
7.60801e-05
7.08563e-05
6.72165e-05
6.53616e-05
6.52193e-05
6.64473e-05
6.85538e-05
7.09151e-05
7.30802e-05
7.45568e-05
7.48936e-05
7.33754e-05
6.87924e-05
6.06632e-05
4.96375e-05
3.75393e-05
2.64713e-05
1.7801e-05
1.19488e-05
8.46982e-06
6.6311e-06
5.7993e-06
5.4583e-06
5.43989e-06
5.77825e-06
6.34266e-06
7.16164e-06
8.23144e-06
8.47645e-06
6.28077e-06
2.69754e-06
5.99682e-07
6.93527e-08
4.23114e-09
1.81725e-09
5.51796e-07
1.4539e-05
1.9135e-06
5.41382e-06
9.98427e-06
1.73244e-05
2.74026e-05
3.6995e-05
4.51846e-05
5.50043e-05
6.88313e-05
8.54057e-05
9.63597e-05
9.839e-05
9.79801e-05
9.98433e-05
0.000103831
0.000108239
0.000111858
0.000113774
0.000113237
0.000110692
0.000106452
0.000100505
9.34935e-05
8.63996e-05
8.03046e-05
7.60471e-05
7.39814e-05
7.39364e-05
7.54968e-05
7.80321e-05
8.09973e-05
8.38411e-05
8.59438e-05
8.66055e-05
8.50823e-05
8.03463e-05
7.17923e-05
5.94671e-05
4.47055e-05
3.08944e-05
2.02394e-05
1.30741e-05
8.7771e-06
6.50379e-06
5.60062e-06
5.34232e-06
5.40103e-06
5.76266e-06
6.27802e-06
6.95334e-06
7.87038e-06
8.27496e-06
6.34123e-06
2.7875e-06
6.21301e-07
7.19978e-08
4.37808e-09
1.74955e-09
5.51755e-07
1.51897e-05
2.15757e-06
6.26349e-06
1.29697e-05
1.81425e-05
2.47499e-05
3.22454e-05
3.89528e-05
4.49893e-05
5.11639e-05
5.58252e-05
5.723e-05
5.78925e-05
6.01683e-05
6.42193e-05
6.97382e-05
7.62398e-05
8.31902e-05
9.01073e-05
9.64156e-05
0.000101323
0.00010324
0.000100801
9.50337e-05
8.87777e-05
8.37366e-05
8.02009e-05
7.88373e-05
7.95843e-05
8.20942e-05
8.57791e-05
8.99049e-05
9.36877e-05
9.64505e-05
9.76593e-05
9.63844e-05
9.18009e-05
8.39003e-05
7.3048e-05
5.96237e-05
4.52696e-05
3.22732e-05
2.21999e-05
1.52452e-05
1.09804e-05
8.73234e-06
7.8843e-06
7.71921e-06
7.66914e-06
7.63794e-06
7.62479e-06
7.78401e-06
7.91229e-06
6.60945e-06
3.35799e-06
7.59403e-07
8.65798e-08
5.15335e-09
1.58136e-09
5.51797e-07
1.87338e-05
4.16171e-06
8.04311e-06
1.35676e-05
1.90805e-05
2.57894e-05
3.37494e-05
4.24973e-05
5.04821e-05
5.66063e-05
6.14604e-05
6.60658e-05
7.16553e-05
7.86195e-05
8.71881e-05
9.68591e-05
0.000106985
0.000117555
0.000127902
0.000137198
0.000145054
0.000150173
0.000150692
0.000146499
0.000139918
0.00013389
0.000129324
0.000127167
0.000128789
0.000133929
0.00014041
0.000146004
0.000149374
0.000149928
0.000146949
0.000138142
0.000121343
9.88195e-05
7.55588e-05
5.48055e-05
3.80446e-05
2.54835e-05
1.67598e-05
1.11408e-05
8.07232e-06
6.96901e-06
7.42393e-06
9.045e-06
9.87391e-06
9.52627e-06
8.86365e-06
8.19176e-06
7.51775e-06
6.0904e-06
3.2287e-06
7.46329e-07
8.18539e-08
4.62422e-09
1.40486e-09
5.53011e-07
2.11123e-05
3.69495e-06
4.59269e-06
6.81313e-06
1.08917e-05
1.76153e-05
2.82472e-05
4.13255e-05
5.55993e-05
6.74321e-05
7.92228e-05
9.22139e-05
0.00010563
0.000120884
0.000138304
0.000156101
0.000172302
0.000185277
0.000193316
0.000195784
0.00019377
0.000186987
0.000176489
0.000163833
0.000150925
0.000141703
0.000139065
0.000141919
0.000149117
0.000157792
0.000164557
0.000166478
0.000162975
0.000153822
0.000138382
0.000115363
8.80307e-05
6.25107e-05
4.25229e-05
2.82498e-05
1.88288e-05
1.27552e-05
9.08083e-06
7.12139e-06
6.65224e-06
7.89572e-06
1.12646e-05
1.51682e-05
1.60238e-05
1.46663e-05
1.24977e-05
1.02743e-05
8.2478e-06
5.78676e-06
2.4713e-06
4.15417e-07
3.42046e-08
1.54024e-09
1.77092e-09
5.55703e-07
1.36169e-05
2.40534e-06
4.84069e-06
9.07704e-06
1.55808e-05
2.69628e-05
4.23475e-05
5.87923e-05
7.46022e-05
8.79659e-05
0.000100494
0.000111333
0.000121691
0.000137201
0.000156624
0.000176846
0.000195957
0.000211676
0.000220879
0.000222086
0.000218144
0.000211184
0.000201814
0.000189896
0.00017725
0.000169657
0.000167812
0.000170065
0.000176124
0.000182881
0.00018636
0.000184644
0.000178053
0.000167109
0.000151244
0.000128969
0.000100908
6.88445e-05
4.03883e-05
2.21358e-05
1.38446e-05
1.06523e-05
9.48386e-06
9.68535e-06
1.13574e-05
1.46089e-05
1.83421e-05
2.00533e-05
1.93566e-05