/*--------------------------------*- C++ -*----------------------------------*\
| =========                 |                                                 |
| \\      /  F ield         | OpenFOAM: The Open Source CFD Toolbox           |
|  \\    /   O peration     | Version:  2.1.1                                 |
|   \\  /    A nd           | Web:      www.OpenFOAM.org                      |
|    \\/     M anipulation  |                                                 |
\*---------------------------------------------------------------------------*/
FoamFile
{
    version     2.0;
    format      ascii;
    class       volScalarField;
    location    "0.0012";
    object      p;
}
// * * * * * * * * * * * * * * * * * * * * * * * * * * * * * * * * * * * * * //

dimensions      [1 -1 -2 0 0 0 0];

internalField   nonuniform List<scalar> 
36520
(
8.30761
4.15978
3.70216
3.87834
-0.583597
-16.5529
-46.8983
-78.9995
-96.0729
-87.1099
-57.3794
-19.8649
12.1564
31.1407
39.124
41.038
40.7167
40.3803
41.0818
42.8814
45.3349
47.7649
49.5844
50.3517
49.8074
47.8159
44.4647
40.0627
35.0916
30.1392
25.8276
22.6389
20.7727
20.1336
20.3537
20.908
21.2097
20.7095
18.7668
14.6038
7.3742
-3.79434
-19.5744
-40.5017
-67.4178
-101.082
-142.567
-189.305
-224.993
-229.984
-194.684
-108.306
25.8965
162.199
266.946
332.736
371.628
392.842
403.966
408.39
9.46979
4.61742
3.63874
4.48873
1.09701
-14.7675
-47.2391
-82.5978
-101.494
-91.9385
-59.7314
-19.3361
14.4572
33.467
40.7119
41.895
41.024
40.4329
41.0729
42.961
45.5391
48.0763
49.9726
50.7952
50.2746
48.2705
44.8592
40.3428
35.2162
30.0905
25.627
22.3556
20.4927
19.9522
20.3053
21.024
21.5034
21.203
19.491
15.5754
8.61309
-2.29166
-17.96
-39.0487
-66.4944
-100.915
-144.129
-196.278
-238.007
-245.545
-212.156
-127.227
12.922
159.814
269.395
335.681
374.108
394.724
405.382
409.577
11.3715
5.13964
3.34736
5.72385
4.48154
-10.9975
-47.7295
-89.5925
-112.233
-101.491
-64.3418
-18.2654
18.9957
37.9744
43.6212
43.1472
41.3431
40.224
40.6743
42.7031
45.6592
48.4616
50.7056
51.6622
51.2032
49.1825
45.6514
40.8914
35.4306
29.9415
25.1601
21.6953
19.8238
19.4697
20.1757
21.2765
22.1893
22.3726
21.2573
18.0027
11.6743
1.30508
-14.1486
-35.5641
-63.969
-100.161
-147.335
-210.576
-264.556
-277.115
-245.032
-165.558
-21.8824
153.6
274.608
341.703
379.225
398.54
408.263
412.016
12.3561
4.80905
2.64978
7.33577
9.40627
-5.212
-48.0166
-99.4902
-127.661
-114.456
-71.0654
-16.683
25.6426
44.3788
47.705
45.1353
41.9144
40.0741
40.3813
42.7218
46.0844
49.4812
51.9713
53.0456
52.6797
50.6201
46.8919
41.7383
35.7332
29.6486
24.3507
20.6071
18.7706
18.6829
19.908
21.5819
23.022
23.8354
23.5163
21.1089
15.6888
6.09857
-9.09217
-31.136
-61.1426
-99.7906
-151.233
-225.812
-296.384
-315.252
-285.623
-219.234
-66.8927
140.414
283.488
350.921
387.088
404.229
412.624
415.645
13.4558
3.89929
1.50434
9.21181
15.2537
2.12575
-48.1292
-111.857
-146.974
-130.214
-79.5349
-14.4705
34.1471
52.1601
52.5208
47.2574
42.2828
39.577
39.5095
41.8983
45.8956
49.9908
53.271
54.9027
54.7552
52.6125
48.5961
42.9016
36.1396
29.1902
23.1051
18.8731
17.0405
17.3522
19.2407
21.6833
23.9419
25.4856
26.0937
24.7975
20.5977
12.2308
-2.07939
-24.3318
-55.5522
-95.3565
-148.582
-229.306
-320.362
-353.356
-325.609
-279.986
-116.388
116.508
298.037
363.426
397.684
411.66
418.217
420.357
13.7442
1.67982
-0.189745
11.3023
21.5558
9.96516
-48.352
-125.866
-168.526
-147.2
-88.9406
-11.3737
44.1372
60.53
57.3106
49.1895
42.3312
38.6713
38.3157
41.2866
45.8535
50.9246
55.2176
57.5131
57.4261
55.1458
50.7681
44.3914
36.6264
28.5612
21.493
16.6571
14.871
15.6251
18.2375
21.3482
24.2465
26.5735
28.2811
28.4506
25.5286
18.9256
6.16942
-15.5582
-47.8202
-88.446
-142.225
-225.48
-335.679
-393.885
-361.988
-347.359
-167.336
85.4197
325.83
379.985
410.656
420.852
424.996
426.008
15.2976
0.00430721
-1.55411
14.1979
28.3788
16.6388
-49.9886
-141.634
-190.006
-163.759
-95.9864
-7.94938
53.7857
68.1729
63.1261
51.3418
42.6868
38.0834
37.6392
39.9146
44.8529
50.4395
55.8479
59.8161
60.687
58.3437
53.3611
46.2358
37.4728
28.2969
20.2087
14.6181
12.1981
13.6144
16.721
20.3637
23.8377
26.7172
29.1222
30.5184
29.265
24.9227
14.5865
-5.6466
-37.897
-81.9518
-136.31
-210.703
-334.207
-483.076
-432.533
-447.215
-263.53
87.5885
371.045
400.924
425.988
431.6
432.867
432.567
9.18756
-3.75236
-1.80295
19.415
38.0254
22.4037
-55.1514
-159.706
-211.076
-176.335
-98.3373
-9.02073
59.8426
77.8396
68.3824
52.425
41.3605
35.302
33.1837
36.9058
43.1574
48.9487
56.9497
63.0621
65.1917
62.3347
56.9802
48.8907
38.9917
28.6937
19.9773
14.1124
11.8482
12.9127
16.0798
19.8831
23.4141
26.3935
29.1608
31.482
31.2047
28.061
20.1266
1.93768
-29.3053
-78.169
-136.774
-180.449
-268.566
-575.684
-444.348
-472.97
-227.625
162.519
401.934
427.515
444.643
444.656
442.49
440.651
37.1233
5.83706
5.07449
25.2453
38.6808
11.7241
-70.2178
-176.508
-227.471
-172.119
-62.9099
22.0813
57.203
66.9949
62.0562
49.5207
40.5598
35.9692
35.7316
39.2071
43.2821
48.367
56.4559
63.8683
67.5049
64.9916
59.2293
50.6443
40.175
28.8035
18.5729
11.7343
9.91872
11.8723
15.2447
19.0671
22.7742
26.2793
30.3671
32.3374
32.3695
30.4736
23.9305
10.1163
-16.74
-70.2439
-135.703
-193.834
-237.628
-182.426
-509.087
-549.626
-189.533
210.714
413.669
447.962
458.761
453.897
448.802
445.691
49.774
2.09585
1.40778
24.4065
41.5346
17.6116
-66.1111
-177.874
-244.693
-205.255
-88.7478
13.6309
62.8671
75.0111
66.9845
53.1596
41.6586
36.0912
35.0073
36.8271
39.8982
46.402
59.6241
69.24
73.6252
70.3873
61.2805
50.9169
40.0429
28.3288
17.6365
10.8887
9.46746
11.7525
14.8501
18.8087
22.8815
26.7787
31.0276
34.3617
35.3568
34.5896
29.4551
12.3435
-27.6382
-80.2163
-140.121
-199.427
-222.104
31.352
-693.982
-622.987
-159.859
248.911
427.764
454.886
462.141
455.727
449.592
446.016
29.1348
0.214071
1.49747
25.6374
45.1413
30.4394
-59.6923
-192.227
-270.855
-204.445
-87.2192
20.7478
71.8163
81.8969
71.515
54.759
41.5308
34.2038
32.1228
33.3647
36.6702
42.299
49.5303
66.8122
80.3159
76.5053
64.5964
53.0141
39.8463
27.5563
17.5217
12.0361
11.472
14.4154
17.7782
21.1582
24.4932
27.7966
31.6098
34.702
35.9153
37.3936
33.413
17.6086
-18.9174
-78.4617
-140.956
-195.897
-217.008
24.8633
-740.507
-640.051
-105.087
309.135
443.64
459.735
463.795
456.665
449.962
446.125
6.10145
-3.39615
1.12477
28.3629
56.5205
45.3241
-55.5444
-211.953
-325.599
-242.034
-100.788
23.7528
84.1981
96.2732
83.8125
58.908
39.7637
31.4828
29.4978
30.8363
34.7936
41.7453
50.7744
62.6197
71.1253
72.892
65.007
53.9605
41.6904
29.8109
20.3581
14.8054
13.5391
15.3347
18.2607
21.4234
24.858
28.297
31.9198
35.4293
37.3127
37.3805
32.1662
15.4389
-20.4807
-81.3348
-143.438
-191.996
-223.943
-109.965
-592.669
-607.121
-131.494
372.142
454.121
461.171
461.438
454.443
448.067
444.387
6.56482
-7.36453
-8.58473
25.0429
64.989
64.4177
-36.1161
-234.546
-409.475
-292.44
-139.121
15.3509
98.0072
120.589
104.475
68.067
43.1921
31.4921
27.7572
29.1659
33.2015
40.2469
49.4898
59.5496
71.1329
74.1023
66.8172
56.3253
43.5839
30.4594
20.4243
14.098
12.9391
15.1377
18.9934
24.1315
29.2519
30.8784
33.3728
36.495
38.4667
37.6269
29.8341
9.90002
-29.4826
-90.1275
-149.355
-191.234
-220.23
-110.282
-640.023
-635.701
-94.5601
352.666
453.219
459.945
461.035
454.369
448.165
444.531
31.4895
2.33542
-3.27675
25.0285
73.6185
87.1117
-16.6513
-221.051
-516.29
-336.108
-170.064
13.8342
94.8828
138.845
122.539
69.2963
41.7217
27.5604
24.0471
25.6334
30.5722
37.5027
45.9584
64.0494
79.9697
81.1397
68.8073
56.1542
42.5246
28.6888
17.9146
11.7732
11.6069
14.5539
18.2997
22.3775
25.8739
27.7382
28.9095
31.2567
34.052
34.3476
25.585
3.82853
-37.8508
-95.8773
-148.698
-185.322
-208.093
-117.623
-741.37
-558.802
19.3325
279.635
442.219
455.404
462.026
456.043
449.945
446.276
62.3099
-0.479259
-61.3047
-29.7956
99.2859
138.23
20.0899
-175.807
-384.187
-489.295
-369.866
-17.2642
120.725
180.576
163.47
78.7974
40.594
22.1986
18.7853
21.939
30.3907
43.1474
57.5551
69.1805
75.6414
72.7968
64.828
53.8263
41.9939
30.573
20.2422
13.3432
12.9513
15.6491
19.8007
25.5239
27.7232
28.0293
28.1126
27.597
26.416
22.7006
10.082
-14.8124
-54.468
-104.042
-150.42
-183.781
-206.94
-177.618
-639.826
-537.69
85.3618
234.378
426.268
447.969
458.336
454.32
449.203
445.912
31.777
-11.7063
-6.25559
52.6344
92.2244
95.8546
-54.3676
-226.88
-319.612
-248.463
-106.788
-54.1744
82.4085
149.377
113.902
66.2458
38.6819
22.7375
16.8155
19.2727
25.9251
35.6412
49.7058
64.2732
71.652
69.6214
62.0075
51.743
40.9787
31.0636
22.5188
16.5064
14.9444
16.2976
18.2963
21.0946
23.7985
25.565
26.7661
25.718
22.163
14.0241
-4.36534
-33.1393
-70.5361
-114.885
-153.111
-177.106
-194.828
-161.944
-471.353
-498.78
92.9113
229.989
424.211
442.393
454.902
452.57
448.502
445.678
7.53826
-10.1611
-5.95524
24.7377
64.2483
59.4683
-47.3912
-182.985
-256.817
-205.632
-87.4634
-32.4523
31.933
90.8501
79.9249
52.8876
33.6282
22.4528
18.6055
19.7417
24.6988
33.2753
47.0103
61.078
68.8543
68.4565
62.1607
51.4528
40.1718
29.8884
21.4654
16.2101
14.4389
16.1661
18.9209
21.543
23.0548
24.3765
26.3749
27.2054
24.4164
12.188
-10.1796
-40.3576
-77.0187
-116.832
-151.146
-176.326
-194.131
-214.056
-390.603
-483.469
-89.3114
201.687
420.067
428.649
444.142
445.018
443.194
441.447
14.9131
-0.870602
1.10279
18.1778
30.9735
17.0402
-51.0358
-135.919
-177.861
-150.458
-80.0339
-23.7033
26.1313
58.8366
56.1525
43.6617
30.4035
22.6481
20.2884
22.0653
26.5869
34.3981
45.9845
57.4373
63.9861
63.9058
58.9091
50.0582
39.96
30.5763
23.0943
18.6193
17.2843
17.7696
19.4584
21.1458
22.2124
23.2204
24.4067
23.7926
18.378
4.05757
-19.9855
-51.7714
-87.0732
-121.947
-150.22
-177.926
-212.204
-263.67
-320.63
-378.858
-224.763
102.169
391.494
403.825
427.155
432.744
433.95
433.628
12.5585
1.59039
3.16002
13.3449
17.0633
-0.201253
-46.8552
-99.7646
-126.693
-108.187
-64.395
-21.2504
15.205
37.2417
39.8884
34.6777
27.5589
22.9571
21.8453
23.9102
28.3093
35.4005
44.935
54.0522
59.4927
59.1778
54.995
47.6854
39.0001
30.8463
24.3702
20.4088
18.9876
19.2485
20.3303
21.3273
21.818
22.0639
21.8157
19.0045
10.9716
-5.52445
-30.9474
-62.3045
-95.9768
-129.338
-157.136
-184.966
-222.17
-253.659
-258.703
-260.603
-173.581
54.1031
354.569
381.722
412.216
421.954
425.839
426.775
13.0503
3.29189
2.9099
7.2922
6.18767
-9.53642
-41.9897
-76.9706
-95.0342
-83.4644
-53.1392
-20.7442
6.75517
24.0586
29.6393
28.5278
25.2447
22.9531
22.8387
25.0087
29.2458
35.7133
43.8072
51.3186
55.8028
55.9161
52.2775
45.9206
38.3157
31.0822
25.3133
21.6184
19.989
19.8125
20.306
20.7557
20.7293
20.1257
18.4007
13.6887
3.55758
-14.3003
-39.4881
-69.0034
-100.51
-130.845
-156.695
-181.994
-212.796
-233.711
-231.408
-207.176
-106.444
73.5506
313.847
364.61
399.307
412.702
418.889
420.913
11.4981
4.29722
2.84889
3.47043
-0.463892
-14.3485
-37.8665
-61.8504
-73.9059
-66.7736
-45.3983
-20.7769
0.723095
15.4046
22.3725
24.1274
23.419
22.832
23.6208
26.0051
30.021
35.8209
42.7511
49.0887
52.8173
52.9715
49.9022
44.4183
37.7624
31.3358
26.1032
22.6025
20.8117
20.2654
20.2571
20.1372
19.4067
17.7281
14.4105
7.87683
-3.79416
-22.127
-46.3445
-73.6242
-102.555
-130.329
-155.026
-176.435
-198.293
-211.205
-207.56
-164.232
-57.0631
107.926
291.026
352.809
389.321
405.769
413.706
416.574
10.5814
4.78177
2.64798
1.09773
-4.3796
-16.727
-34.8981
-52.4826
-61.1903
-55.8749
-40.1713
-20.8482
-3.10328
10.0546
17.6422
20.9396
21.8926
22.4684
23.7989
26.4146
30.4188
35.7904
41.8626
47.2897
50.6132
50.8054
48.1295
43.2758
37.3358
31.51
26.6567
23.259
21.326
20.4635
20.0543
19.5046
18.2676
15.8162
11.4225
3.78136
-8.67556
-26.6583
-49.0554
-73.7547
-99.7919
-125.299
-147.603
-165.428
-179.649
-184.769
-169.028
-121.153
-15.1741
136.668
279.08
344.926
382.373
401.048
410.276
413.835
8.88163
4.62374
2.42108
-0.354959
-6.55339
-17.7892
-32.7872
-46.6844
-53.5508
-49.4024
-36.9009
-20.7825
-5.27382
6.89669
14.6905
18.8658
20.8782
22.2483
24.0625
26.8339
30.7662
35.7966
41.3004
46.1563
49.0812
49.3047
46.8975
42.4648
36.9929
31.5527
26.9472
23.6112
21.5474
20.4299
19.7123
18.8204
17.169
14.1629
8.98611
0.588595
-12.1857
-29.6217
-50.5587
-73.6863
-98.0406
-121.843
-142.282
-157.825
-168.16
-168.3
-147.359
-91.9777
14.0191
151.728
272.201
339.409
377.669
397.819
408.048
412.039
7.46779
4.06485
2.18879
-1.05143
-7.54387
-18.2121
-31.7444
-43.9333
-49.9264
-46.3894
-35.2479
-20.6673
-6.25167
5.38453
13.2401
17.8035
20.2783
22.008
24.023
26.881
30.8002
35.672
40.9061
45.5071
48.3006
48.5449
46.2817
42.0705
36.8473
31.6115
27.1314
23.8194
21.6838
20.4318
19.5548
18.4792
16.6227
13.3814
8.01551
-0.49398
-13.1082
-30.0102
-50.2392
-72.7676
-96.3716
-119.375
-139.177
-154.023
-162.815
-160.412
-136.403
-77.9649
27.7792
158.142
269.433
336.833
375.53
396.371
407.102
411.332
6.4788
2.45404
0.764742
-0.705458
-1.86627
-2.9678
-4.55146
-6.45766
-8.3068
-9.42068
-9.41041
-8.13335
-5.84144
-2.91895
0.27296
3.57639
7.02795
10.7112
14.6681
18.8683
23.3287
27.998
32.5855
36.5547
39.1545
39.7924
38.3614
35.2452
31.0876
26.637
22.6422
19.7279
18.1706
17.8603
18.2883
18.7551
18.5384
16.9281
13.097
5.93143
-5.86135
-22.7963
-44.3185
-68.9654
-94.722
-118.88
-138.945
-154.299
-165.34
-168.394
-150.388
-97.4132
5.70235
143.279
266.286
336.892
377.607
398.696
409.372
413.449
7.45421
2.86545
0.47369
-1.02041
-1.9613
-2.83899
-4.29225
-6.2174
-8.18033
-9.43171
-9.50742
-8.26168
-5.95266
-3.01094
0.173593
3.44852
6.8843
10.5854
14.572
18.8024
23.2939
28.0171
32.71
36.829
39.5591
40.2421
38.75
35.5075
31.1955
26.5761
22.4371
19.4623
17.9307
17.7509
18.3915
19.0884
19.1165
17.7709
14.2154
7.26322
-4.56891
-22.0356
-44.6179
-70.4928
-97.5084
-122.416
-142.625
-157.928
-169.204
-175.387
-161.638
-112.427
-11.2804
134.318
269.637
340.08
380.52
400.704
410.756
414.6
8.65683
2.91034
-0.312015
-1.74134
-2.21682
-2.62078
-3.75514
-5.72597
-7.92095
-9.45907
-9.71486
-8.51647
-6.16544
-3.18086
-0.0105226
3.19743
6.59544
10.3399
14.4073
18.7156
23.2788
28.1073
32.9798
37.367
40.3361
41.1053
39.4959
36.0205
31.416
26.4671
22.0436
18.9341
17.4942
17.6157
18.6745
19.8901
20.481
19.7785
16.8979
10.3881
-1.56941
-20.2424
-44.7083
-73.0968
-103.124
-130.267
-150.732
-165.377
-176.828
-189.251
-184.379
-143.714
-46.2603
113.984
277.257
346.573
386.384
404.648
413.482
416.817
8.52718
1.92424
-1.69677
-2.86228
-2.57415
-2.1813
-2.82892
-4.89567
-7.49506
-9.48807
-10.0051
-8.84396
-6.41292
-3.35934
-0.227357
2.85603
6.17693
9.97879
14.1595
18.5395
23.1524
28.1029
33.2818
38.0949
41.4488
42.3626
40.5961
36.7999
31.7755
26.3487
21.4998
18.1901
16.9224
17.5472
19.1812
21.1159
22.5439
22.8393
21.0794
15.5572
4.03341
-15.8301
-43.0955
-75.71
-110.441
-141.796
-162.468
-175.786
-186.531
-208.117
-216.388
-188.756
-96.4364
79.1276
290.143
356.525
394.907
410.109
417.242
419.816
8.62747
0.207854
-3.85703
-4.66931
-3.30186
-1.63629
-1.51952
-3.75035
-6.94484
-9.56056
-10.3733
-9.16292
-6.55185
-3.43091
-0.398701
2.48251
5.68931
9.57149
13.8794
18.3714
23.0764
28.2426
33.8156
39.1579
42.9138
43.9633
41.9893
37.7896
32.2353
26.1626
20.72
17.2267
16.2647
17.3285
19.6053
22.4834
25.0194
26.6976
26.7071
22.8276
12.2708
-8.35478
-39.118
-76.9578
-117.677
-155.183
-176.546
-185.403
-194.571
-229.349
-251.513
-238.716
-161.656
37.6605
308.869
370.291
405.309
416.541
421.74
423.359
7.63778
-2.05727
-6.99873
-7.70648
-4.73169
-0.819113
0.429519
-2.10423
-6.16057
-9.5806
-10.6043
-9.19217
-6.37306
-3.3013
-0.492134
2.12683
5.184
9.12886
13.6632
18.2749
22.9623
28.2164
34.1976
40.2323
44.5223
45.8195
43.5777
38.8966
32.7028
25.8239
19.6588
15.8542
14.9817
16.3143
19.2019
23.0907
27.097
30.8503
33.111
31.8287
23.8055
5.49826
-25.0593
-65.5591
-112.892
-160.232
-188.695
-193.769
-201.17
-244.608
-281.088
-279.321
-252.748
18.4364
332.978
388.384
416.248
423.621
426.64
427.28
4.7783
-5.07038
-11.4433
-13.0508
-7.41158
0.403531
3.30641
0.0804541
-5.52827
-9.93678
-10.8762
-8.86719
-5.7243
-2.89738
-0.494528
1.80373
4.68511
8.63557
13.2317
17.8639
22.5723
28.0639
34.7225
41.5819
46.8131
48.2746
45.5926
40.2254
33.1343
25.2921
18.3262
14.1189
13.208
14.534
17.2582
21.2824
26.1824
31.8974
36.9648
38.4013
32.8532
17.4638
-10.3139
-50.0024
-100.124
-154.644
-192.401
-201.875
-212.253
-255.906
-294.252
-324.251
-381.478
43.5362
376.071
410.629
428.858
432.142
432.793
432.379
3.38992
-6.61212
-16.4359
-20.1071
-10.4182
2.47856
7.61301
2.6315
-5.38472
-11.156
-11.7666
-8.43288
-4.56556
-2.13406
-0.503206
1.26926
4.02019
8.11355
12.9437
17.5812
22.2312
27.9933
35.6985
44.2222
50.394
51.0374
47.7756
41.4692
33.3704
24.5113
16.6304
12.0257
11.0379
12.3985
15.2341
20.2283
25.992
32.7446
39.6225
42.9638
39.8099
27.6145
4.15123
-30.7677
-78.662
-139.64
-188.187
-204.137
-212.545
-243.803
-272.473
-410.005
-477.594
164.835
424.348
430.786
442.867
442.322
440.45
438.88
-3.2468
-6.79634
-23.9253
-35.2695
-23.0717
2.45096
12.9501
7.21356
-4.191
-13.272
-12.6658
-5.96241
-0.231797
0.988792
0.949003
1.86133
4.39926
8.11896
12.6244
16.993
21.1904
26.5635
34.7574
44.6789
52.0933
53.2546
50.2043
42.5424
33.4118
23.8091
15.2835
10.415
9.29553
10.2444
12.2227
15.3765
21.4077
28.2899
35.7481
41.6512
42.1787
33.3192
13.8706
-16.377
-59.5771
-120.925
-176.763
-205.729
-217.659
-181.045
-367.651
-582.89
-173.442
268.876
462.045
450.036
457.558
453.657
449.276
446.488
0.0624531
-1.68587
-32.3292
-57.187
-28.7297
10.7291
27.0167
18.4798
-4.22762
-20.1896
-14.2047
-3.17102
4.33905
4.11622
2.55839
2.45765
4.92547
8.93959
13.4974
17.6701
21.3273
27.0022
36.0512
48.1666
56.5756
57.7887
51.3606
41.8679
32.2197
22.1317
13.3824
8.85001
8.9187
10.9252
13.9429
18.0101
24.9179
32.6138
38.938
43.8426
43.6604
35.5091
16.9358
-15.9308
-62.7366
-125.786
-182.408
-207.594
-221.161
-137.547
-734.097
-656.763
-4.12891
280.709
459.862
458.275
464.878
459.361
453.584
450.047
71.0087
20.0776
-31.5323
-90.2052
-86.84
6.24437
34.2563
13.6891
-1.58096
-12.9818
-11.1415
2.38818
11.4786
7.69747
2.52083
1.27514
4.49121
9.70488
15.0563
19.5792
23.5039
29.7641
39.0723
50.5987
58.09
57.8107
50.5282
40.1844
30.2052
20.0844
11.6035
6.94908
7.51934
10.6929
13.6424
19.0173
27.8439
36.6537
45.2096
51.457
53.3399
47.4272
29.5525
-1.42637
-50.9797
-120.016
-182.821
-217.681
-223.757
-141.829
-887.388
-437.293
128.288
259.539
431.223
453.213
462.895
458.34
452.713
449.125
-2.15143
-7.68144
-23.819
-58.8828
-56.7632
14.6387
66.715
92.5983
0.744474
-39.5723
-24.0315
7.52417
23.0428
16.986
10.0884
7.96766
9.73199
13.7032
18.3274
21.3833
24.6895
31.3945
40.8839
49.7524
55.0539
54.8206
48.736
39.5926
29.1363
18.9389
11.0518
7.88504
9.25139
12.4457
15.6162
22.2114
31.4665
40.1044
48.6392
54.5366
54.9739
49.1843
32.0031
2.83215
-44.7411
-113.584
-176.401
-214.568
-180.377
-59.8583
-819.072
-412.953
154.483
251.217
406.178
450.525
462.497
458.188
452.506
448.84
64.3416
33.0309
-41.3072
-126.863
-78.7362
-18.0094
-3.24947
-8.23935
-43.0196
-44.509
-15.3199
34.2578
53.8302
33.5765
15.6494
8.65785
7.47663
10.7107
14.9233
19.4523
23.6621
31.9015
43.6111
52.6385
56.9688
55.7172
49.3898
39.8012
28.7219
18.1379
10.3941
7.39901
8.85267
12.3677
16.1978
23.0833
32.2637
41.6333
50.6582
55.6827
53.7674
46.3475
30.0592
4.93513
-38.1189
-106.87
-172.067
-218.637
-189.464
-29.071
-804.524
-422.45
137.012
249.934
401.597
450.396
462.646
457.975
452.165
448.469
20.6935
5.01107
-26.082
-40.5484
-34.7349
-34.4504
-40.517
-47.2182
-50.6312
-29.9947
9.4251
43.0236
39.455
26.116
16.3317
10.3911
8.86714
10.817
14.6319
18.5702
23.3643
33.1944
46.1491
55.4279
58.9065
56.4351
48.1575
39.3711
28.2175
17.0933
9.27894
6.44046
8.13472
11.8748
15.7517
22.1167
30.3912
38.115
46.1113
50.894
49.2955
41.1955
26.0555
2.63303
-36.8453
-99.3082
-168.434
-216.923
-247.591
-222.938
-806.192
-318.15
10.2799
254.029
405.892
452.565
462.304
456.854
451.033
447.444
-4.45394
-4.65306
-22.9185
-34.8492
-20.4087
-18.7693
-38.3885
-53.2687
-50.4205
-27.1104
6.74258
37.377
41.9355
29.2166
15.7709
8.65801
7.38617
9.90266
13.9156
17.8022
21.4776
29.676
42.6127
54.426
60.5265
56.897
50.7497
40.4338
28.0554
16.2493
8.48943
5.44027
6.98626
10.4676
13.9795
20.4931
27.9184
34.7184
42.1866
45.3107
42.4986
35.2967
21.705
-1.69548
-41.2329
-99.5024
-167.92
-215.315
-238.076
-240.47
-669.872
-333.576
-116.446
263.693
400.631
452.318
458.714
453.465
448.241
445.044
-25.2593
-18.7627
-20.6844
-21.0176
-13.8924
-20.8767
-37.0058
-47.6316
-44.544
-26.7901
0.587401
24.3982
29.2259
23.1165
15.1567
10.5266
9.68286
11.7787
15.3955
19.3514
23.2742
29.5368
39.7419
50.2635
55.0509
53.7777
48.6973
40.4863
29.0439
18.8191
12.4421
10.0264
10.2051
12.9329
16.6235
21.1617
26.0307
31.3782
38.7154
41.7729
37.9564
27.9739
8.87483
-23.2141
-70.0047
-129.366
-189.024
-212.983
-237.699
-213.159
-395.795
-375.164
-208.202
247.101
394.644
439.88
448.12
445.704
442.445
440.165
-35.6624
-21.456
-14.8944
-9.62929
-7.42659
-19.2951
-36.5441
-45.0819
-41.0762
-25.6938
-4.30659
14.9727
21.6891
18.8707
13.8869
11.1022
11.1158
13.3378
16.9754
21.2107
25.6514
31.059
38.4864
46.9909
50.9616
50.55
46.8681
39.3067
27.9762
17.7011
11.4378
9.0164
8.83117
11.0907
14.1804
18.7722
24.3712
30.5205
38.0638
39.978
32.9956
19.4307
-3.47111
-36.4505
-80.6515
-133.989
-173.327
-195.753
-233.508
-283.842
-372.336
-408.501
-321.249
105.181
373.318
428.751
442.428
442.062
440.139
438.459
-0.287137
-3.73365
-5.38756
-6.21241
-8.24798
-17.4911
-30.7404
-39.7246
-39.6529
-29.0208
-11.9713
5.03917
13.8488
15.2707
13.9735
13.247
13.9855
16.4026
19.888
23.6836
28.5809
34.3065
40.9358
47.2742
50.1075
48.9237
44.681
36.9342
26.8896
17.6664
12.1198
10.5933
11.3618
14.678
18.9835
23.756
29.817
34.8211
38.9482
38.4856
30.1409
13.7532
-12.2671
-49.3655
-98.3012
-148.642
-184.007
-204.314
-229.718
-287.177
-286.897
-296.159
-239.115
43.5853
356.327
403.718
431.107
435.622
436.152
435.48
1.93393
-4.17138
-5.14907
-5.66682
-8.42337
-15.8787
-25.7263
-33.2025
-33.9266
-27.0095
-14.2644
0.525082
8.10149
12.2862
13.719
14.6283
15.9569
18.5593
21.9462
25.7949
30.2017
35.1599
40.54
45.1703
47.19
46.2388
42.4617
35.7204
27.3739
19.7847
14.8616
12.9581
13.1599
15.5097
19.1923
23.4216
28.2087
32.3254
34.5747
31.6974
21.8377
3.6433
-26.4854
-64.9272
-109.18
-149.462
-178.33
-198.56
-220.972
-243.776
-243.005
-221.594
-147.536
40.6269
318.943
378.781
413.063
423.188
427.048
427.881
6.06448
0.192168
-2.76226
-4.70147
-8.09577
-14.6771
-23.1025
-29.8908
-31.5157
-26.6444
-16.4791
-4.43635
4.44969
10.2249
13.5239
15.735
17.7274
20.4908
23.8255
27.5197
31.5409
35.8085
40.1061
43.4693
44.7704
43.7694
40.3849
34.7545
27.9502
21.7236
17.5149
15.6899
16.0398
18.0299
21.001
24.2267
27.1589
29.133
29.1238
24.5258
13.5093
-5.75902
-34.7931
-70.3946
-110.659
-150.42
-178.099
-193.671
-209.3
-218.495
-212.938
-184.512
-101.737
73.9499
293.963
361.237
398.85
413.039
419.52
421.575
7.31175
1.58865
-1.47809
-3.97596
-7.72804
-13.8854
-21.515
-27.791
-29.7872
-26.0241
-17.3926
-6.8323
2.33155
8.96347
13.3346
16.3747
18.9592
21.7732
24.9077
28.4736
32.2193
36.0379
39.6176
42.2172
43.0944
41.9721
38.8106
33.8797
28.0973
22.7784
18.9918
17.0851
16.936
18.2377
20.3231
22.6518
24.6417
25.3643
23.692
17.806
5.97187
-13.5811
-40.9575
-72.7874
-107.581
-141.387
-167.082
-181.953
-194.566
-203.04
-186.945
-144.879
-53.5811
107.064
279.409
349.018
387.805
405.336
413.701
416.671
7.803
2.70153
-0.599432
-3.44705
-7.45499
-13.4446
-20.6402
-26.6049
-28.8149
-25.7648
-18.1576
-8.31235
0.967695
8.13259
13.1763
16.7615
19.6888
22.5707
25.6548
29.0252
32.5909
36.0532
39.1793
41.3351
41.9428
40.7453
37.7545
33.3163
28.2241
23.5162
20.0304
18.1239
17.7333
18.5863
20.1029
21.6923
22.7793
22.5555
19.8941
13.2706
1.11263
-18.0719
-43.7452
-72.9516
-103.995
-133.319
-155.2
-167.862
-175.69
-174.024
-156.374
-108.379
-13.424
132.945
270.897
340.577
379.966
399.749
409.474
413.186
6.71492
2.66719
-0.0636956
-2.99804
-7.23151
-13.1389
-20.1169
-25.8856
-28.184
-25.502
-18.4442
-9.01306
0.180648
7.63477
13.0747
17.0001
20.1462
23.0814
26.0619
29.3981
32.7821
36.0946
38.9539
40.8334
41.2589
40.0024
37.1187
32.984
28.3103
23.9606
20.6411
18.6999
18.1163
18.668
19.8491
21.0294
21.5813
20.6931
17.3044
10.1431
-2.16554
-20.813
-44.9967
-72.3944
-100.876
-127.449
-147.217
-158.556
-163.867
-161.03
-136.566
-83.6085
14.2776
146.947
265.786
335.033
374.9
396.046
406.769
410.921
5.70874
2.24101
0.110819
-2.84203
-7.1649
-13.0344
-19.9154
-25.6029
-27.9415
-25.4465
-18.6484
-9.38989
-0.217363
7.34062
12.9438
17.0034
20.2869
23.2872
26.3127
29.5413
32.8461
36.0476
38.7773
40.5402
40.8966
39.6281
36.8105
32.8291
28.3522
24.1647
20.9192
18.9653
18.3129
18.7066
19.6874
20.6642
20.9837
19.8294
16.1683
8.80413
-3.52623
-21.782
-45.0058
-71.2381
-98.6692
-124.153
-143.129
-153.862
-157.886
-152.68
-126.859
-71.6491
26.1344
153.081
263.421
332.346
372.496
394.263
405.475
409.881
7.32287
4.18672
2.7275
0.105825
-6.31452
-17.2291
-31.1989
-43.8217
-50.1942
-46.7939
-35.7257
-21.3505
-7.17775
4.34544
12.1712
16.6669
19.0513
20.7417
22.7787
25.7583
29.9252
35.2103
40.995
46.2011
49.3882
49.6878
47.1729
42.4934
36.7427
31.062
26.3068
22.9377
20.9114
19.8615
19.1981
18.2767
16.461
13.0752
7.30326
-1.952
-15.8344
-34.4649
-56.4332
-80.556
-105.397
-129.151
-148.387
-161.848
-170.728
-170.792
-150.468
-93.3893
19.2521
164.365
286.479
354.484
391.528
410.312
419.495
422.962
8.18922
4.93168
3.45146
1.06625
-5.20117
-16.1143
-30.1717
-42.9137
-49.5151
-46.436
-35.7563
-21.9284
-8.26462
3.00876
10.7737
15.2433
17.6412
19.3709
21.4845
24.6114
29.0339
34.7098
41.0819
46.8813
50.4538
50.8149
48.0588
42.9053
36.6297
30.544
25.6126
22.3915
20.5392
19.7627
19.3255
18.513
16.6236
12.8412
6.32898
-4.10247
-19.512
-39.7792
-63.2355
-88.4348
-114.132
-137.999
-156.052
-167.476
-175.881
-178.204
-162.253
-106.826
13.033
174.008
306.269
373.329
407.805
424.147
431.618
434.239
7.2668
4.79069
3.7446
1.82456
-4.18154
-14.8707
-28.6907
-41.259
-47.8931
-45.3288
-35.3532
-22.3382
-9.39783
1.47778
9.14379
13.5921
16.0573
17.8925
20.1156
23.3709
28.0146
34.0351
40.9116
47.2528
51.1819
51.6035
48.5959
42.9177
36.0584
29.4768
24.2106
20.6245
18.8426
18.0541
17.7457
16.9492
14.7957
10.6217
3.49887
-7.68397
-23.9584
-44.9325
-68.7956
-93.8516
-119.082
-142.042
-158.561
-168.479
-176.752
-182.835
-173.213
-119.612
9.83549
187.46
328.832
393.052
423.838
437.294
443.154
444.893
7.24164
4.65094
3.88454
2.23167
-3.3631
-13.5177
-26.7148
-38.8497
-45.4082
-43.5004
-34.6018
-22.6041
-10.5767
-0.201626
7.21418
11.6977
14.3066
16.3034
18.6814
22.078
26.9097
33.2514
40.587
47.443
51.637
52.2034
49.0329
42.8938
35.6215
28.8273
23.6416
20.4714
19.0851
18.7946
18.9149
18.4556
16.3173
11.6992
3.77288
-8.16042
-24.8486
-45.6462
-68.926
-93.8372
-119.054
-141.336
-155.645
-164.085
-175.069
-188.933
-185.94
-132.699
10.3638
203.538
353.626
413.189
438.356
449.582
453.652
454.544
5.56022
3.97551
3.65797
2.35649
-2.56322
-11.8484
-24.0717
-35.5188
-42.0802
-41.0158
-33.4801
-22.7377
-11.7533
-2.09512
5.11726
9.73059
12.5904
14.833
17.3782
20.8592
25.8536
32.4427
40.1676
47.4702
51.9995
52.6041
49.1868
42.8201
35.2976
28.3029
22.8617
19.4547
17.858
17.5021
17.5721
17.0287
14.7916
10.0944
2.43255
-9.10949
-25.0386
-45.1294
-67.791
-92.3472
-117.909
-141.814
-158.294
-167.461
-183.25
-202.348
-201.755
-145.967
14.6326
220.343
378.127
429.874
451.953
459.977
462.368
462.498
6.25757
3.63609
3.28289
1.93681
-2.20508
-10.3614
-21.1786
-31.6291
-37.8819
-37.6568
-31.6717
-22.4407
-12.6462
-3.75918
3.20041
7.92532
11.0548
13.6
16.3269
19.872
24.9819
31.6895
39.5629
46.9626
51.6275
52.347
48.9561
42.5455
34.9679
27.8955
22.4623
19.1041
17.7323
17.5057
17.6172
16.9711
14.6151
9.98094
2.55017
-8.73287
-24.3899
-44.1255
-66.8312
-91.5926
-116.681
-140.228
-157.064
-161.019
-171.387
-199.917
-204.777
-146.368
21.7859
233.277
395.116
440.649
461.005
467.099
468.357
467.945
3.01962
2.606
2.69958
1.61627
-1.98764
-8.96248
-18.3602
-27.3713
-33.3519
-33.8465
-29.2543
-21.5867
-13.0516
-5.02022
1.58591
6.35358
9.73118
12.5387
15.513
19.3392
24.4507
31.1995
39.0849
46.3956
50.9457
51.606
48.3898
42.1139
34.6514
27.5227
21.9289
18.4417
17.0738
16.9167
17.2181
16.8929
14.7725
10.3162
2.92435
-8.37272
-24.1964
-43.8138
-65.9749
-89.6358
-114.298
-137.612
-154.784
-169.457
-200.391
-221.512
-212.443
-150.291
20.6942
241.633
406.686
446.433
465.59
470.686
471.376
470.696
4.07429
2.69293
2.50124
1.5165
-1.69372
-7.54824
-15.5553
-23.4909
-29.1056
-30.3376
-26.8822
-20.6311
-13.2965
-6.07545
0.119884
4.81011
8.3497
11.4428
14.7172
18.7545
23.9683
30.6763
38.4286
45.6212
50.2008
50.7495
47.414
41.2242
33.7892
26.6329
21.0173
17.4837
16.0957
16.2139
16.6403
16.2641
14.2502
9.9122
2.75912
-8.3019
-23.9139
-43.7683
-66.7359
-90.6114
-114.585
-136.096
-148.078
-155.714
-178.438
-207.157
-204.238
-143.782
16.838
235.482
404.234
444.096
464.674
470.242
471.095
470.471
3.61004
2.39924
2.08563
1.14183
-1.60921
-6.4434
-13.1089
-19.846
-24.7472
-25.8764
-23.7479
-18.983
-12.8475
-6.49217
-0.824478
3.74396
7.43892
10.7945
14.3213
18.475
23.7238
30.2985
37.7576
44.609
49.0784
49.7483
46.4948
40.5353
33.4438
26.4953
20.884
17.3342
15.9783
16.1429
16.7701
16.7008
14.9311
10.6005
3.19305
-8.30186
-24.7358
-45.1869
-67.9411
-91.014
-114.712
-138.152
-156.051
-172.105
-192.877
-209.232
-201.891
-143.481
8.2007
221.4
392.23
437.066
459.651
466.564
468.066
467.747
5.22025
2.81669
1.90789
0.849386
-1.58554
-5.53655
-11.0569
-16.7363
-21.0759
-22.585
-21.215
-17.5041
-12.3432
-6.75578
-1.58811
2.7671
6.44987
9.99682
13.8763
18.2645
23.5506
29.9448
37.0352
43.4575
47.6804
48.3251
45.306
39.6901
32.8821
26.1258
20.5259
16.9096
15.5575
15.7731
16.498
16.5341
14.9977
10.9665
3.78492
-7.69682
-24.2741
-44.8423
-67.64
-91.6126
-116.049
-139.696
-158.131
-174.491
-196.983
-211.702
-202.268
-144.805
-0.537409
205.086
376.112
426.39
451.674
460.288
462.769
462.923
5.04434
2.48705
1.60834
0.570098
-1.47006
-4.60269
-9.04502
-13.7742
-17.6227
-19.3428
-18.6495
-15.8086
-11.5132
-6.61033
-1.87197
2.32868
6.14437
9.92166
13.9903
18.4736
23.6553
29.7268
36.3732
42.4423
46.1921
46.8197
44.1072
38.9994
32.7278
26.3607
20.9574
17.3315
15.8151
16.0213
17.0637
17.672
16.7918
13.6203
7.38209
-3.09009
-19.1369
-40.0112
-63.7361
-88.8116
-114.369
-138.364
-157.549
-175.309
-199.455
-213.264
-200.998
-145.066
-8.8018
187.55