/*--------------------------------*- C++ -*----------------------------------*\
| =========                 |                                                 |
| \\      /  F ield         | OpenFOAM: The Open Source CFD Toolbox           |
|  \\    /   O peration     | Version:  2.1.1                                 |
|   \\  /    A nd           | Web:      www.OpenFOAM.org                      |
|    \\/     M anipulation  |                                                 |
\*---------------------------------------------------------------------------*/
FoamFile
{
    version     2.0;
    format      ascii;
    class       volScalarField;
    location    "0.0012";
    object      p_rgh;
}
// * * * * * * * * * * * * * * * * * * * * * * * * * * * * * * * * * * * * * //

dimensions      [1 -1 -2 0 0 0 0];

internalField   nonuniform List<scalar> 
36520
(
8.34437
4.19654
3.73892
3.9151
-0.546837
-16.5162
-46.8616
-78.9628
-96.0362
-87.0731
-57.3426
-19.8281
12.1931
31.1774
39.1608
41.0748
40.7535
40.4171
41.1186
42.9182
45.3717
47.8016
49.6212
50.3884
49.8442
47.8526
44.5015
40.0995
35.1283
30.176
25.8644
22.6757
20.8095
20.1704
20.3904
20.9447
21.2465
20.7462
18.8036
14.6406
7.41096
-3.75758
-19.5376
-40.465
-67.381
-101.046
-142.531
-189.268
-224.956
-229.947
-194.647
-108.269
25.9333
162.236
266.983
332.772
371.664
392.879
404.002
408.426
9.50656
4.65419
3.67552
4.52551
1.13379
-14.7307
-47.2024
-82.561
-101.458
-91.9017
-59.6946
-19.2993
14.4939
33.5037
40.7487
41.9317
41.0608
40.4697
41.1097
42.9978
45.5759
48.1131
50.0093
50.832
50.3114
48.3073
44.896
40.3796
35.2529
30.1273
25.6637
22.3924
20.5294
19.989
20.3421
21.0608
21.5402
21.2397
19.5277
15.6122
8.64987
-2.25488
-17.9232
-39.012
-66.4576
-100.878
-144.092
-196.242
-237.97
-245.509
-212.119
-127.19
12.9588
159.851
269.432
335.718
374.144
394.761
405.419
409.613
11.4083
5.17649
3.38421
5.7607
4.51838
-10.9606
-47.6926
-89.5557
-112.196
-101.455
-64.305
-18.2285
19.0325
38.0113
43.658
43.184
41.38
40.2608
40.7111
42.74
45.6961
48.4985
50.7425
51.6991
51.2401
49.2193
45.6882
40.9283
35.4675
29.9784
25.1969
21.7322
19.8606
19.5065
20.2125
21.3133
22.2261
22.4094
21.2942
18.0396
11.7112
1.34193
-14.1117
-35.5273
-63.9321
-100.124
-147.298
-210.539
-264.518
-277.077
-244.995
-165.521
-21.8455
153.637
274.645
341.74
379.262
398.577
408.3
412.053
12.3931
4.84602
2.68675
7.37274
9.44324
-5.17502
-47.9796
-99.4532
-127.624
-114.419
-71.0285
-16.646
25.6796
44.4158
47.7419
45.1722
41.9513
40.1111
40.4183
42.7588
46.1214
49.5181
52.0083
53.0825
52.7167
50.6571
46.9289
41.7753
35.7702
29.6856
24.3877
20.644
18.8076
18.7199
19.945
21.6189
23.059
23.8723
23.5533
21.1459
15.7257
6.13555
-9.05519
-31.099
-61.1056
-99.7535
-151.196
-225.773
-296.341
-315.207
-285.581
-219.196
-66.8557
140.451
283.525
350.958
387.125
404.266
412.661
415.682
13.493
3.93644
1.54149
9.24896
15.2909
2.1629
-48.0921
-111.82
-146.936
-130.177
-79.4977
-14.4334
34.1843
52.1973
52.558
47.2946
42.3199
39.6141
39.5467
41.9355
45.9327
50.028
53.3081
54.9398
54.7923
52.6497
48.6333
42.9387
36.1768
29.2274
23.1423
18.9102
17.0777
17.3894
19.2779
21.7205
23.9791
25.5228
26.1309
24.8346
20.6349
12.268
-2.04221
-24.2946
-55.515
-95.319
-148.543
-229.264
-320.309
-353.292
-325.55
-279.94
-116.35
116.545
298.074
363.463
397.721
411.697
418.254
420.394
13.7816
1.71719
-0.152375
11.3397
21.5931
10.0025
-48.3146
-125.829
-168.489
-147.163
-88.9032
-11.3364
44.1746
60.5674
57.348
49.2269
42.3686
38.7087
38.3531
41.324
45.8909
50.962
55.255
57.5506
57.4635
55.1833
50.8056
44.4289
36.664
28.5988
21.5307
16.6948
14.9086
15.6628
18.2752
21.3859
24.2842
26.6112
28.3188
28.4883
25.5663
18.9634
6.20729
-15.5201
-47.7816
-88.4062
-142.181
-225.421
-335.565
-393.649
-361.701
-347.114
-167.222
85.4609
325.867
380.023
410.694
420.889
425.034
426.046
15.3352
0.0419667
-1.51645
14.2356
28.4165
16.6765
-49.9509
-141.596
-189.969
-163.721
-95.9487
-7.91171
53.8234
68.2106
63.1638
51.3795
42.7245
38.1212
37.677
39.9524
44.8907
50.4773
55.8858
59.854
60.725
58.3817
53.3992
46.2741
37.5112
28.3354
20.2473
14.6567
12.2367
13.6531
16.7596
20.4022
23.8763
26.7558
29.1608
30.557
29.3039
24.9625
14.628
-5.60325
-37.8513
-81.9004
-136.244
-210.577
-333.692
-481.521
-429.956
-444.957
-262.72
87.6648
371.083
400.961
426.026
431.638
432.905
432.604
9.22565
-3.71427
-1.76485
19.4531
38.0636
22.4419
-55.1129
-159.667
-211.037
-176.295
-98.2978
-8.98225
59.8809
77.8779
68.4207
52.4635
41.399
35.3405
33.2223
36.9445
43.1962
48.9875
56.9885
63.101
65.2307
62.3738
57.0195
48.9302
39.0314
28.7338
20.0177
14.1533
11.8903
12.9564
16.124
19.927
23.4571
26.436
29.2033
31.5244
31.2466
28.1021
20.1674
1.97973
-29.2607
-78.1231
-136.727
-180.394
-268.42
-572.501
-431.231
-462.574
-225.275
162.643
401.972
427.553
444.682
444.694
442.528
440.689
37.1612
5.87498
5.11241
25.2832
38.7191
11.765
-70.1686
-176.438
-227.38
-172.037
-62.8547
22.1244
57.2439
67.0354
62.0968
49.5615
40.6005
36.0092
35.7713
39.2468
43.3219
48.4069
56.4959
63.9083
67.5452
65.0323
59.2706
50.6866
40.2187
28.8489
18.6203
11.7837
9.97013
11.926
15.3008
19.1258
22.8353
26.342
30.4306
32.4013
32.4329
30.5335
23.9822
10.1599
-16.6978
-70.2017
-135.66
-193.792
-237.562
-179.839
-488.731
-532.343
-185.736
210.903
413.707
448
458.799
453.935
448.84
445.729
49.8112
2.13307
1.445
24.4438
41.5721
17.6509
-66.0679
-177.824
-244.634
-205.188
-88.6862
13.6793
62.9108
75.0548
67.0291
53.2057
41.7056
36.1382
35.0542
36.8733
39.9426
46.4439
59.6645
69.2804
73.6661
70.4293
61.3241
50.9624
40.0908
28.3801
17.6918
10.9474
9.52817
11.8141
14.9126
18.872
22.9455
26.8431
31.0924
34.4268
35.4202
34.6484
29.5094
12.3969
-27.5845
-80.1631
-140.073
-199.385
-222.025
34.2007
-676.342
-608.939
-156.852
249.069
427.802
454.923
462.178
455.764
449.63
446.053
29.1717
0.250915
1.53431
25.6743
45.1782
30.4767
-59.6525
-192.173
-270.763
-204.337
-87.1344
20.7954
71.8539
81.9343
71.5526
54.7974
41.5703
34.244
32.1634
33.4052
36.7101
42.3383
49.5695
66.8521
80.3568
76.5462
64.6375
53.0573
39.8909
27.6007
17.5658
12.0802
11.5163
14.4601
17.8236
21.2046
24.5403
27.8438
31.6572
34.7495
35.9621
37.4379
33.4553
17.6509
-18.8747
-78.4189
-140.915
-195.857
-216.936
27.9356
-720.974
-625.141
-102.309
309.255
443.677
459.772
463.832
456.702
449.999
446.161
6.13786
-3.35975
1.16118
28.3993
56.5569
45.3605
-55.508
-211.915
-325.53
-241.958
-100.735
23.7897
84.2348
96.3101
83.8496
58.9452
39.8011
31.5204
29.5358
30.8743
34.8314
41.7833
50.8149
62.6608
71.1651
72.9302
65.0452
54.0034
41.741
29.8592
20.4004
14.845
13.5783
15.3754
18.3163
21.4823
24.9162
28.3433
31.9617
35.4716
37.3558
37.4229
32.207
15.4786
-20.4406
-81.2941
-143.398
-191.956
-223.887
-107.804
-570.815
-584.255
-125.384
372.417
454.158
461.208
461.474
454.479
448.103
444.424
6.60123
-7.3281
-8.54827
25.0794
65.0257
64.455
-36.0741
-234.475
-409.271
-292.002
-138.72
15.5357
98.0597
120.626
104.512
68.1037
43.2289
31.5289
27.7939
29.2027
33.2385
40.2842
49.5289
59.5907
71.1736
74.1405
66.8554
56.3637
43.6256
30.5147
20.4811
14.1442
12.9788
15.1764
19.0322
24.173
29.3073
30.9364
33.4241
36.5357
38.5056
37.6659
29.8749
9.95227
-29.4317
-90.0854
-149.316
-191.195
-220.173
-108.243
-619.191
-614.202
-88.5065
352.953
453.256
459.982
461.071
454.406
448.201
444.567
31.5263
2.37226
-3.2395
25.0662
73.6565
87.1499
-16.6101
-220.967
-515.902
-334.699
-168.331
14.8697
95.1133
138.89
122.576
69.3337
41.7597
27.6
24.0878
25.6741
30.6127
37.5426
45.9973
64.088
80.0082
81.1784
68.8465
56.1943
42.5658
28.7317
17.9587
11.8173
11.6511
14.5984
18.3445
22.4227
25.9198
27.7853
28.9566
31.3033
34.0968
34.3909
25.629
3.87655
-37.8022
-95.8305
-148.657
-185.281
-207.927
-111.97
-724.968
-548.998
20.8738
279.707
442.256
455.441
462.063
456.08
449.982
446.312
62.3471
-0.442056
-61.2482
-29.7126
99.3548
138.274
20.1357
-175.735
-383.933
-488.276
-367.708
-15.5051
121.308
180.648
163.51
78.8381
40.6354
22.2399
18.8258
21.9789
30.4306
43.1872
57.5941
69.2185
75.6793
72.8349
64.8693
53.8786
42.0474
30.6265
20.2903
13.387
12.9925
15.6892
19.841
25.5676
27.7772
28.0945
28.1731
27.6456
26.4622
22.7475
10.1304
-14.7626
-54.4187
-103.996
-150.379
-183.739
-206.696
-169.92
-625.317
-530.997
86.0536
234.423
426.305
448.007
458.373
454.357
449.24
445.949
31.8149
-11.6685
-6.21339
52.6732
92.2626
95.8934
-54.3216
-226.774
-319.207
-247.731
-106.22
-53.9565
82.4723
149.418
113.941
66.2857
38.7222
22.7782
16.8571
19.3147
25.9668
35.6816
49.7451
64.3123
71.6929
69.6757
62.0639
51.7993
41.0284
31.107
22.5629
16.5514
14.9929
16.3759
18.3911
21.1629
23.846
25.6097
26.8111
25.7637
22.2114
14.0734
-4.31595
-33.0899
-70.4885
-114.842
-153.071
-177.064
-194.593
-153.185
-453.914
-490.691
93.7217
230.036
424.249
442.431
454.94
452.607
448.54
445.716
7.57626
-10.1231
-5.91724
24.7757
64.2863
59.5065
-47.3518
-182.94
-256.762
-205.577
-87.418
-32.413
31.9712
90.8883
79.9633
52.9261
33.6669
22.4915
18.6442
19.7803
24.7373
33.3138
47.0495
61.1193
68.8963
68.4985
62.2021
51.4931
40.2111
29.9282
21.5095
16.2625
14.4931
16.2203
18.9729
21.5878
23.0943
24.4154
26.4142
27.2459
24.4576
12.2291
-10.1383
-40.3157
-76.9768
-116.791
-151.106
-176.28
-193.822
-209.664
-381.388
-477.472
-88.1389
201.757
420.105
428.687
444.18
445.056
443.232
441.485
14.9505
-0.833152
1.14024
18.2152
31.0109
17.0777
-50.9984
-135.882
-177.824
-150.421
-79.9964
-23.6659
26.1688
58.874
56.19
43.6991
30.4409
22.6856
20.3259
22.1027
26.6244
34.4357
46.0223
57.4751
64.0237
63.9434
58.9467
50.0959
39.9978
30.6143
23.1324
18.6573
17.3224
17.8075
19.4963
21.1836
22.2501
23.2582
24.4446
23.8306
18.4161
4.09586
-19.9469
-51.7324
-87.034
-121.907
-150.176
-177.837
-211.8
-262.477
-318.506
-376.843
-224.004
102.242
391.532
403.863
427.192
432.781
433.987
433.665
12.5955
1.62739
3.19701
13.3819
17.1003
-0.164263
-46.8182
-99.7276
-126.656
-108.15
-64.3581
-21.2134
15.2419
37.2787
39.9254
34.7147
27.5958
22.9941
21.8823
23.9472
28.3463
35.4375
44.972
54.0892
59.5297
59.2147
55.032
47.7224
39.0371
30.8832
24.4072
20.4458
19.0246
19.2855
20.3673
21.3643
21.8549
22.1009
21.8527
19.0415
11.0086
-5.48746
-30.9104
-62.2674
-95.9394
-129.3
-157.097
-184.923
-222.104
-253.504
-258.433
-260.283
-173.368
54.1546
354.606
381.759
412.253
421.991
425.876
426.812
13.0869
3.32848
2.9465
7.32879
6.22427
-9.49982
-41.9531
-76.934
-94.9976
-83.4279
-53.1026
-20.7076
6.79176
24.0952
29.6759
28.5644
25.2813
22.9897
22.8753
25.0453
29.2823
35.7499
43.8437
51.3552
55.8393
55.9527
52.3141
45.9572
38.3523
31.1188
25.3499
21.655
20.0256
19.8491
20.3426
20.7923
20.7658
20.1623
18.4373
13.7253
3.59417
-14.2637
-39.4515
-68.9668
-100.473
-130.808
-156.658
-181.958
-212.759
-233.671
-231.362
-207.127
-106.396
73.5884
313.883
364.647
399.344
412.738
418.925
420.95
11.5346
4.33365
2.88532
3.50686
-0.427462
-14.3121
-37.83
-61.814
-73.8694
-66.7372
-45.3619
-20.7404
0.759524
15.441
22.409
24.1638
23.4555
22.8684
23.6572
26.0415
30.0574
35.8573
42.7876
49.1251
52.8537
53.008
49.9386
44.4547
37.7988
31.3722
26.1396
22.6389
20.8481
20.3018
20.2936
20.1736
19.4431
17.7646
14.4469
7.91325
-3.75773
-22.0906
-46.3081
-73.5878
-102.519
-130.292
-154.99
-176.399
-198.257
-211.168
-207.524
-164.195
-57.0266
107.962
291.062
352.846
389.357
405.806
413.742
416.61
10.6179
4.81828
2.68449
1.13424
-4.34309
-16.6904
-34.8616
-52.446
-61.1538
-55.8384
-40.1348
-20.8117
-3.06677
10.0911
17.6787
20.9761
21.9291
22.5049
23.8354
26.4511
30.4553
35.8269
41.8991
47.3262
50.6497
50.842
48.166
43.3123
37.3723
31.5465
26.6932
23.2955
21.3626
20.5
20.0908
19.5411
18.3041
15.8527
11.459
3.81787
-8.63905
-26.6217
-49.0188
-73.7182
-99.7554
-125.262
-147.567
-165.391
-179.612
-184.732
-168.991
-121.117
-15.1376
136.705
279.117
344.962
382.41
401.085
410.313
413.871
8.91826
4.66037
2.45771
-0.318329
-6.51676
-17.7525
-32.7506
-46.6477
-53.5142
-49.3658
-36.8643
-20.7458
-5.23719
6.93332
14.7271
18.9024
20.9148
22.285
24.0992
26.8705
30.8029
35.8332
41.337
46.1929
49.1178
49.3413
46.9342
42.5014
37.0295
31.5893
26.9839
23.6478
21.584
20.4665
19.7489
18.8571
17.2057
14.1995
9.02274
0.625223
-12.149
-29.5851
-50.5221
-73.6496
-98.004
-121.806
-142.245
-157.788
-168.123
-168.264
-147.323
-91.941
14.0557
151.764
272.237
339.445
377.705
397.855
408.085
412.076
7.50454
4.10159
2.22553
-1.01469
-7.50713
-18.1754
-31.7077
-43.8965
-49.8897
-46.3526
-35.2112
-20.6305
-6.21493
5.42127
13.2768
17.8403
20.3151
22.0447
24.0597
26.9177
30.837
35.7087
40.9429
45.5438
48.3373
48.5817
46.3184
42.1072
36.884
31.6483
27.1681
23.8561
21.7205
20.4685
19.5915
18.5159
16.6595
13.4182
8.05225
-0.45724
-13.0714
-29.9734
-50.2025
-72.7308
-96.3349
-119.338
-139.14
-153.986
-162.778
-160.375
-136.366
-77.9282
27.8159
158.178
269.469
336.869
375.567
396.407
407.138
411.369
6.55974
2.53497
0.845679
-0.624522
-1.78534
-2.88687
-4.47052
-6.37672
-8.22587
-9.33975
-9.32947
-8.05241
-5.76051
-2.83802
0.353897
3.65733
7.10889
10.7921
14.7491
18.9493
23.4096
28.079
32.6664
36.6357
39.2354
39.8734
38.4423
35.3262
31.1685
26.7179
22.7231
19.8089
18.2515
17.9412
18.3692
18.8361
18.6193
17.0091
13.1779
6.01237
-5.78041
-22.7154
-44.2376
-68.8845
-94.6411
-118.799
-138.864
-154.218
-165.259
-168.313
-150.307
-97.3322
5.78329
143.36
266.367
336.973
377.688
398.777
409.453
413.53
7.53516
2.9464
0.554639
-0.939463
-1.88035
-2.75804
-4.2113
-6.13645
-8.09938
-9.35076
-9.42647
-8.18073
-5.87171
-2.92998
0.254543
3.52947
6.96526
10.6663
14.6529
18.8833
23.3749
28.098
32.7909
36.9099
39.6401
40.323
38.8309
35.5885
31.2764
26.6571
22.518
19.5433
18.0116
17.8319
18.4725
19.1694
19.1974
17.8519
14.2964
7.34417
-4.48796
-21.9546
-44.5369
-70.4118
-97.4275
-122.335
-142.544
-157.847
-169.123
-175.306
-161.557
-112.346
-11.1995
134.399
269.718
340.161
380.601
400.785
410.837
414.681
8.73781
2.99132
-0.231035
-1.66036
-2.13584
-2.5398
-3.67416
-5.64499
-7.83997
-9.37809
-9.63388
-8.43549
-6.08446
-3.09987
0.0704579
3.27841
6.67642
10.4209
14.4883
18.7966
23.3598
28.1882
33.0608
37.448
40.4171
41.1862
39.5768
36.1015
31.4969
26.5481
22.1246
19.0151
17.5752
17.6966
18.7555
19.9711
20.562
19.8595
16.9789
10.4691
-1.48842
-20.1614
-44.6273
-73.0158
-103.043
-130.186
-150.651
-165.296
-176.747
-189.17
-184.298
-143.633
-46.1793
114.064
277.338
346.654
386.465
404.729
413.563
416.898
8.60823
2.00528
-1.61573
-2.78123
-2.49311
-2.10026
-2.74787
-4.81462
-7.41402
-9.40702
-9.92406
-8.76291
-6.33188
-3.2783
-0.146312
2.93707
6.25797
10.0598
14.2405
18.6205
23.2335
28.184
33.3628
38.176
41.5298
42.4437
40.6771
36.881
31.8566
26.4297
21.5808
18.2711
17.0035
17.6282
19.2622
21.197
22.6249
22.9204
21.1604
15.6383
4.11458
-15.7486
-43.0132
-75.6259
-110.354
-141.707
-162.383
-175.703
-186.449
-208.035
-216.306
-188.674
-96.3537
79.2092
290.224
356.606
394.988
410.19
417.323
419.897
8.70862
0.289
-3.77589
-4.58817
-3.22072
-1.55514
-1.43838
-3.66921
-6.86369
-9.47942
-10.2921
-9.08177
-6.47071
-3.34976
-0.317554
2.56365
5.77045
9.65264
13.9606
18.4526
23.1576
28.3237
33.8968
39.2391
42.995
44.0444
42.0705
37.8708
32.3164
26.2437
20.8012
17.3078
16.3458
17.4096
19.6864
22.5645
25.1005
26.7788
26.7882
22.9088
12.3521
-8.27334
-39.0359
-76.8741
-117.591
-155.096
-176.458
-185.316
-194.488
-229.263
-251.415
-238.603
-161.534
37.7619
308.95
370.372
405.39
416.622
421.821
423.441
7.719
-1.97606
-6.91751
-7.62527
-4.65047
-0.737898
0.510734
-2.02302
-6.07935
-9.49939
-10.5231
-9.11096
-6.29185
-3.22009
-0.410918
2.20804
5.26522
9.21008
13.7444
18.3561
23.0435
28.2976
34.2789
40.3135
44.6035
45.9008
43.6589
38.9778
32.784
25.9051
19.74
15.9354
15.0629
16.3955
19.2831
23.1719
27.1783
30.9315
33.1922
31.9099
23.8867
5.57958
-24.9777
-65.4762
-112.808
-160.147
-188.609
-193.683
-201.08
-244.497
-280.877
-278.918
-252.25
18.6977
333.063
388.465
416.329
423.702
426.722
427.361
4.85932
-4.98935
-11.3623
-12.9698
-7.33055
0.484556
3.38743
0.161479
-5.44725
-9.85575
-10.7952
-8.78617
-5.64328
-2.81635
-0.413503
1.88476
4.76613
8.71659
13.3127
17.9449
22.6534
28.1449
34.8035
41.6629
46.8942
48.3556
45.6737
40.3065
33.2154
25.3731
18.4073
14.2
13.2891
14.6152
17.3394
21.3636
26.2636
31.9786
37.0459
38.4824
32.9343
17.545
-10.2324
-49.921
-100.043
-154.563
-192.319
-201.787
-212.124
-255.555
-292.998
-321.54
-379.071
44.104
376.158
410.71
428.939
432.223
432.874
432.46
3.47049
-6.53155
-16.3553
-20.0265
-10.3377
2.55914
7.6936
2.71209
-5.30412
-11.0754
-11.6859
-8.35226
-4.48495
-2.05344
-0.422571
1.3499
4.10085
8.19422
13.0244
17.6619
22.3119
28.074
35.7792
44.303
50.4748
51.1181
47.8564
41.5501
33.4512
24.5922
16.7115
12.1069
11.1192
12.4798
15.3155
20.3098
26.0736
32.8262
39.7041
43.0454
39.8915
27.6964
4.23371
-30.6849
-78.5794
-139.559
-188.106
-204.052
-212.331
-241.928
-263.22
-398.112
-471.802
165.335
424.43
430.867
442.948
442.403
440.53
438.961
-3.16686
-6.7164
-23.8454
-35.1895
-22.9916
2.531
13.0302
7.29372
-4.11076
-13.1917
-12.5854
-5.88185
-0.151117
1.06954
1.02974
1.94204
4.47997
8.19971
12.7053
17.0741
21.2716
26.6449
34.8391
44.7609
52.1757
53.3374
50.2878
42.6268
33.4973
23.8953
15.3699
10.5012
9.38129
10.3294
12.3074
15.4614
21.4933
28.3761
35.8343
41.7375
42.2653
33.4057
13.9571
-16.2896
-59.488
-120.837
-176.68
-205.645
-217.419
-173.971
-331.202
-553.107
-167.78
269.092
462.125
450.115
457.638
453.737
449.356
446.568
0.142437
-1.60589
-32.2482
-57.103
-28.6463
10.8095
27.0973
18.561
-4.14587
-20.107
-14.1209
-3.0861
4.4249
4.20346
2.64769
2.54934
5.01897
9.03339
13.5899
17.7614
21.4182
27.0923
36.1397
48.2543
56.6633
57.8778
51.4535
41.9671
32.3278
22.2517
13.517
8.99963
9.08147
11.0987
14.125
18.1986
25.1119
32.8126
39.1395
44.0419
43.849
35.6747
17.0785
-15.7927
-62.5964
-125.648
-182.296
-207.499
-220.817
-121.253
-678.951
-620.429
0.61671
280.877
459.942
458.355
464.958
459.441
453.664
450.127
71.0893
20.1581
-31.4517
-90.1135
-86.7278
6.3486
34.3424
13.7704
-1.49991
-12.8995
-11.0578
2.47225
11.5629
7.78221
2.60618
1.36092
4.57726
9.79126
15.1431
19.6667
23.5923
29.8531
39.1619
50.6888
58.1812
57.9046
50.6265
40.2882
30.3154
20.201
11.7259
7.07697
7.65325
10.8334
13.7909
19.1773
28.0208
36.8504
45.416
51.6619
53.533
47.5974
29.7034
-1.28166
-50.84
-119.888
-182.722
-217.585
-223.267
-119.946
-842.227
-415.842
130.55
259.651
431.304
453.294
462.975
458.42
452.793
449.206
-2.07062
-7.54689
-23.5319
-57.9671
-55.3568
15.6344
66.9767
92.6886
0.845438
-39.4514
-23.9188
7.61376
23.1274
17.0705
10.1731
8.0527
9.81662
13.787
18.4125
21.4783
24.7874
31.4917
40.9691
49.8357
55.1433
54.9219
48.8373
39.6932
29.2375
19.042
11.1575
7.99376
9.36338
12.5615
15.7376
22.3437
31.6196
40.2741
48.8081
54.6944
55.1141
49.3163
32.1311
2.95144
-44.6326
-113.487
-176.309
-214.469
-178.943
-33.3834
-788.287
-402.145
155.267
251.303
406.259
450.605
462.578
458.269
452.587
448.921
64.4224
33.1117
-41.2148
-126.686
-78.4561
-17.7479
-3.06214
-8.00281
-42.5738
-44.0058
-14.9845
34.3835
53.9164
33.6627
15.7361
8.74434
7.56201
10.7945
15.0074
19.5396
23.7586
31.9976
43.6987
52.7202
57.0506
55.8032
49.4889
39.9017
28.8175
18.2334
10.4898
7.49472
8.94808
12.4627
16.2924
23.1779
32.3588
41.7315
50.7644
55.7992
53.887
46.4644
30.1671
5.03478
-38.0186
-106.771
-171.975
-218.541
-188.616
-8.67736
-773.427
-408.751
138.394
250.03
401.678
450.477
462.727
458.056
452.246
448.55
20.7743
5.09183
-26.0013
-40.4655
-34.6463
-34.3509
-40.3843
-46.9965
-50.2617
-29.6428
9.6172
43.115
39.5378
26.199
16.4152
10.4751
8.95136
10.9014
14.7166
18.6552
23.4492
33.2799
46.2362
55.5168
58.9964
56.5258
48.2493
39.4642
28.3122
17.1898
9.37628
6.5377
8.23108
11.9693
15.8451
22.2102
30.4855
38.2123
46.216
51.0088
49.4123
41.3091
26.1599
2.73068
-36.7481
-99.2113
-168.341
-216.832
-247.36
-211.107
-759.289
-287.024
15.4578
254.254
405.973
452.646
462.384
456.935
451.114
447.525
-4.37321
-4.57232
-22.8377
-34.7684
-20.3278
-18.6876
-38.3042
-53.1835
-50.3382
-27.0293
6.8237
37.4581
42.0171
29.2986
15.8527
8.7396
7.46776
9.98424
13.9971
17.8838
21.5592
29.7576
42.6945
54.5098
60.6113
56.9818
50.8363
40.5293
28.1525
16.3439
8.58163
5.53094
7.07622
10.5579
14.0727
20.5909
28.0168
34.8159
42.2835
45.4071
42.5941
35.3897
21.7951
-1.60482
-41.1398
-99.408
-167.829
-215.224
-237.922
-234.219
-621.707
-289.495
-106.055
264.194
400.713
452.399
458.795
453.545
448.322
445.125
-25.1783
-18.6816
-20.6033
-20.9365
-13.8113
-20.7954
-36.9242
-47.5498
-44.462
-26.708
0.669807
24.481
29.3091
23.2001
15.241
10.6122
9.76953
11.8652
15.4809
19.4356
23.3573
29.6192
39.8253
50.3502
55.1438
53.875
48.7971
40.5826
29.134
18.9101
12.5506
10.1559
10.3147
13.0252
16.7159
21.2628
26.1404
31.4778
38.8079
41.8657
38.0496
28.0698
8.98012
-23.1017
-69.8969
-129.263
-188.929
-212.891
-237.555
-210.014
-370.299
-347.833
-198.856
247.707
394.727
439.961
448.201
445.785
442.526
440.246
-35.582
-21.3756
-14.814
-9.54892
-7.34621
-19.2148
-36.4637
-45.0015
-40.9958
-25.6134
-4.2262
15.0535
21.7701
18.9516
13.9676
11.1829
11.1966
13.4188
17.0565
21.2921
25.7332
31.141
38.5692
47.0751
51.0473
50.637
46.9553
39.3933
28.0627
17.7899
11.5329
9.11339
8.92462
11.1777
14.2657
18.8591
24.4602
30.6081
38.1487
40.0625
33.0806
19.5181
-3.37858
-36.3522
-80.5523
-133.893
-173.236
-195.658
-233.214
-280.485
-360.26
-396.299
-315.506
105.808
373.403
428.832
442.508
442.143
440.22
438.54
-0.20719
-3.6537
-5.30759
-6.13241
-8.16798
-17.4111
-30.6602
-39.6444
-39.5728
-28.9408
-11.8908
5.12038
13.93
15.3515
14.0538
13.3273
14.0665
16.4839
19.969
23.7644
28.6619
34.3877
41.0172
47.3558
50.1893
49.0056
44.7628
37.016
26.9718
17.7491
12.2024
10.6753
11.4432
14.7592
19.065
23.8379
29.899
34.9027
39.0293
38.5665
30.222
13.8349
-12.1841
-49.2809
-98.2156
-148.555
-183.914
-204.17
-228.42
-282.463
-282.343
-293.215
-238.132
43.7409
356.407
403.798
431.187
435.702
436.232
435.56
2.01436
-4.09095
-5.0686
-5.58625
-8.3428
-15.7983
-25.6458
-33.122
-33.8459
-26.9288
-14.1837
0.605655
8.18211
12.3668
13.7998
14.7091
16.0377
18.64
22.027
25.8759
30.2829
35.2412
40.6213
45.2516
47.2713
46.32
42.543
35.8017
27.4553
19.866
14.9428
13.0393
13.2411
15.5908
19.2734
23.5028
28.2899
32.4067
34.656
31.7785
21.9186
3.72427
-26.4042
-64.8454
-109.096
-149.37
-178.194
-198.206
-220.391
-243.073
-242.396
-221.277
-147.415
40.7089
319.023
378.861
413.144
423.268
427.129
427.962
6.14525
0.272937
-2.6815
-4.6207
-8.015
-14.5963
-23.0217
-29.81
-31.4349
-26.5637
-16.3983
-4.35558
4.53046
10.3057
13.6047
15.8158
17.8082
20.5716
23.9062
27.6005
31.6217
35.8893
40.1868
43.5501
44.8512
43.8501
40.4657
34.8353
28.031
21.8044
17.5957
15.7707
16.1207
18.1107
21.0818
24.3074
27.2397
29.2138
29.2045
24.6066
13.5901
-5.67825
-34.7124
-70.3138
-110.578
-150.338
-178.016
-193.581
-209.2
-218.392
-212.843
-184.426
-101.656
74.0307
294.044
361.318
398.93
413.12
419.6
421.656
7.39271
1.6696
-1.39713
-3.895
-7.64709
-13.8044
-21.434
-27.7101
-29.7063
-25.9432
-17.3116
-6.75135
2.4125
9.04443
13.4156
16.4557
19.0402
21.8541
24.9887
28.5546
32.3003
36.1188
39.6986
42.2981
43.1754
42.053
38.8916
33.9607
28.1783
22.8594
19.0728
17.166
17.017
18.3187
20.4041
22.7327
24.7227
25.4453
23.773
17.887
6.05283
-13.5002
-40.8766
-72.7065
-107.5
-141.306
-167.001
-181.872
-194.485
-202.959
-186.864
-144.798
-53.5001
107.145
279.49
349.099
387.886
405.417
413.782
416.752
7.88401
2.78254
-0.518426
-3.36605
-7.37399
-13.3636
-20.5592
-26.5239
-28.7339
-25.6838
-18.0766
-8.23134
1.0487
8.21359
13.2573
16.8425
19.7698
22.6517
25.7359
29.1062
32.6719
36.1342
39.2603
41.4161
42.0238
40.8263
37.8355
33.3973
28.3051
23.5972
20.1114
18.2049
17.8143
18.6673
20.1839
21.7733
22.8603
22.6365
19.9751
13.3516
1.19364
-17.9909
-43.6642
-72.8706
-103.914
-133.238
-155.119
-167.781
-175.609
-173.943
-156.293
-108.298
-13.343
133.026
270.978
340.658
380.047
399.83
409.555
413.267
6.79591
2.74818
0.0172977
-2.91705
-7.15051
-13.0579
-20.0359
-25.8046
-28.103
-25.421
-18.3632
-8.93207
0.261641
7.71577
13.1557
17.0811
20.2272
23.1624
26.1429
29.4791
32.8631
36.1756
39.0349
40.9144
41.3399
40.0834
37.1997
33.065
28.3913
24.0416
20.722
18.7809
18.1973
18.749
19.9301
21.1104
21.6623
20.7741
17.3854
10.2241
-2.08455
-20.732
-44.9157
-72.3134
-100.795
-127.368
-147.136
-158.475
-163.786
-160.949
-136.485
-83.5275
14.3586
147.028
265.867
335.114
374.981
396.127
406.85
411.002
5.7897
2.32197
0.191778
-2.76108
-7.08395
-12.9534
-19.8344
-25.5219
-27.8606
-25.3655
-18.5674
-9.30893
-0.136405
7.42158
13.0248
17.0844
20.3678
23.3682
26.3936
29.6223
32.927
36.1286
38.8582
40.6211
40.9776
39.7091
36.8914
32.9101
28.4332
24.2456
21.0001
19.0463
18.3939
18.7876
19.7683
20.7452
21.0647
19.9104
16.2493
8.88509
-3.44527
-21.701
-44.9248
-71.1571
-98.5883
-124.072
-143.048
-153.781
-157.805
-152.599
-126.778
-71.5682
26.2153
153.162
263.502
332.427
372.577
394.344
405.556
409.962
7.36246
4.22631
2.76709
0.145418
-6.27492
-17.1895
-31.1593
-43.7821
-50.1546
-46.7543
-35.6861
-21.3109
-7.13816
4.38504
12.2108
16.7065
19.0909
20.7813
22.8183
25.7979
29.9648
35.2499
41.0346
46.2407
49.4278
49.7274
47.2125
42.533
36.7823
31.1016
26.3464
22.9773
20.951
19.9011
19.2377
18.3163
16.5006
13.1148
7.34285
-1.91241
-15.7948
-34.4253
-56.3936
-80.5164
-105.357
-129.111
-148.348
-161.809
-170.688
-170.752
-150.428
-93.3497
19.2917
164.405
286.518
354.524
391.567
410.352
419.534
423.001
8.23168
4.97414
3.49392
1.10871
-5.15871
-16.0718
-30.1292
-42.8712
-49.4727
-46.3935
-35.7139
-21.886
-8.22216
3.05122
10.8162
15.2858
17.6837
19.4134
21.5269
24.6539
29.0763
34.7522
41.1243
46.9238
50.4962
50.8574
48.1012
42.9478
36.6722
30.5864
25.6551
22.4339
20.5817
19.8052
19.368
18.5555
16.6661
12.8836
6.37144
-4.06001
-19.4695
-39.7368
-63.1931
-88.3923
-114.089
-137.957
-156.009
-167.434
-175.839
-178.162
-162.211
-106.784
13.0755
174.05
306.312
373.372
407.847
424.189
431.66
434.281
7.31217
4.83607
3.78997
1.86993
-4.13617
-14.8253
-28.6454
-41.2136
-47.8477
-45.2834
-35.3079
-22.2929
-9.35246
1.52315
9.18917
13.6375
16.1026
17.9379
20.161
23.4163
28.0599
34.0805
40.9569
47.2981
51.2273
51.6489
48.6413
42.963
36.1038
29.5221
24.256
20.6699
18.8879
18.0995
17.7911
16.9945
14.8411
10.6671
3.54424
-7.63859
-23.913
-44.8871
-68.7502
-93.8061
-119.036
-141.997
-158.515
-168.434
-176.707
-182.79
-173.168
-119.567
9.88086
187.506
328.877
393.097
423.884
437.339
443.199
444.938
7.28998
4.69928
3.93288
2.28
-3.31476
-13.4694
-26.6665
-38.8014
-45.3599
-43.452
-34.5535
-22.5558
-10.5284
-0.153287
7.26252
11.746
14.355
16.3517
18.7297
22.1263
26.958
33.2997
40.6354
47.4913
51.6853
52.2518
49.0812
42.9421
35.6699
28.8756
23.6899
20.5197
19.1335
18.8429
18.9633
18.504
16.3656
11.7475
3.8213
-8.11183
-24.7997
-45.5972
-68.8768
-93.7879
-119.004
-141.286
-155.596
-164.037
-175.021
-188.884
-185.892
-132.651
10.4122
203.586
353.674
413.238
438.404
449.63
453.701
454.593
5.61159
4.02687
3.70934
2.40785
-2.51186
-11.797
-24.0204
-35.4674
-42.0288
-40.9644
-33.4287
-22.6863
-11.7019
-2.04376
5.16862
9.78195
12.6418
14.8843
17.4296
20.9106
25.905
32.4941
40.219
47.5216
52.0509
52.6555
49.2383
42.8715
35.349
28.3544
22.9132
19.5061
17.9094
17.5535
17.6235
17.0801
14.8431
10.1459
2.48431
-9.05701
-24.9848
-45.0745
-67.7361
-92.2931
-117.855
-141.76
-158.24
-167.408
-183.199
-202.297
-201.704
-145.916
14.684
220.394
378.179
429.925
452.005
460.028
462.419
462.549
6.31199
3.69051
3.3373
1.99122
-2.15066
-10.3069
-21.1242
-31.5747
-37.8275
-37.6024
-31.6173
-22.3862
-12.5918
-3.70476
3.25483
7.97974
11.1092
13.6545
16.3814
19.9264
25.0363
31.7439
39.6174
47.017
51.682
52.4015
49.0105
42.5999
35.0223
27.9499
22.5168
19.1586
17.7868
17.5602
17.6717
17.0256
14.6697
10.0358
2.60521
-8.67716
-24.3325
-44.0664
-66.772
-91.5335
-116.62
-140.166
-157
-160.958
-171.332
-199.863
-204.723
-146.314
21.8403
233.331
395.17
440.703
461.059
467.154
468.411
467.999
3.07707
2.66345
2.75703
1.67371
-1.93019
-8.90503
-18.3027
-27.3139
-33.2945
-33.789
-29.1968
-21.5292
-12.9942
-4.96277
1.64336
6.41103
9.78863
12.5961
15.5705
19.3966
24.5081
31.2569
39.1423
46.4531
51.0032
51.6635
48.4472
42.1713
34.7089
27.5802
21.9864
18.4992
17.1313
16.9742
17.2756
16.9504
14.83
10.3738
2.98192
-8.31513
-24.1388
-43.7561
-65.9171
-89.578
-114.24
-137.554
-154.726
-169.399
-200.333
-221.454
-212.385
-150.233
20.7518
241.691
406.743
446.491
465.648
470.743
471.434
470.753
4.13472
2.75337
2.56168
1.57694
-1.63329
-7.48781
-15.4949
-23.4305
-29.0451
-30.2771
-26.8217
-20.5707
-13.236
-6.01501
0.18032
4.87055
8.41013
11.5033
14.7776
18.815
24.0288
30.7368
38.4892
45.6817
50.2615
50.8102
47.4748
41.2851
33.8502
26.694
21.0784
17.5451
16.1573
16.2757
16.7023
16.3263
14.3131
9.97615
2.82391
-8.23637
-23.8461
-43.696
-66.6599
-90.5343
-114.509
-136.023
-148.01
-155.651
-178.377
-207.097
-204.177
-143.721
16.8985
235.543
404.294
444.156
464.735
470.302
471.155
470.532
3.67341
2.4626
2.14899
1.20519
-1.54585
-6.38004
-13.0456
-19.7826
-24.6839
-25.813
-23.6846
-18.9197
-12.7842
-6.42881
-0.761116
3.80732
7.50228
10.8579
14.3846
18.5384
23.7872
30.3619
37.8209
44.6724
49.1418
49.8117
46.5582
40.5988
33.5073
26.5588
20.9476
17.3979
16.0421
16.2069
16.8343
16.7653
14.9959
10.6655
3.25844
-8.23594
-24.6688
-45.1182
-67.8713
-90.9447
-114.645
-138.087
-155.986
-172.041
-192.814
-209.168
-201.827
-143.417
8.26406
221.463
392.294
437.129
459.714
466.627
468.129
467.81
5.28651
2.88295
1.97415
0.915649
-1.51928
-5.47028
-10.9907
-16.6701
-21.0097
-22.5187
-21.1488
-17.4378
-12.2769
-6.68952
-1.52185
2.83337
6.51613
10.0631
13.9425
18.3307
23.6168
30.011
37.1015
43.5238
47.7467
48.3914
45.3723
39.7564
32.9484
26.1921
20.5921
16.9759
15.6238
15.8394
16.5643
16.6005
15.0641
11.0329
3.85137
-7.63027
-24.2074
-44.7755
-67.5732
-91.5459
-115.982
-139.63
-158.064
-174.425
-196.916
-211.636
-202.201
-144.739
-0.471141
205.152
376.178
426.456
451.74
460.354
462.835
462.989
5.11351
2.55622
1.67751
0.639268
-1.40089
-4.53352
-8.97585
-13.7051
-17.5536
-19.2736
-18.5804
-15.7395
-11.444
-6.54116
-1.8028
2.39785
6.21354
9.99083
14.0595
18.5427
23.7245
29.796
36.4423
42.5114
46.2613
46.8888
44.1764
39.0686
32.797
26.4299
21.0266
17.4007
15.8843
16.0905
17.1329
17.7412
16.861
13.6894
7.45126
-3.02091
-19.0677
-39.942
-63.6669
-88.7424
-114.3
-138.295
-157.48
-175.24
-199.386
-213.195
-200.929
-144.997
-8.73263
187.619