/*--------------------------------*- C++ -*----------------------------------*\
| =========                 |                                                 |
| \\      /  F ield         | OpenFOAM: The Open Source CFD Toolbox           |
|  \\    /   O peration     | Version:  2.1.1                                 |
|   \\  /    A nd           | Web:      www.OpenFOAM.org                      |
|    \\/     M anipulation  |                                                 |
\*---------------------------------------------------------------------------*/
FoamFile
{
    version     2.0;
    format      ascii;
    class       surfaceScalarField;
    location    "0.0012";
    object      phi;
}
// * * * * * * * * * * * * * * * * * * * * * * * * * * * * * * * * * * * * * //

dimensions      [0 3 -1 0 0 0 0];

internalField   nonuniform List<scalar> 
105695
(
-2.98589e-08
-8.60164e-08
-1.30598e-08
1.28935e-07
-7.02443e-08
1.86097e-08
3.17248e-08
-9.94905e-09
-1.19128e-07
4.0868e-08
4.3297e-08
-3.52814e-08
-1.44674e-07
3.76146e-08
7.7579e-08
-8.96477e-08
-1.79075e-07
4.86348e-08
1.15541e-07
-1.29775e-07
-2.27945e-07
6.30715e-08
1.569e-07
-1.71101e-07
-2.93783e-07
7.53703e-08
1.80102e-07
-1.89635e-07
-3.50777e-07
6.27635e-08
1.59078e-07
-1.64847e-07
-3.78025e-07
2.97021e-08
9.73344e-08
-9.97881e-08
-3.6908e-07
-8.53316e-09
2.62077e-08
-2.66197e-08
-3.36217e-07
-3.60371e-08
-2.77222e-08
3.08962e-08
-2.99042e-07
-4.36484e-08
-4.67203e-08
5.31937e-08
-2.73482e-07
-3.42717e-08
-3.81477e-08
4.68596e-08
-2.64105e-07
-1.87402e-08
-1.39974e-08
2.3361e-08
-2.65624e-07
-6.21625e-09
7.15276e-09
5.8189e-10
-2.72203e-07
5.12458e-10
2.22687e-08
-1.62022e-08
-2.79057e-07
2.47584e-09
3.00224e-08
-2.56436e-08
-2.84626e-07
2.53081e-09
3.36132e-08
-3.05755e-08
-2.87639e-07
9.8017e-10
3.53434e-08
-3.33101e-08
-2.89194e-07
1.12832e-10
3.78899e-08
-3.64484e-08
-2.90194e-07
1.62494e-10
4.21267e-08
-4.12884e-08
-2.92089e-07
1.7613e-09
4.83347e-08
-4.82011e-08
-2.9574e-07
4.63016e-09
5.5569e-08
-5.65483e-08
-3.01725e-07
8.15862e-09
6.34883e-08
-6.56617e-08
-3.10249e-07
1.18725e-08
7.10728e-08
-7.44215e-08
-3.21369e-07
1.57091e-08
7.7134e-08
-8.17236e-08
-3.34744e-07
1.93322e-08
8.0498e-08
-8.64545e-08
-3.49526e-07
2.19319e-08
8.05831e-08
-8.77335e-08
-3.64687e-07
2.32784e-08
7.76981e-08
-8.58149e-08
-3.79157e-07
2.30948e-08
7.26367e-08
-8.12617e-08
-3.91843e-07
2.12518e-08
6.64711e-08
-7.50374e-08
-4.0186e-07
1.80389e-08
6.03663e-08
-6.83878e-08
-4.08934e-07
1.4433e-08
5.57563e-08
-6.31153e-08
-4.13319e-07
1.12245e-08
5.3706e-08
-6.05454e-08
-4.15773e-07
9.40126e-09
5.50505e-08
-6.19978e-08
-4.18116e-07
1.05992e-08
5.99968e-08
-6.8253e-08
-4.21542e-07
1.43395e-08
6.72627e-08
-7.8176e-08
-4.27524e-07
2.08055e-08
7.68193e-08
-9.16436e-08
-4.38016e-07
3.03835e-08
8.74101e-08
-1.07301e-07
-4.5514e-07
4.34092e-08
9.72102e-08
-1.23496e-07
-4.80784e-07
5.99622e-08
1.03139e-07
-1.37457e-07
-5.16619e-07
7.96309e-08
1.02125e-07
-1.45921e-07
-5.64214e-07
1.02727e-07
8.97397e-08
-1.44872e-07
-6.24511e-07
1.29236e-07
6.27472e-08
-1.31686e-07
-6.97209e-07
1.58118e-07
1.62446e-08
-1.01665e-07
-7.79857e-07
1.86214e-07
-5.75623e-08
-4.60033e-08
-8.70473e-07
2.03203e-07
-1.42256e-07
2.96689e-08
-9.59409e-07
1.87353e-07
-2.2653e-07
1.28112e-07
-1.01228e-06
1.14479e-07
-3.27431e-07
2.65821e-07
-1.00451e-06
4.69906e-09
-4.49252e-07
4.3678e-07
-9.35552e-07
-1.02298e-07
-5.91523e-07
6.24867e-07
-7.82832e-07
-2.1771e-07
-7.26483e-07
7.91473e-07
-5.60391e-07
-3.0972e-07
-8.04151e-07
8.91431e-07
-3.5252e-07
-2.96865e-07
-7.82348e-07
8.71343e-07
-2.00534e-07
-2.4031e-07
-7.00248e-07
7.88572e-07
-1.05674e-07
-1.75353e-07
-5.85847e-07
6.66341e-07
-5.20528e-08
-1.26852e-07
-4.84442e-07
5.57673e-07
-2.29271e-08
-9.30021e-08
-4.04559e-07
4.68435e-07
-8.292e-09
-7.2886e-08
-3.51046e-07
4.09297e-07
-6.29219e-08
-3.22211e-07
3.76841e-07
-1.47942e-07
-4.97462e-08
7.45455e-09
1.04217e-07
-2.04445e-07
5.77745e-08
6.71877e-08
-4.98499e-08
-2.43049e-07
7.86643e-08
6.19144e-08
-6.11065e-08
-2.6492e-07
7.11746e-08
9.54985e-08
-1.07187e-07
-2.96076e-07
9.492e-08
1.24063e-07
-1.39193e-07
-3.448e-07
1.25541e-07
1.67448e-07
-1.81193e-07
-4.13104e-07
1.52503e-07
1.88814e-07
-1.97643e-07
-4.72577e-07
1.27568e-07
1.64701e-07
-1.70033e-07
-4.98934e-07
5.92341e-08
9.09429e-08
-9.41173e-08
-4.86564e-07
-1.81217e-08
1.06172e-08
-1.3399e-08
-4.5018e-07
-7.34931e-08
-4.83175e-08
4.93894e-08
-4.10858e-07
-8.78281e-08
-6.70477e-08
7.19054e-08
-3.85207e-07
-6.80682e-08
-5.52052e-08
6.33515e-08
-3.77158e-07
-3.61845e-08
-2.67787e-08
3.61734e-08
-3.80062e-07
-1.17735e-08
-3.69346e-09
1.21555e-08
-3.87325e-07
1.89421e-09
1.12772e-08
-5.39596e-09
-3.94159e-07
5.43551e-09
1.81096e-08
-1.42357e-08
-3.99518e-07
5.07454e-09
2.07475e-08
-1.79319e-08
-4.02188e-07
1.37884e-09
2.17498e-08
-1.9479e-08
-4.03279e-07
-9.89588e-10
2.32665e-08
-2.10728e-08
-4.03703e-07
-1.15185e-09
2.72603e-08
-2.55223e-08
-4.05023e-07
2.25705e-09
3.2295e-08
-3.14705e-08
-4.07918e-07
8.15863e-09
3.87987e-08
-3.94325e-08
-4.13165e-07
1.53886e-08
4.54571e-08
-4.74394e-08
-4.20849e-07
2.31237e-08
5.17997e-08
-5.53674e-08
-4.31002e-07
3.09436e-08
5.63705e-08
-6.14521e-08
-4.43299e-07
3.83497e-08
5.85774e-08
-6.52978e-08
-4.56887e-07
4.3505e-08
5.77128e-08
-6.56976e-08
-4.70696e-07
4.59817e-08
5.43324e-08
-6.3227e-08
-4.83795e-07
4.51508e-08
4.90965e-08
-5.8053e-08
-4.9509e-07
4.07489e-08
4.27998e-08
-5.10021e-08
-5.03533e-07
3.33799e-08
3.65625e-08
-4.34603e-08
-5.08306e-07
2.4441e-08
3.20528e-08
-3.72878e-08
-5.10513e-07
1.69186e-08
3.0129e-08
-3.36162e-08
-5.1134e-07
1.22774e-08
3.16245e-08
-3.3674e-08
-5.12057e-07
1.32768e-08
3.63321e-08
-3.82928e-08
-5.14141e-07
1.96787e-08
4.30937e-08
-4.63486e-08
-5.18733e-07
3.11833e-08
5.20805e-08
-5.78661e-08
-5.27283e-07
4.8382e-08
6.17784e-08
-7.12271e-08
-5.41187e-07
7.23135e-08
7.02482e-08
-8.52486e-08
-5.61659e-07
1.03054e-07
7.49426e-08
-9.75622e-08
-5.90655e-07
1.40721e-07
7.29098e-08
-1.05004e-07
-6.305e-07
1.86728e-07
6.04574e-08
-1.04614e-07
-6.81369e-07
2.39241e-07
3.52822e-08
-9.44178e-08
-7.4206e-07
2.9639e-07
-8.89066e-09
-6.86912e-08
-8.12473e-07
3.52939e-07
-7.78638e-08
-1.84478e-08
-8.91916e-07
3.90266e-07
-1.54613e-07
4.69932e-08
-9.7929e-07
3.70636e-07
-2.37498e-07
1.41589e-07
-1.03898e-06
2.29156e-07
-3.49143e-07
2.94159e-07
-1.04223e-06
7.13935e-10
-4.83783e-07
4.9102e-07
-9.8606e-07
-2.09119e-07
-6.56189e-07
7.06836e-07
-8.25366e-07
-4.52098e-07
-8.38321e-07
9.12015e-07
-5.66477e-07
-6.71721e-07
-9.00656e-07
1.00377e-06
-3.47297e-07
-6.2223e-07
-8.52409e-07
9.58593e-07
-1.90961e-07
-5.00845e-07
-7.50209e-07
8.54409e-07
-9.67577e-08
-3.6154e-07
-6.20433e-07
7.12417e-07
-4.57486e-08
-2.59381e-07
-5.08968e-07
5.90489e-07
-1.8769e-08
-1.8976e-07
-4.23133e-07
4.92911e-07
-6.53184e-09
-1.47884e-07
-3.65757e-07
4.28519e-07
-1.27798e-07
-3.35134e-07
3.93478e-07
-1.93981e-07
2.05954e-08
2.7752e-08
9.58876e-08
-2.60527e-07
1.08306e-07
7.35253e-08
-5.75114e-08
-2.9968e-07
1.19427e-07
7.24658e-08
-7.40747e-08
-3.15453e-07
1.0285e-07
9.35833e-08
-1.09485e-07
-3.40628e-07
1.40399e-07
1.23495e-07
-1.43799e-07
-3.8983e-07
1.91961e-07
1.79209e-07
-1.96427e-07
-4.6741e-07
2.39633e-07
2.10432e-07
-2.19982e-07
-5.37034e-07
2.02844e-07
1.84253e-07
-1.89905e-07
-5.65804e-07
9.48193e-08
8.92976e-08
-9.61124e-08
-5.48477e-07
-2.67393e-08
-8.23124e-09
-4.78672e-10
-5.02561e-07
-1.1465e-07
-7.93109e-08
7.45521e-08
-4.54527e-07
-1.36153e-07
-9.76503e-08
9.794e-08
-4.25207e-07
-1.02732e-07
-7.69293e-08
8.22738e-08
-4.17932e-07
-5.12186e-08
-3.86799e-08
4.64386e-08
-4.23112e-07
-1.35205e-08
-9.38236e-09
1.63098e-08
-4.31898e-07
6.45332e-09
7.63178e-09
-3.40546e-09
-4.39413e-07
1.05163e-08
1.4846e-08
-1.24118e-08
-4.44744e-07
8.98016e-09
1.73116e-08
-1.58863e-08
-4.46959e-07
3.08536e-09
1.80965e-08
-1.75874e-08
-4.47017e-07
-1.99506e-09
1.9438e-08
-1.83751e-08
-4.46286e-07
-3.51167e-09
2.38989e-08
-2.22704e-08
-4.46481e-07
4.88531e-10
3.02016e-08
-2.82373e-08
-4.48429e-07
8.82436e-09
3.84754e-08
-3.71931e-08
-4.53129e-07
2.08416e-08
4.60789e-08
-4.68319e-08
-4.604e-07
3.3552e-08
5.32498e-08
-5.64076e-08
-4.70203e-07
4.63264e-08
5.8273e-08
-6.3853e-08
-4.82349e-07
5.86693e-08
6.09086e-08
-6.90816e-08
-4.96203e-07
6.76957e-08
6.02717e-08
-7.06085e-08
-5.10469e-07
7.21156e-08
5.71867e-08
-6.90543e-08
-5.23939e-07
7.07078e-08
5.22922e-08
-6.43798e-08
-5.35518e-07
6.32393e-08
4.61595e-08
-5.70701e-08
-5.44279e-07
5.00756e-08
4.02846e-08
-4.82194e-08
-5.49498e-07
3.4149e-08
3.57279e-08
-4.02178e-08
-5.51347e-07
1.97089e-08
3.43434e-08
-3.52846e-08
-5.51459e-07
1.0413e-08
3.64932e-08
-3.45165e-08
-5.51104e-07
9.27023e-09
4.26306e-08
-3.89787e-08
-5.51948e-07
1.72232e-08
5.08393e-08
-4.75401e-08
-5.54982e-07
3.33523e-08
6.10611e-08
-6.01966e-08
-5.61356e-07
5.82045e-08
7.19913e-08
-7.54394e-08
-5.72904e-07
9.37577e-08
8.27375e-08
-9.26338e-08
-5.90535e-07
1.3908e-07
9.06435e-08
-1.09038e-07
-6.15176e-07
1.95699e-07
9.26485e-08
-1.22985e-07
-6.48089e-07
2.66511e-07
8.59908e-08
-1.3286e-07
-6.89441e-07
3.46111e-07
7.00113e-08
-1.35529e-07
-7.31555e-07
4.25332e-07
4.01408e-08
-1.26969e-07
-7.69266e-07
5.00174e-07
-7.17124e-09
-1.02353e-07
-8.01907e-07
5.48389e-07
-6.92648e-08
-5.62167e-08
-8.46532e-07
5.24117e-07
-1.41951e-07
3.3095e-08
-8.9571e-07
3.48231e-07
-2.5609e-07
1.86194e-07
-9.43739e-07
3.88858e-08
-4.0351e-07
4.13366e-07
-9.73243e-07
-2.57807e-07
-5.95292e-07
6.73484e-07
-8.81454e-07
-6.36271e-07
-8.42248e-07
9.34632e-07
-6.30332e-07
-1.01859e-06
-1.02439e-06
1.12013e-06
-3.4708e-07
-1.03259e-06
-9.08853e-07
1.03596e-06
-1.77915e-07
-8.00991e-07
-7.78292e-07
9.09273e-07
-8.35485e-08
-5.66153e-07
-6.34355e-07
7.44602e-07
-3.60118e-08
-3.99917e-07
-5.15352e-07
6.08351e-07
-1.2581e-08
-2.90235e-07
-4.26438e-07
5.03483e-07
-3.72735e-09
-2.24242e-07
-3.67401e-07
4.34905e-07
-1.93357e-07
-3.36381e-07
3.98213e-07
-2.25929e-07
1.21107e-07
3.57175e-08
8.97002e-08
-2.99108e-07
1.6195e-07
8.67976e-08
-6.72628e-08
-3.4238e-07
1.68306e-07
8.37431e-08
-8.9351e-08
-3.53038e-07
1.35053e-07
9.38751e-08
-1.1542e-07
-3.73371e-07
1.8868e-07
1.28942e-07
-1.5689e-07
-4.26451e-07
2.6334e-07
2.05883e-07
-2.24181e-07
-5.22388e-07
3.38119e-07
2.58412e-07
-2.60962e-07
-6.11972e-07
2.88658e-07
2.28712e-07
-2.24941e-07
-6.45838e-07
1.36617e-07
1.01739e-07
-1.09671e-07
-6.21039e-07
-3.51638e-08
-2.91416e-08
1.27666e-08
-5.59133e-07
-1.58594e-07
-1.22498e-07
1.04536e-07
-4.957e-07
-1.86632e-07
-1.43361e-07
1.30407e-07
-4.59545e-07
-1.35219e-07
-1.08138e-07
1.0447e-07
-4.53139e-07
-6.16975e-08
-5.30253e-08
5.70979e-08
-4.61687e-07
-1.06771e-08
-1.40766e-08
1.9782e-08
-4.73132e-07
1.49261e-08
5.73901e-09
-2.76769e-09
-4.82291e-07
1.86535e-08
1.29848e-08
-1.19623e-08
-4.87581e-07
1.42028e-08
1.43803e-08
-1.43135e-08
-4.88669e-07
3.90289e-09
1.47063e-08
-1.44356e-08
-4.87142e-07
-5.03207e-09
1.68779e-08
-1.53675e-08
-4.84528e-07
-9.61262e-09
2.3877e-08
-2.039e-08
-4.82941e-07
-6.27923e-09
3.33587e-08
-2.81783e-08
-4.83848e-07
5.51959e-09
4.34949e-08
-3.92831e-08
-4.87851e-07
2.36856e-08
5.26838e-08
-5.15244e-08
-4.94559e-07
4.28901e-08
6.12276e-08
-6.38576e-08
-5.03817e-07
6.2149e-08
6.72317e-08
-7.3797e-08
-5.15718e-07
8.11693e-08
7.08717e-08
-8.14699e-08
-5.2979e-07
9.57843e-08
7.10994e-08
-8.51161e-08
-5.44279e-07
1.03056e-07
6.86729e-08
-8.5125e-08
-5.57808e-07
1.01003e-07
6.44441e-08
-8.12096e-08
-5.6902e-07
8.91751e-08
5.93039e-08
-7.40279e-08
-5.7672e-07
6.76751e-08
5.4984e-08
-6.48837e-08
-5.80705e-07
4.04215e-08
5.3364e-08
-5.56517e-08
-5.81329e-07
1.4469e-08
5.53392e-08
-4.9475e-08
-5.79964e-07
-2.99185e-09
6.11561e-08
-4.91156e-08
-5.78576e-07
-7.22036e-09
7.01589e-08
-5.50564e-08
-5.78698e-07
2.44311e-09
8.06065e-08
-6.57046e-08
-5.80424e-07
2.27159e-08
9.35731e-08
-8.12105e-08
-5.83922e-07
5.35412e-08
1.08336e-07
-1.00175e-07
-5.90645e-07
9.8991e-08
1.23962e-07
-1.22472e-07
-6.01096e-07
1.57745e-07
1.37138e-07
-1.45352e-07
-6.14174e-07
2.29434e-07
1.47031e-07
-1.67688e-07
-6.28988e-07
3.17406e-07
1.54427e-07
-1.90509e-07
-6.41748e-07
4.13135e-07
1.57298e-07
-2.11561e-07
-6.32732e-07
4.93737e-07
1.4965e-07
-2.27071e-07
-5.87937e-07
5.66135e-07
1.20016e-07
-2.30773e-07
-5.04633e-07
6.15086e-07
5.97023e-08
-2.09704e-07
-4.30847e-07
6.0405e-07
-1.77873e-08
-1.35932e-07
-4.25176e-07
4.50082e-07
-1.53917e-07
4.63952e-08
-5.15502e-07
1.46585e-07
-2.89445e-07
2.72071e-07
-7.18424e-07
-1.69101e-07
-4.5269e-07
5.66906e-07
-8.51509e-07
-6.33193e-07
-7.82428e-07
9.12436e-07
-7.0438e-07
-1.24925e-06
-1.11219e-06
1.19573e-06
-3.50243e-07
-1.5178e-06
-1.03713e-06
1.16821e-06
-1.53747e-07
-1.15733e-06
-8.3607e-07
9.95911e-07
-6.08285e-08
-7.8634e-07
-6.6545e-07
7.92719e-07
-1.96277e-08
-5.43715e-07
-5.31991e-07
6.34588e-07
-2.47794e-09
-3.89227e-07
-4.36469e-07
5.18311e-07
1.20419e-09
-2.97672e-07
-3.73708e-07
4.43456e-07
-2.55196e-07
-3.41325e-07
4.04368e-07
-2.56333e-07
2.43084e-07
7.91454e-08
5.52106e-08
-3.45712e-07
2.23659e-07
1.09668e-07
-8.19972e-08
-3.94252e-07
2.28434e-07
9.07522e-08
-1.0234e-07
-3.95097e-07
1.75085e-07
8.41011e-08
-1.23288e-07
-4.07397e-07
2.4924e-07
1.27999e-07
-1.76258e-07
-4.67601e-07
3.43167e-07
2.37748e-07
-2.57372e-07
-5.90431e-07
4.4099e-07
3.31806e-07
-3.11847e-07
-7.07404e-07
3.75179e-07
3.00684e-07
-2.70232e-07
-7.46905e-07
1.78494e-07
1.26363e-07
-1.28739e-07
-7.11027e-07
-4.0726e-08
-6.03723e-08
3.00558e-08
-6.25246e-07
-1.95184e-07
-1.88727e-07
1.39538e-07
-5.38573e-07
-2.24473e-07
-2.13699e-07
1.64867e-07
-4.92348e-07
-1.51629e-07
-1.52772e-07
1.22957e-07
-4.87378e-07
-5.77721e-08
-6.91227e-08
6.02278e-08
-5.00322e-07
2.96895e-09
-1.37163e-08
1.30141e-08
-5.14462e-07
3.0248e-08
1.11408e-08
-1.23232e-08
-5.24715e-07
3.08574e-08
1.97745e-08
-2.17254e-08
-5.28631e-07
2.03257e-08
1.98997e-08
-2.21066e-08
-5.27542e-07
4.01049e-09
2.03015e-08
-2.14978e-08
-5.21823e-07
-1.19032e-08
2.27457e-08
-2.15936e-08
-5.14157e-07
-2.3045e-08
3.13426e-08
-2.55759e-08
-5.07361e-07
-2.36778e-08
4.35414e-08
-3.29387e-08
-5.03049e-07
-1.1179e-08
5.81741e-08
-4.57879e-08
-5.01883e-07
1.05149e-08
7.30956e-08
-6.10913e-08
-5.03703e-07
3.67112e-08
8.50112e-08
-7.70115e-08
-5.07616e-07
6.29626e-08
9.33024e-08
-9.02035e-08
-5.13624e-07
8.93425e-08
9.88859e-08
-1.01051e-07
-5.21468e-07
1.1039e-07
1.00684e-07
-1.07445e-07
-5.28922e-07
1.20683e-07
9.88953e-08
-1.09069e-07
-5.34604e-07
1.17196e-07
9.4742e-08
-1.05252e-07
-5.37356e-07
9.91564e-08
8.95905e-08
-9.68202e-08
-5.36823e-07
6.64628e-08
8.56055e-08
-8.49263e-08
-5.34465e-07
2.34429e-08
8.70982e-08
-7.24774e-08
-5.34475e-07
-1.65209e-08
9.36974e-08
-6.26972e-08
-5.37746e-07
-4.55594e-08
1.06266e-07
-6.04282e-08
-5.43527e-07
-5.8537e-08
1.24515e-07
-6.74178e-08
-5.49617e-07
-5.39237e-08
1.45342e-07
-8.28842e-08
-5.54308e-07
-3.54239e-08
1.69402e-07
-1.06572e-07
-5.56234e-07
-6.57391e-09
1.97655e-07
-1.35613e-07
-5.56175e-07
3.92309e-08
2.29054e-07
-1.69353e-07
-5.5523e-07
1.04425e-07
2.58298e-07
-2.05922e-07
-5.49507e-07
1.8267e-07
2.84295e-07
-2.43254e-07
-5.38853e-07
2.88887e-07
3.02034e-07
-2.84168e-07
-5.21065e-07
4.10557e-07
3.12668e-07
-3.27878e-07
-4.80253e-07
5.09706e-07
3.0935e-07
-3.66132e-07
-3.93123e-07
5.753e-07
3.00908e-07
-3.97203e-07
-2.40985e-07
6.19032e-07
2.52242e-07
-4.08325e-07
-5.08519e-08
6.3048e-07
1.2817e-07
-3.44734e-07
8.53612e-08
4.87261e-07
-2.49075e-08
-1.48484e-07
7.14866e-08
2.09024e-07
-1.41863e-07
9.3298e-08
-1.21785e-07
-7.47352e-08
-2.44979e-07
3.43886e-07
-4.75286e-07
-4.88262e-07
-5.46466e-07
7.55035e-07
-6.09084e-07
-1.20654e-06
-1.07713e-06
1.16822e-06
-3.54909e-07
-1.90917e-06
-1.18575e-06
1.32295e-06
-1.07823e-07
-1.59217e-06
-9.2628e-07
1.11403e-06
-2.24635e-08
-1.00925e-06
-7.16221e-07
8.5377e-07
7.7147e-09
-6.80625e-07
-5.61126e-07
6.67858e-07
1.52628e-08
-4.78888e-07
-4.54731e-07
5.36844e-07
9.46093e-09
-3.60794e-07
-3.85472e-07
4.54396e-07
-3.0728e-07
-3.50748e-07
4.12293e-07
-3.1839e-07
4.07812e-07
1.56581e-07
-2.91967e-09
-4.06386e-07
2.7351e-07
1.3852e-07
-1.00375e-07
-4.56541e-07
2.88335e-07
1.16738e-07
-1.26484e-07
-4.52882e-07
2.21861e-07
9.04221e-08
-1.40857e-07
-4.60072e-07
3.25527e-07
1.40506e-07
-2.09604e-07
-5.24538e-07
4.33419e-07
2.89836e-07
-3.15622e-07
-6.68749e-07
5.38498e-07
4.40158e-07
-3.93455e-07
-8.11301e-07
4.52008e-07
4.10656e-07
-3.44933e-07
-8.54784e-07
2.21763e-07
1.67824e-07
-1.6761e-07
-8.03014e-07
-3.82673e-08
-9.74603e-08
4.32314e-08
-6.89628e-07
-2.07171e-07
-2.76014e-07
1.74615e-07
-5.74085e-07
-2.26423e-07
-3.10862e-07
1.97269e-07
-5.14676e-07
-1.39221e-07
-2.07951e-07
1.36134e-07
-5.1135e-07
-3.78094e-08
-8.23134e-08
5.90245e-08
-5.26466e-07
2.17442e-08
-9.54783e-09
5.88903e-09
-5.39711e-07
4.65243e-08
1.53569e-08
-1.83887e-08
-5.44851e-07
4.10656e-08
2.02915e-08
-2.53597e-08
-5.4043e-07
2.36778e-08
1.40906e-08
-2.18635e-08
-5.26764e-07
-2.96112e-09
1.15569e-08
-1.82517e-08
-5.07341e-07
-2.9117e-08
1.49208e-08
-1.713e-08
-4.83696e-07
-5.10864e-08
2.84833e-08
-2.40868e-08
-4.59157e-07
-6.19035e-08
4.85895e-08
-3.49022e-08
-4.36594e-07
-5.79241e-08
7.5044e-08
-5.08624e-08
-4.17125e-07
-3.79897e-08
9.82663e-08
-6.92306e-08
-3.97905e-07
-6.98368e-09
1.11709e-07
-8.72336e-08
-3.77188e-07
2.68555e-08
1.19191e-07
-1.03801e-07
-3.54134e-07
6.03172e-08
1.23688e-07
-1.17717e-07
-3.3031e-07
8.83326e-08
1.23425e-07
-1.25192e-07
-3.04685e-07
1.02958e-07
1.17509e-07
-1.2541e-07
-2.75409e-07
9.86854e-08
1.07386e-07
-1.18152e-07
-2.43085e-07
7.67109e-08
9.27993e-08
-1.02678e-07
-2.13924e-07
4.14413e-08
7.63495e-08
-8.04889e-08
-1.96138e-07
-1.8605e-09
6.44728e-08
-5.69558e-08
-1.96361e-07
-4.06992e-08
6.41191e-08
-3.97171e-08
-2.14471e-07
-7.03685e-08
7.5306e-08
-3.23871e-08
-2.42758e-07
-8.98636e-08
1.00121e-07
-4.05078e-08
-2.69332e-07
-1.01508e-07
1.33935e-07
-5.97765e-08
-2.88117e-07
-1.02965e-07
1.72256e-07
-8.59293e-08
-2.99357e-07
-9.80925e-08
2.19497e-07
-1.16738e-07
-3.01127e-07
-7.76916e-08
2.74771e-07
-1.56079e-07
-2.90962e-07
-3.49065e-08
3.28008e-07
-1.9884e-07
-2.64113e-07
2.0907e-08
3.7449e-07
-2.39576e-07
-2.16604e-07
1.18696e-07
4.06434e-07
-2.83752e-07
-1.34804e-07
2.49367e-07
4.10459e-07
-3.31069e-07
-5.96445e-09
3.51534e-07
3.9007e-07
-3.60737e-07
1.66984e-07
4.27493e-07
3.36884e-07
-3.62026e-07
3.93319e-07
4.77095e-07
2.50451e-07
-3.34848e-07
6.25992e-07
5.27916e-07
1.25005e-07
-2.55114e-07
8.12794e-07
4.01229e-07
-9.08919e-09
-9.16802e-08
9.14029e-07
1.04345e-07
-8.48369e-08
8.82811e-08
8.72282e-07
-1.46229e-07
-1.64735e-07
2.77975e-07
6.39956e-07
-3.88334e-07
-3.86164e-07
5.18562e-07
1.10844e-07
-8.2054e-07
-7.37519e-07
8.80627e-07
-2.37996e-07
-1.75478e-06
-1.18085e-06
1.3753e-06
-3.04047e-08
-2.03651e-06
-1.03672e-06
1.27346e-06
4.6797e-08
-1.22187e-06
-7.89852e-07
9.25274e-07
5.26706e-08
-7.89242e-07
-6.03109e-07
7.05852e-07
4.11814e-08
-5.44336e-07
-4.80984e-07
5.57921e-07
2.14735e-08
-4.0417e-07
-4.0335e-07
4.66434e-07
-3.41582e-07
-3.6522e-07
4.20995e-07
-3.86003e-07
5.73654e-07
3.3144e-07
-1.11279e-07
-4.87444e-07
3.00793e-07
1.95482e-07
-1.21324e-07
-5.35168e-07
3.52036e-07
1.30303e-07
-1.4628e-07
-5.02824e-07
2.71236e-07
7.20122e-08
-1.53732e-07
-4.75531e-07
4.06222e-07
1.37738e-07
-2.45726e-07
-5.19148e-07
5.08156e-07
3.5036e-07
-3.8148e-07
-6.60048e-07
5.67325e-07
5.8352e-07
-4.71448e-07
-8.0454e-07
4.32155e-07
5.66175e-07
-4.0183e-07
-8.18526e-07
1.75041e-07
2.5034e-07
-1.89632e-07
-7.56129e-07
-8.49054e-08
-8.74896e-08
7.17311e-08
-6.4936e-07
-1.55542e-07
-3.76556e-07
2.18158e-07
-5.28045e-07
-9.94818e-08
-4.79541e-07
2.31285e-07
-4.55486e-07
-4.02879e-08
-3.16885e-07
1.45393e-07
-4.44891e-07
1.54112e-08
-1.13584e-07
4.97681e-08
-4.51949e-07
4.64521e-08
-4.8627e-09
-1.27873e-08
-4.52817e-07
5.53707e-08
3.21127e-08
-4.00903e-08
-4.39121e-07
3.70698e-08
3.47545e-08
-4.44548e-08
-4.13908e-07
7.21543e-09
3.03037e-08
-3.90545e-08
-3.78942e-07
-2.60162e-08
2.0709e-08
-3.26202e-08
-3.36025e-07
-6.20579e-08
2.01445e-08
-3.01207e-08
-2.88284e-07
-1.03639e-07
3.96788e-08
-3.48662e-08
-2.40731e-07
-1.37819e-07
7.47093e-08
-4.63466e-08
-1.90722e-07
-1.57549e-07
1.12299e-07
-6.2683e-08
-1.38974e-07
-1.4271e-07
1.33519e-07
-8.05471e-08
-8.81705e-08
-9.81153e-08
1.39904e-07
-9.95756e-08
-4.12781e-08
-4.36269e-08
1.43805e-07
-1.20214e-07
8.60993e-09
6.70415e-10
1.5062e-07
-1.40861e-07
6.99492e-08
3.21489e-08
1.49267e-07
-1.54423e-07
1.39405e-07
5.52579e-08
1.3573e-07
-1.57486e-07
2.1339e-07
5.74273e-08
1.17621e-07
-1.50348e-07
2.87513e-07
3.78112e-08
9.792e-08
-1.33143e-07
3.54659e-07
5.97577e-09
7.64104e-08
-1.08091e-07
4.06269e-07
-3.2578e-08
5.834e-08
-7.92324e-08
4.32608e-07
-6.25492e-08
4.95607e-08
-5.40497e-08
4.33794e-07
-8.37511e-08
5.08644e-08
-3.86677e-08
4.16241e-07
-9.92276e-08
6.05953e-08
-3.36789e-08
3.89496e-07
-1.16951e-07
8.4323e-08
-4.21354e-08
3.70798e-07
-1.41096e-07
1.19019e-07
-6.21886e-08
3.64012e-07
-1.69558e-07
1.67597e-07
-8.93461e-08
3.65735e-07
-1.88183e-07
2.33472e-07
-1.24703e-07
3.8374e-07
-1.87874e-07
3.02428e-07
-1.67465e-07
4.14511e-07
-1.69849e-07
3.67524e-07
-2.07539e-07
4.64178e-07
-9.26762e-08
4.16149e-07
-2.54443e-07
5.69607e-07
2.28242e-08
4.17513e-07
-2.964e-07
7.05868e-07
1.35664e-07
3.939e-07
-3.14291e-07
8.12265e-07
2.48137e-07
3.83215e-07
-3.10256e-07
9.29546e-07
2.82281e-07
3.70019e-07
-2.92487e-07
1.23119e-06
2.55956e-07
2.18172e-07
-2.47853e-07
1.59713e-06
1.58472e-07
5.22424e-09
-1.28406e-07
1.79768e-06
-6.88516e-08
-5.25822e-08
2.52233e-08
1.81942e-06
-2.38657e-07
-8.94881e-08
1.60178e-07
1.69672e-06
-3.85463e-07
-1.71068e-07
2.90893e-07
1.25917e-06
-6.02646e-07
-3.23845e-07
5.43503e-07
4.48307e-07
-1.26915e-06
-7.56168e-07
1.0814e-06
1.6015e-07
-2.05834e-06
-1.12341e-06
1.43341e-06
1.56739e-07
-1.33148e-06
-8.94861e-07
1.00788e-06
1.19828e-07
-8.3128e-07
-6.66531e-07
7.4548e-07
7.93982e-08
-5.6074e-07
-5.23026e-07
5.79861e-07
3.90731e-08
-4.08905e-07
-4.33957e-07
4.79017e-07
-3.41723e-07
-3.90811e-07
4.30025e-07
-5.62255e-07
7.93305e-07
5.05098e-07
-1.62495e-07
-5.85653e-07
1.95447e-07
2.88096e-07
-1.59352e-07
-5.23386e-07
2.84736e-07
1.89732e-07
-1.84699e-07
-3.72788e-07
2.54382e-07
4.01682e-08
-1.73913e-07
-2.06198e-07
4.25428e-07
9.43429e-08
-2.80139e-07
-1.36457e-07
4.93988e-07
3.83499e-07
-4.39073e-07
-1.51588e-07
4.37755e-07
6.98841e-07
-5.5414e-07
-1.63812e-07
2.6969e-07
6.53935e-07
-4.79245e-07
-9.43355e-08
4.65524e-08
3.0975e-07
-2.50738e-07
-4.94043e-08
-1.3017e-07
-1.26853e-08
1.30185e-08
-5.2089e-08
-1.37066e-07
-2.24356e-07
2.08565e-07
2.26731e-09
1.37266e-08
-3.94366e-07
2.26801e-07
9.69764e-08
1.16239e-07
-3.9625e-07
1.45014e-07
1.5947e-07
1.12928e-07
-2.04095e-07
4.40844e-08
1.87935e-07
8.44862e-08
-5.05335e-08
-1.59657e-08
2.23542e-07
6.06782e-08
-9.43451e-09
-3.14795e-08
2.66802e-07
3.07769e-08
-1.28128e-08
-2.41546e-08
3.0171e-07
9.20401e-09
-3.28985e-08
-3.99812e-09
3.36291e-07
-5.23711e-09
-7.18273e-08
1.64667e-08
3.74529e-07
-3.15467e-08
-9.35522e-08
2.48037e-08
4.12997e-07
-8.86687e-08
-7.04024e-08
1.69637e-08
4.47914e-07
-1.66637e-07
1.62623e-09
-7.7259e-09
4.90037e-07
-2.31613e-07
7.11927e-08
-3.92525e-08
5.36425e-07
-2.57071e-07
1.38993e-07
-7.10198e-08
5.90499e-07
-2.33601e-07
1.8496e-07
-1.03548e-07
6.55915e-07
-1.77152e-07
2.00147e-07
-1.32038e-07
7.36344e-07
-1.24558e-07
2.00155e-07
-1.55355e-07
8.29032e-07
-8.23063e-08
1.94691e-07
-1.72925e-07
9.3985e-07
-5.10707e-08
1.76481e-07
-1.80971e-07
1.06023e-06
-3.39204e-08
1.45996e-07
-1.75032e-07
1.17396e-06
-3.03813e-08
1.1245e-07
-1.5798e-07
1.27142e-06
-4.05288e-08
8.20076e-08
-1.32964e-07
1.34514e-06
-5.72859e-08
5.6564e-08
-1.05577e-07
1.39247e-06
-6.79516e-08
3.94749e-08
-8.14021e-08
1.41099e-06
-6.98063e-08
3.02227e-08
-6.2687e-08
1.40634e-06
-6.95439e-08
2.92082e-08
-5.42429e-08
1.38871e-06
-7.51718e-08
3.40877e-08
-5.82418e-08
1.37127e-06
-9.69037e-08
4.67361e-08
-7.34862e-08
1.3645e-06
-1.38516e-07
6.92787e-08
-9.35529e-08
1.36975e-06
-1.82091e-07
1.15991e-07
-1.27334e-07
1.39078e-06
-2.38721e-07
1.99549e-07
-1.69734e-07
1.42123e-06
-2.89794e-07
3.0507e-07
-2.15568e-07
1.48993e-06
-2.99301e-07
4.13184e-07
-2.7526e-07
1.61203e-06
-2.4295e-07
4.68153e-07
-3.24485e-07
1.73723e-06
-8.95171e-08
4.44891e-07
-3.44905e-07
1.80764e-06
1.22733e-07
4.13398e-07
-3.58405e-07
1.87996e-06
1.83091e-07
3.81815e-07
-3.54947e-07
2.175e-06
1.91262e-09
2.80672e-07
-3.21665e-07
2.63052e-06
-2.06547e-07
1.1585e-07
-2.06356e-07
2.73976e-06
-1.70945e-07
-2.03736e-09
-5.10351e-09
2.69833e-06
-2.09831e-07
-8.47328e-08
9.73373e-08
2.5653e-06
-2.95757e-07
-1.53113e-07
1.96434e-07
2.21769e-06
-4.20914e-07
-2.30821e-07
3.96703e-07
1.26322e-06
-8.2854e-07
-4.70698e-07
9.84549e-07
5.09489e-07
-1.65125e-06
-1.16156e-06
1.50821e-06
3.44403e-07
-1.23128e-06
-1.02139e-06
1.08628e-06
2.34703e-07
-7.46567e-07
-7.56892e-07
7.81879e-07
1.45647e-07
-4.80372e-07
-5.8971e-07
5.98398e-07
6.96117e-08
-3.34509e-07
-4.87257e-07
4.88896e-07
-2.71072e-07
-4.3773e-07
4.36691e-07
-4.64992e-07
5.23129e-07
1.72171e-06
-9.86545e-07
-4.87238e-07
1.60603e-07
3.69161e-07
-3.12071e-07
-3.07698e-07
1.86628e-07
8.81396e-08
-1.69571e-07
-2.59827e-08
5.84654e-08
1.2311e-07
-2.0891e-07
3.75923e-07
7.93762e-08
2.01814e-07
-2.57668e-07
8.52615e-07
1.05816e-07
2.35694e-07
-3.24214e-07
1.3006e-06
1.62775e-07
1.60547e-07
-3.33557e-07
1.58468e-06
1.8063e-07
3.78902e-08
-2.32904e-07
1.6355e-06
1.38425e-07
-7.21802e-08
-7.05091e-08
1.48963e-06
7.68193e-08
-1.2431e-07
6.31869e-08
1.33543e-06
1.47596e-09
-1.26244e-07
1.419e-07
1.34158e-06
-3.98377e-08
-8.88588e-08
1.36278e-07
1.47743e-06
-4.96832e-08
-6.04844e-08
9.05518e-08
1.62583e-06
-3.37273e-08
-3.56774e-08
3.3928e-08
1.73906e-06
-5.08768e-09
-1.87069e-08
-4.94976e-09
1.8193e-06
1.57816e-08
-1.47637e-08
-2.05738e-08
1.85202e-06
3.53863e-08
-1.56757e-08
-2.16521e-08
1.84207e-06
4.99312e-08
-1.28528e-08
-1.79284e-08
1.79601e-06
6.59952e-08
-9.18329e-09
-1.5985e-08
1.72286e-06
6.57218e-08
-6.65139e-09
-1.74723e-08
1.6328e-06
3.22415e-08
-4.69333e-09
-2.61557e-08
1.54134e-06
-3.22888e-08
-2.32677e-09
-4.05603e-08
1.49205e-06
-1.3048e-07
3.11625e-09
-5.49611e-08
1.49968e-06
-2.07494e-07
1.18684e-08
-6.90735e-08
1.55478e-06
-2.25633e-07
2.02008e-08
-8.32677e-08
1.64411e-06
-1.92227e-07
2.14706e-08
-9.5728e-08
1.74914e-06
-1.42012e-07
2.10828e-08
-1.08659e-07
1.8637e-06
-9.6596e-08
2.20489e-08
-1.22317e-07
1.9849e-06
-6.41431e-08
2.13639e-08
-1.29495e-07
2.10786e-06
-4.59046e-08
1.67936e-08
-1.27769e-07
2.22105e-06
-3.7746e-08
1.15011e-08
-1.17329e-07
2.31335e-06
-3.67395e-08
8.9521e-09
-1.05038e-07
2.37909e-06
-3.92133e-08
6.39719e-09
-9.02057e-08
2.4212e-06
-4.02027e-08
4.23002e-09
-7.40886e-08
2.44659e-06
-3.76018e-08
2.50737e-09
-6.01029e-08
2.45672e-06
-3.19901e-08
1.19558e-09
-4.888e-08
2.45444e-06
-2.63622e-08
9.71688e-10
-4.74999e-08
2.43944e-06
-2.46287e-08
1.56594e-09
-5.88424e-08
2.41349e-06
-3.27961e-08
2.93946e-09
-8.271e-08
2.39941e-06
-5.77998e-08
4.96448e-09
-1.15182e-07
2.40249e-06
-1.03081e-07
6.27465e-09
-1.44992e-07
2.42965e-06
-1.4947e-07
1.16441e-08
-1.79128e-07
2.48873e-06
-1.67604e-07
2.06174e-08
-2.11388e-07
2.57684e-06
-1.17555e-07
3.20992e-08
-2.45609e-07
2.73359e-06
-1.44556e-09
6.0048e-08
-3.04863e-07
2.97494e-06
1.35355e-07
8.52084e-08
-3.39187e-07
3.19171e-06
1.59776e-07
6.95142e-08
-2.6297e-07
3.19384e-06
7.44032e-08
1.89051e-08
-9.35203e-08
3.08471e-06
-1.05064e-07
-6.12657e-09
1.37763e-08
2.93017e-06
-4.16379e-08
-3.2497e-08
5.77248e-08
2.81218e-06
-5.02453e-08
-1.3499e-07
9.33911e-08
2.66858e-06
-8.66817e-08
-2.18692e-07
1.53214e-07
2.39431e-06
-1.43012e-07
-3.19517e-07
3.15893e-07
1.61237e-06
-2.99782e-07
-6.69196e-07
9.22379e-07
7.96649e-07
-4.78989e-07
-1.91964e-06
1.56309e-06
4.99389e-07
-3.32082e-07
-1.77654e-06
1.17461e-06
3.13062e-07
-1.72945e-07
-1.21792e-06
8.30623e-07
1.84336e-07
-9.02867e-08
-8.87099e-07
6.2574e-07
8.59358e-08
-4.58694e-08
-6.95917e-07
5.05677e-07
-2.72297e-08
-6.069e-07
4.48994e-07
-2.21886e-07
2.19446e-07
1.69517e-06
-1.16961e-06
-2.59124e-07
1.77406e-07
3.08825e-07
-2.8839e-07
-1.20205e-07
1.41153e-07
5.91364e-08
-1.52581e-07
6.69375e-08
7.69653e-09
2.67107e-08
-1.63084e-07
3.24435e-07
-2.46203e-09
5.89069e-08
-2.34567e-07
5.77839e-07
5.42471e-08
1.085e-07
-3.10336e-07
7.80875e-07
1.94763e-07
9.02653e-08
-3.25289e-07
9.4502e-07
2.28953e-07
5.36844e-08
-2.66153e-07
1.11807e-06
1.0407e-07
1.06593e-09
-1.39759e-07
1.24357e-06
9.16889e-10
-5.347e-08
3.87534e-09
1.32017e-06
-9.37311e-08
-7.18886e-08
9.04917e-08
1.43047e-06
-1.9392e-07
-5.82018e-08
1.01986e-07
1.55117e-06
-2.05349e-07
-3.47698e-08
6.97336e-08
1.64279e-06
-1.35396e-07
-2.50436e-08
3.50896e-08
1.69737e-06
-5.2489e-08
-1.87691e-08
1.15943e-08
1.72395e-06
5.52359e-09
-1.52623e-08
-1.06429e-09
1.7296e-06
4.07693e-08
-1.16813e-08
6.50094e-10
1.72326e-06
5.94261e-08
-8.63555e-09
5.48341e-09
1.71545e-06
6.9321e-08
-8.66174e-09
1.31448e-08
1.7055e-06
6.8237e-08
-9.70538e-09
1.7145e-08
1.67425e-06
5.54865e-08
-1.04073e-08
1.84082e-08
1.59649e-06
3.6914e-08
-8.17421e-09
1.67306e-08
1.47273e-06
-2.18039e-09
-2.12402e-09
-2.41633e-09
1.34737e-06
-6.25837e-08
8.25282e-09
-2.78051e-08
1.28713e-06
-1.27179e-07
1.99475e-08
-5.81566e-08
1.29698e-06
-1.47909e-07
2.40886e-08
-7.82607e-08
1.36529e-06
-1.38826e-07
1.56799e-08
-8.71771e-08
1.46697e-06
-1.09663e-07
6.62197e-09
-9.52303e-08
1.56657e-06
-7.09266e-08
2.88222e-09
-9.57012e-08
1.65781e-06
-4.4195e-08
9.48608e-10
-9.38968e-08
1.73359e-06
-2.64718e-08
-5.78197e-10
-8.64777e-08
1.78691e-06
-1.75784e-08
-6.97305e-10
-7.17766e-08
1.81893e-06
-1.77387e-08
2.59735e-10
-5.37558e-08
1.83841e-06
-2.38814e-08
2.39877e-10
-3.60409e-08
1.85246e-06
-2.95315e-08
-8.29853e-10
-2.12937e-08
1.864e-06
-3.29405e-08
-1.66207e-09
-8.93175e-09
1.8696e-06
-2.91448e-08
-1.76634e-09
-1.04777e-09
1.87072e-06
-2.4684e-08
-1.33488e-09
2.67746e-10
1.86874e-06
-1.95471e-08
-3.28133e-10
-1.0937e-08
1.85876e-06
-2.09703e-08
1.80996e-10
-2.70312e-08
1.84551e-06
-3.90703e-08
8.21715e-10
-5.15799e-08
1.84928e-06
-6.96812e-08
6.7153e-09
-9.02778e-08
1.87882e-06
-8.49717e-08
1.32455e-08
-1.25421e-07
1.98497e-06
-7.00664e-08
1.91734e-08
-1.72808e-07
2.20792e-06
-1.22768e-08
1.76929e-08
-2.29807e-07
2.47589e-06
5.04942e-08
9.67098e-09
-1.92789e-07
2.59304e-06
9.0225e-08
9.2504e-09
-5.68509e-08
2.49366e-06
1.00151e-07
2.06966e-08
5.29404e-08
2.22007e-06
7.46624e-08