/*--------------------------------*- C++ -*----------------------------------*\
| =========                 |                                                 |
| \\      /  F ield         | OpenFOAM: The Open Source CFD Toolbox           |
|  \\    /   O peration     | Version:  2.1.1                                 |
|   \\  /    A nd           | Web:      www.OpenFOAM.org                      |
|    \\/     M anipulation  |                                                 |
\*---------------------------------------------------------------------------*/
FoamFile
{
    version     2.0;
    format      ascii;
    class       volSymmTensorField;
    location    "0.0012";
    object      R;
}
// * * * * * * * * * * * * * * * * * * * * * * * * * * * * * * * * * * * * * //

dimensions      [0 2 -2 0 0 0 0];

internalField   nonuniform List<symmTensor> 
36520
(
(0.106236 0.00114781 0.0304092 0.0321812 0.00528979 0.046139)
(0.217916 -0.0254095 0.051664 0.0796208 -0.00627063 0.0720345)
(0.370432 -0.0316827 0.10184 0.139756 -0.0138777 0.127141)
(0.436053 -0.0381419 0.130383 0.170701 -0.0209018 0.156623)
(0.502113 -0.0353817 0.154689 0.194 -0.0220326 0.181602)
(0.541664 -0.0306566 0.172685 0.207919 -0.0207047 0.199179)
(0.564526 -0.0233971 0.185838 0.215437 -0.0160738 0.211154)
(0.561062 -0.0172637 0.190907 0.215161 -0.0103211 0.215781)
(0.540471 -0.0144609 0.187881 0.208931 -0.00518613 0.212879)
(0.512643 -0.0158928 0.179348 0.199511 -0.00319512 0.204537)
(0.491974 -0.0189381 0.170697 0.191636 -0.00344043 0.195804)
(0.481119 -0.0224086 0.164396 0.186412 -0.00547142 0.188904)
(0.472813 -0.0239978 0.159307 0.18189 -0.00728257 0.182615)
(0.463079 -0.0244404 0.15472 0.176991 -0.00863501 0.176561)
(0.448478 -0.0237228 0.149406 0.170764 -0.00904306 0.169661)
(0.429456 -0.0229645 0.142991 0.163077 -0.00909426 0.161595)
(0.407736 -0.0222097 0.135776 0.154529 -0.0089399 0.152838)
(0.384949 -0.0216568 0.128052 0.145535 -0.008833 0.143592)
(0.361726 -0.0211086 0.120025 0.136376 -0.00879906 0.134182)
(0.339053 -0.0204027 0.112021 0.127314 -0.00876176 0.124797)
(0.316538 -0.0194221 0.104002 0.118301 -0.00866149 0.115435)
(0.294825 -0.0180697 0.0962756 0.109544 -0.00838669 0.106364)
(0.273066 -0.0163914 0.0886789 0.100828 -0.00791888 0.0974403)
(0.251559 -0.0144892 0.0813447 0.0922764 -0.00726503 0.0888343)
(0.229949 -0.0124461 0.0741347 0.0838056 -0.00646014 0.0804295)
(0.208675 -0.0103847 0.06717 0.075586 -0.00554778 0.072364)
(0.187659 -0.00844412 0.0604163 0.0676171 -0.00460005 0.0646233)
(0.167274 -0.00676174 0.0539583 0.060016 -0.00369674 0.0573265)
(0.147678 -0.00542655 0.0477891 0.0528169 -0.0029165 0.0504654)
(0.129287 -0.0044344 0.0420018 0.0461295 -0.00228972 0.0441237)
(0.112332 -0.00373552 0.0366355 0.0400125 -0.00182159 0.0383232)
(0.0971388 -0.00327154 0.0317737 0.0345669 -0.00150693 0.033129)
(0.0838259 -0.0029632 0.0274466 0.0298218 -0.00131579 0.0285453)
(0.0724655 -0.00273484 0.0236831 0.0257897 -0.00121054 0.0245791)
(0.0630011 -0.0025275 0.0204781 0.0224546 -0.00115653 0.0212153)
(0.0552711 -0.00229115 0.0177981 0.0197544 -0.00112061 0.0184057)
(0.0490503 -0.00199812 0.0155945 0.0176017 -0.00107457 0.0160981)
(0.0440949 -0.00163707 0.0138024 0.0159028 -0.00100795 0.014226)
(0.0401402 -0.00118369 0.0123482 0.0145582 -0.000903547 0.0127067)
(0.0369193 -0.000636501 0.0111586 0.0134759 -0.000752952 0.0114617)
(0.0342162 -1.62998e-05 0.010177 0.012583 -0.000554347 0.0104308)
(0.0319066 0.000641472 0.00937164 0.011847 -0.000314613 0.00957836)
(0.0301138 0.00130675 0.00876645 0.0113276 -4.47577e-05 0.00894095)
(0.0291507 0.00199469 0.00843907 0.0111413 0.000254571 0.00861945)
(0.0289633 0.00274477 0.00840051 0.0112755 0.000612739 0.0086221)
(0.0287636 0.00347282 0.00848419 0.0114118 0.0010446 0.0087647)
(0.0253266 0.0036534 0.00776777 0.0102213 0.00137375 0.00812724)
(0.0193782 0.00321472 0.00625623 0.00798734 0.00150069 0.00679348)
(0.0132187 0.00239338 0.0043903 0.00564066 0.00140699 0.00524437)
(0.00826206 0.0014496 0.0025463 0.00365643 0.00112727 0.00376439)
(0.00494859 0.000672551 0.00109331 0.00223734 0.00075887 0.00251307)
(0.00225015 0.000204838 0.000312509 0.0011359 0.00040985 0.00127371)
(0.000603542 4.00224e-05 6.29583e-05 0.000473521 0.000195542 0.000439691)
(0.000153346 1.02788e-05 3.1946e-05 0.000258887 0.000129465 0.000192556)
(0.000116095 -1.67863e-05 1.83062e-06 0.000205468 0.000104434 0.000153966)
(0.000111179 -1.06953e-05 5.54321e-06 0.000167226 8.06943e-05 0.000133173)
(0.000117762 -2.22978e-05 -1.76781e-05 0.000148254 6.65487e-05 0.000126007)
(0.000110555 -4.14715e-06 8.45601e-06 0.00013105 5.29075e-05 0.000116581)
(0.000120817 -1.40048e-05 -2.05539e-05 0.000129042 4.74378e-05 0.00011871)
(0.00014138 -1.79022e-05 2.01479e-05 0.000151426 4.64657e-05 0.000140064)
(0.0655028 -0.00426789 0.0115657 0.0188584 -0.000718269 0.019106)
(0.0812659 -0.00926633 0.0186581 0.02937 -0.00232148 0.0260209)
(0.0978567 -0.00737711 0.0262567 0.0368323 -0.00312417 0.0337652)
(0.0926747 -0.00627412 0.0268453 0.0358821 -0.00306868 0.0334244)
(0.091204 -0.00468454 0.0272171 0.0351623 -0.00263967 0.0332681)
(0.0832169 -0.00330405 0.025779 0.0321437 -0.00205284 0.0311087)
(0.0721466 -0.00206935 0.0231266 0.0280887 -0.00127199 0.0276936)
(0.0563778 -0.00137447 0.0185939 0.022395 -0.0006142 0.0224633)
(0.0444475 -0.00128258 0.014757 0.0180119 -0.000300987 0.0181609)
(0.0401114 -0.00157075 0.0132231 0.016391 -0.000314122 0.0164585)
(0.0396266 -0.00188559 0.0128709 0.0160907 -0.0004227 0.0160357)
(0.0393789 -0.0020573 0.0125891 0.0157799 -0.000561891 0.0155944)
(0.0388558 -0.00202369 0.0122945 0.0153646 -0.000641218 0.0150922)
(0.0377461 -0.00188414 0.0118962 0.0147837 -0.000661758 0.014479)
(0.0361367 -0.00171131 0.011384 0.0140911 -0.000635895 0.0137628)
(0.0344209 -0.00158183 0.0108445 0.0133889 -0.000607685 0.0130392)
(0.0323196 -0.00145884 0.0101645 0.0125503 -0.000572382 0.0121804)
(0.0304925 -0.00136859 0.00955745 0.011806 -0.000550383 0.0114139)
(0.0288453 -0.00128262 0.00899453 0.0111276 -0.00053303 0.0107097)
(0.0276694 -0.00120419 0.00858334 0.0106153 -0.00051979 0.0101701)
(0.0267022 -0.0011247 0.00824107 0.0101828 -0.000509003 0.00970618)
(0.0258252 -0.00103143 0.0079389 0.0097809 -0.000492077 0.00927786)
(0.024662 -0.000918357 0.00756275 0.00928111 -0.000463903 0.0087636)
(0.0231173 -0.000782336 0.00707972 0.00864998 -0.000418877 0.00813618)
(0.0212274 -0.000636163 0.00649672 0.00790892 -0.000363241 0.00741174)
(0.0191363 -0.000493738 0.00585651 0.00711077 -0.000302584 0.00664126)
(0.0168683 -0.000366593 0.00516541 0.00626466 -0.00024284 0.00583412)
(0.0144977 -0.00026207 0.00443947 0.00539433 -0.000187618 0.00501349)
(0.0122039 -0.000185612 0.00372745 0.00456086 -0.00014355 0.00423195)
(0.0101257 -0.000131909 0.00306959 0.00380956 -0.000111535 0.00352965)
(0.00836661 -9.49113e-05 0.00249701 0.00317674 -9.03887e-05 0.00293658)
(0.00701398 -6.9168e-05 0.00203728 0.00269349 -7.89195e-05 0.00247873)
(0.00610684 -5.01737e-05 0.00170447 0.00237305 -7.49965e-05 0.00216662)
(0.005617 -3.50076e-05 0.00149013 0.00220477 -7.69692e-05 0.00198839)
(0.00549673 -2.2086e-05 0.00137944 0.00217198 -8.35139e-05 0.00192679)
(0.00567615 -7.39106e-06 0.00134909 0.00225043 -9.33864e-05 0.00195676)
(0.00601837 1.63669e-05 0.00135215 0.00239255 -0.000103842 0.00203425)
(0.00646249 5.58109e-05 0.00136543 0.00257698 -0.000112825 0.00214041)
(0.00697096 0.000117602 0.00137281 0.00279135 -0.000118069 0.00226507)
(0.00751075 0.000205352 0.001358 0.0030262 -0.000117933 0.00240234)
(0.00807582 0.000318123 0.00130433 0.00327936 -0.000112237 0.00255634)
(0.00872853 0.000450076 0.00119883 0.00357259 -0.00010588 0.0027507)
(0.00965128 0.000597745 0.00103382 0.00397288 -0.000106338 0.00304623)
(0.011128 0.000773592 0.000790561 0.00458193 -0.000117514 0.00354428)
(0.0134136 0.000982191 0.000411182 0.0054759 -0.000145646 0.00434548)
(0.016315 0.00115402 -0.000214846 0.00651198 -0.000194107 0.0054327)
(0.018639 0.00115034 -0.00113921 0.0071201 -0.000269144 0.0064661)
(0.020544 0.000983762 -0.0021963 0.00736251 -0.000355337 0.00747896)
(0.0221215 0.000718341 -0.00300092 0.00741401 -0.000382027 0.00842044)
(0.022585 0.000409434 -0.00312306 0.00718872 -0.00030141 0.00882086)
(0.0194245 0.000151582 -0.00225886 0.0060071 -0.000110364 0.0076224)
(0.0111516 -2.14897e-05 -0.0010434 0.00353672 8.09315e-05 0.00452664)
(0.00347215 -9.30469e-05 -0.000342275 0.00119473 6.41712e-05 0.00147157)
(0.000330704 -2.40342e-05 -4.51386e-05 0.000124605 1.0386e-05 0.000153379)
(2.76353e-05 -4.39248e-06 -4.07902e-06 2.08848e-05 3.32561e-06 2.66535e-05)
(1.91635e-05 -3.22953e-06 -1.12163e-06 1.93065e-05 2.37667e-06 2.32231e-05)
(2.24357e-05 -2.93556e-06 -2.02563e-06 2.12819e-05 1.9078e-06 2.4364e-05)
(2.32047e-05 -1.93767e-06 2.87602e-07 2.23403e-05 1.42768e-06 2.46564e-05)
(2.892e-05 -1.6791e-06 -1.76535e-06 2.68034e-05 1.30006e-06 2.90439e-05)
(8.84859e-05 -1.73739e-05 1.00648e-06 8.68317e-05 1.7117e-06 8.98032e-05)
(0.0319096 -0.00197756 0.0026919 0.00827473 -0.000374665 0.00820481)
(0.0234786 -0.00271227 0.00503149 0.00847533 -0.000742542 0.00753774)
(0.0231284 -0.00168598 0.00598468 0.00869094 -0.000785852 0.00804341)
(0.0184778 -0.00113827 0.00517536 0.00716923 -0.000596363 0.00672659)
(0.0162073 -0.000751786 0.00468272 0.00628437 -0.000465373 0.00597504)
(0.0128357 -0.000444459 0.00384398 0.00500678 -0.000317499 0.00486465)
(0.00952478 -0.000226243 0.00292207 0.00378405 -0.000169927 0.00371856)
(0.0060619 -0.000125853 0.00184334 0.00250396 -6.25379e-05 0.00246036)
(0.00416202 -0.000123307 0.00116943 0.00179538 -1.92177e-05 0.00172727)
(0.0037868 -0.000177688 0.000960185 0.00166629 -1.30211e-05 0.0015782)
(0.00372909 -0.000194579 0.000959015 0.0016111 -3.18453e-05 0.00151384)
(0.00355595 -0.000169258 0.000975519 0.00148753 -5.85756e-05 0.00139104)
(0.00345338 -0.000150295 0.000952922 0.0014143 -7.11238e-05 0.00132465)
(0.0033358 -0.000129055 0.000915828 0.00135197 -7.39938e-05 0.00127034)
(0.00321046 -0.000109833 0.00087368 0.00129883 -7.2644e-05 0.00122171)
(0.00312681 -9.86467e-05 0.000840341 0.00126713 -7.1493e-05 0.00119123)
(0.00299407 -8.88052e-05 0.000787329 0.00121714 -7.00928e-05 0.00114379)
(0.00290998 -8.34542e-05 0.000746522 0.0011847 -7.05986e-05 0.0011138)
(0.00286057 -7.98896e-05 0.00071343 0.00116484 -7.2338e-05 0.00109698)
(0.00288341 -7.83198e-05 0.000700749 0.00117177 -7.56115e-05 0.00110674)
(0.00293094 -7.6999e-05 0.000694026 0.00118807 -7.93508e-05 0.00112468)
(0.0029883 -7.3769e-05 0.000689155 0.00120824 -8.24724e-05 0.00114552)
(0.00300091 -6.80381e-05 0.000668939 0.00121326 -8.41325e-05 0.00115166)
(0.00294754 -5.91337e-05 0.000625321 0.0011957 -8.41869e-05 0.00113699)
(0.00283827 -4.90354e-05 0.000559924 0.00116033 -8.35063e-05 0.00110622)
(0.00269707 -3.95385e-05 0.000478862 0.00111615 -8.31448e-05 0.00106881)
(0.00253584 -3.23812e-05 0.000385412 0.00106732 -8.38424e-05 0.00102919)
(0.00237101 -2.85556e-05 0.000282406 0.00101931 -8.60403e-05 0.00099318)
(0.00224202 -2.85601e-05 0.000180829 0.000985848 -9.05852e-05 0.000973053)
(0.00217279 -3.13402e-05 8.67132e-05 0.00097509 -9.77522e-05 0.000976445)
(0.00217905 -3.62215e-05 3.27065e-06 0.000992971 -0.000107734 0.00100848)
(0.00227152 -4.26504e-05 -6.83692e-05 0.00104326 -0.000120757 0.00107234)
(0.00245251 -4.9813e-05 -0.000129289 0.00112661 -0.000137139 0.00116704)
(0.00272391 -5.67869e-05 -0.00018159 0.0012437 -0.000157232 0.00129108)
(0.00308659 -6.23856e-05 -0.000228333 0.00139554 -0.000181661 0.00144091)
(0.00354767 -6.48587e-05 -0.00027128 0.00158537 -0.000210718 0.00161659)
(0.00412637 -6.45998e-05 -0.000320339 0.00182212 -0.000245233 0.00182553)
(0.00484417 -6.00296e-05 -0.000384562 0.00211445 -0.000286729 0.00207533)
(0.00573154 -4.93942e-05 -0.000474575 0.00247411 -0.000337127 0.0023759)
(0.00682844 -3.16945e-05 -0.000604405 0.00291589 -0.000398705 0.00274121)
(0.00820811 -1.03121e-05 -0.000798025 0.00346615 -0.000475546 0.0032009)
(0.0100058 6.22881e-06 -0.00108882 0.00417216 -0.000577806 0.00380545)
(0.0124973 7.87898e-06 -0.00152522 0.00512996 -0.000723529 0.00465329)
(0.0161877 -1.57536e-05 -0.00220121 0.00650619 -0.000936841 0.00591653)
(0.0218125 -8.06692e-05 -0.00326986 0.00853128 -0.00125137 0.00783348)
(0.0303961 -0.000252408 -0.00496474 0.0114776 -0.00170442 0.0106797)
(0.0429769 -0.000635171 -0.00750766 0.0155359 -0.00228054 0.0147313)
(0.0579139 -0.00128015 -0.0102574 0.0196328 -0.00272606 0.0193625)
(0.07088 -0.00184446 -0.0119536 0.0225129 -0.002777 0.0233399)
(0.0728307 -0.00183543 -0.0107227 0.0218936 -0.00228986 0.0238062)
(0.0602494 -0.0011455 -0.00683028 0.0175437 -0.00139908 0.0194814)
(0.0360172 -0.000307054 -0.0030867 0.0107237 -0.00046646 0.0118802)
(0.0135859 -0.000177271 -0.00112851 0.00445657 1.16237e-05 0.00486493)
(0.00197301 -9.96521e-05 -0.000232622 0.000673754 2.85273e-05 0.000762995)
(9.87671e-05 -7.29302e-06 -1.34624e-05 3.45974e-05 2.03049e-06 3.95287e-05)
(5.67385e-06 -7.2385e-07 -6.04888e-07 3.82205e-06 2.40859e-07 4.65315e-06)
(3.53417e-06 -4.34777e-07 -2.60971e-07 3.20669e-06 1.27617e-07 3.7412e-06)
(3.57442e-06 -3.09952e-07 -6.40842e-08 3.34806e-06 7.5108e-08 3.74013e-06)
(7.56926e-06 -4.3929e-07 -1.93158e-07 6.96517e-06 8.33714e-08 7.56188e-06)
(7.2829e-05 -1.45919e-05 -1.54036e-06 7.11926e-05 7.22816e-07 7.34568e-05)
(0.0161695 -0.000956709 0.000288394 0.00392368 -0.000328085 0.00403644)
(0.00703609 -0.000863255 0.00145731 0.00252497 -0.000264239 0.00228497)
(0.00564382 -0.000412553 0.001399 0.00212002 -0.000214294 0.00197862)
(0.00388921 -0.000241906 0.00101045 0.00153062 -0.000133609 0.0014445)
(0.00317965 -0.000168597 0.000781263 0.00128551 -9.66132e-05 0.00122531)
(0.00248752 -0.000135713 0.000493258 0.00106748 -5.68681e-05 0.00103323)
(0.0021873 -0.000165459 0.000203431 0.00103935 -2.0319e-05 0.00100214)
(0.00238221 -0.000295222 -0.000132845 0.00126606 2.42532e-05 0.00120277)
(0.0034594 -0.000578256 -0.000504088 0.00191724 9.17206e-05 0.00180343)
(0.00555618 -0.00110335 -0.00102167 0.00302184 0.000191918 0.00283651)
(0.00442537 -0.000923466 -0.0008349 0.00235352 0.000141469 0.00220743)
(0.00162204 -0.000257166 -0.000172075 0.000843632 6.33265e-06 0.000796255)
(0.000895529 -6.55848e-05 1.69367e-05 0.000441404 -3.14378e-05 0.000426714)
(0.000843279 -4.36454e-05 2.44211e-05 0.000408363 -3.85192e-05 0.000403268)
(0.000885828 -4.21123e-05 8.21005e-06 0.000429987 -4.34148e-05 0.000431351)
(0.000967461 -4.69146e-05 -1.36441e-05 0.000472526 -4.8628e-05 0.00047989)
(0.00106099 -5.46546e-05 -4.39334e-05 0.000521237 -5.45764e-05 0.000536233)
(0.00117823 -6.50072e-05 -7.79871e-05 0.000579731 -6.15923e-05 0.000604132)
(0.00132232 -7.76873e-05 -0.000117542 0.000648893 -7.01229e-05 0.000685016)
(0.00150419 -9.30936e-05 -0.000164338 0.000734183 -8.03514e-05 0.000784146)
(0.00170412 -0.000108118 -0.000213771 0.000825416 -9.18039e-05 0.000889141)
(0.00191728 -0.000121419 -0.000264384 0.000920603 -0.00010477 0.000995998)
(0.00216807 -0.000138476 -0.000326146 0.00103309 -0.000119487 0.00112081)
(0.00246623 -0.000160984 -0.000406118 0.00116808 -0.000136167 0.0012711)
(0.00281413 -0.000189635 -0.000505273 0.00132695 -0.000154291 0.00145003)
(0.0032265 -0.000226352 -0.000625763 0.00151569 -0.000174302 0.00166457)
(0.0037067 -0.000273058 -0.000766843 0.00173476 -0.00019594 0.0019153)
(0.00425992 -0.000332181 -0.000929669 0.00198494 -0.000218068 0.00220679)
(0.00487371 -0.000403671 -0.00110835 0.00225931 -0.000239565 0.0025354)
(0.00553703 -0.000485702 -0.00129794 0.00254966 -0.000260927 0.00289525)
(0.00623452 -0.000575835 -0.00149284 0.00284811 -0.000283514 0.00327905)
(0.00694966 -0.000669195 -0.00168722 0.00314566 -0.000310187 0.00367653)
(0.00764287 -0.000754298 -0.00186608 0.00342222 -0.000344744 0.00405782)
(0.00828708 -0.000820536 -0.00201604 0.0036644 -0.000391539 0.0043934)
(0.00890076 -0.000863741 -0.0021366 0.00388472 -0.000454385 0.00467741)
(0.00908061 -0.000792292 -0.00210077 0.00390402 -0.000548066 0.00469574)
(0.00948005 -0.000735096 -0.00209584 0.00402396 -0.000662691 0.00478699)
(0.0105072 -0.000774138 -0.00224738 0.00441376 -0.000789386 0.0051605)
(0.0119796 -0.000861907 -0.00249484 0.00498259 -0.000937171 0.00570955)
(0.0139494 -0.00100209 -0.00284208 0.00574282 -0.00111243 0.0064289)
(0.0165513 -0.00121876 -0.00332077 0.00673645 -0.0013185 0.0073721)
(0.0199231 -0.00155358 -0.0039605 0.00799716 -0.00155817 0.00858973)
(0.0242771 -0.00205393 -0.00478852 0.00958706 -0.00185421 0.0101414)
(0.0301839 -0.00279886 -0.00588875 0.0116977 -0.00223916 0.0122417)
(0.0386091 -0.00387859 -0.00741711 0.0146218 -0.00277102 0.0152044)
(0.051353 -0.00550144 -0.00956468 0.0188859 -0.00359303 0.0194994)
(0.0727207 -0.00824605 -0.0129376 0.025703 -0.00480101 0.026223)
(0.110918 -0.0128719 -0.0187739 0.0372049 -0.00625093 0.0375529)
(0.157531 -0.0170125 -0.0247559 0.0497437 -0.00720469 0.0507232)
(0.165679 -0.0136032 -0.0217269 0.0485355 -0.00682779 0.0507144)
(0.13633 -0.00692531 -0.0139716 0.0382276 -0.00505893 0.0401486)
(0.0865777 -0.00181248 -0.00696171 0.0249014 -0.00268975 0.0253859)
(0.0373064 -0.000173434 -0.0028628 0.011654 -0.000798887 0.011627)
(0.00811657 -0.000250472 -0.000796676 0.00267627 2.15539e-05 0.00285079)
(0.000550507 -3.22266e-05 -6.85262e-05 0.000181475 8.31508e-06 0.000196687)
(1.99751e-05 -1.36302e-06 -2.36025e-06 6.75086e-06 2.60586e-07 7.33898e-06)
(9.76022e-07 -9.24316e-08 -9.34997e-08 6.05212e-07 2.13994e-08 6.98681e-07)
(5.77074e-07 -4.97966e-08 -2.11851e-08 5.21883e-07 1.04544e-08 5.8505e-07)
(4.33871e-06 -2.71866e-07 -9.77321e-08 3.97369e-06 4.34682e-08 4.28996e-06)
(6.97161e-05 -1.40182e-05 -2.18423e-06 6.76633e-05 8.76695e-07 6.96497e-05)
(0.00889146 -0.000552664 -0.000278655 0.00209527 -0.00017868 0.00231422)
(0.00225886 -0.000281924 0.000416526 0.000831168 -9.48382e-05 0.00078803)
(0.0016947 -0.000158347 0.000252379 0.000717763 -6.27869e-05 0.000682143)
(0.00163693 -0.000199677 2.18268e-05 0.000826803 -3.76909e-05 0.000790619)
(0.00268963 -0.000385128 -0.00023006 0.00143807 -4.6633e-05 0.00138876)
(0.00524321 -0.00079679 -0.000711241 0.0028229 -7.02378e-05 0.00276019)
(0.0105943 -0.00167031 -0.0016751 0.00570517 -6.46212e-05 0.00555884)
(0.0206445 -0.00354517 -0.00359695 0.0112482 0.00015313 0.0107363)
(0.0369807 -0.0071985 -0.00708439 0.0201975 0.000805435 0.0188575)
(0.0619174 -0.0137107 -0.0128467 0.0327566 0.00188233 0.030236)
(0.0494879 -0.0119009 -0.011171 0.0258469 0.00166087 0.0237738)
(0.0158835 -0.00388962 -0.0038878 0.00847983 0.000457894 0.00786137)
(0.00366591 -0.000739437 -0.000864088 0.00200623 1.81651e-06 0.00194421)
(0.00207696 -0.000307504 -0.000445693 0.00114319 -5.63543e-05 0.00115424)
(0.00222616 -0.000301944 -0.000485912 0.00121314 -7.03032e-05 0.00124635)
(0.00268323 -0.000362668 -0.000613308 0.00144985 -8.08343e-05 0.0015075)
(0.00326195 -0.000445798 -0.000784634 0.00174557 -9.33971e-05 0.00183905)
(0.00398117 -0.000550639 -0.00100664 0.00210757 -0.000109411 0.00225453)
(0.00492429 -0.00068892 -0.00130334 0.00257451 -0.000131833 0.00280001)
(0.00626637 -0.000890467 -0.00172773 0.00323024 -0.000162004 0.00356795)
(0.00775141 -0.00109557 -0.00220613 0.00392697 -0.000201028 0.00440314)
(0.00919066 -0.00125766 -0.00267315 0.00456435 -0.000249279 0.00517832)
(0.0108219 -0.00143339 -0.00319 0.00527844 -0.000301102 0.00602155)
(0.0134248 -0.00176963 -0.00400498 0.00646325 -0.000357317 0.00738014)
(0.0170308 -0.00226358 -0.0051385 0.0081155 -0.000414602 0.00925794)
(0.0217678 -0.00293222 -0.00662999 0.0102733 -0.000472995 0.0116889)
(0.0278273 -0.00382597 -0.00852331 0.0130148 -0.000525568 0.0147364)
(0.0355415 -0.00503566 -0.010916 0.0164811 -0.000539558 0.0185702)
(0.0448114 -0.0066035 -0.0137711 0.0206356 -0.000480474 0.0231652)
(0.0554837 -0.00855595 -0.0170358 0.0253933 -0.000324414 0.0284444)
(0.067426 -0.0109432 -0.0206326 0.0307095 -4.13759e-05 0.0343391)
(0.0805556 -0.0137894 -0.0244984 0.0365336 0.000366027 0.0408194)
(0.0937317 -0.0169077 -0.0282216 0.0423017 0.000845383 0.0473143)
(0.106933 -0.0203171 -0.0317216 0.0479141 0.00130442 0.0535965)
(0.101267 -0.0199089 -0.0297927 0.0448995 0.00145198 0.0506321)
(0.0801243 -0.0158416 -0.0237354 0.035018 0.00115486 0.0404042)
(0.0570932 -0.010851 -0.0172179 0.0244064 0.000543227 0.0293044)
(0.0420181 -0.00729415 -0.0127921 0.0174375 -9.31901e-05 0.0219408)
(0.0368252 -0.00588347 -0.0110446 0.0149207 -0.000568618 0.0193019)
(0.0383382 -0.00606392 -0.0111456 0.0153812 -0.000879279 0.0197915)
(0.0421708 -0.00679666 -0.011804 0.016821 -0.00118094 0.021195)
(0.0480878 -0.00811553 -0.0129391 0.0191334 -0.00147386 0.0233674)
(0.0559845 -0.0100485 -0.0144436 0.022331 -0.00180229 0.0261683)
(0.0666186 -0.0127519 -0.0164586 0.0267009 -0.00214816 0.0299284)
(0.0811045 -0.0164557 -0.0191807 0.0325864 -0.00236993 0.0351962)
(0.0972526 -0.0199757 -0.022001 0.0387014 -0.00280115 0.0408138)
(0.122278 -0.0247611 -0.0257506 0.0472762 -0.00392191 0.0489015)
(0.172621 -0.0339756 -0.0320286 0.062927 -0.00572401 0.0636512)
(0.249703 -0.0439044 -0.0397231 0.0836311 -0.00798194 0.0847758)
(0.27062 -0.0349438 -0.0364796 0.0827195 -0.0100208 0.0862691)
(0.237052 -0.0166776 -0.0261102 0.0679241 -0.010557 0.0714773)
(0.172057 -0.00480214 -0.0150083 0.0492259 -0.00838719 0.0496592)
(0.0857763 -5.65156e-05 -0.00677195 0.0259211 -0.00371721 0.0245946)
(0.0247426 -0.000244397 -0.00200893 0.00776964 -0.000345541 0.00782044)
(0.00240123 -0.000103267 -0.000258947 0.000774527 2.3198e-05 0.000809768)
(0.000115045 -6.58951e-06 -1.25673e-05 3.67943e-05 1.12578e-06 3.84533e-05)
(3.77384e-06 -2.18355e-07 -3.81419e-07 1.23884e-06 2.96078e-08 1.30784e-06)
(2.55675e-07 -2.00863e-08 -1.59609e-08 1.82269e-07 3.80432e-09 1.99928e-07)
(3.92602e-06 -2.57866e-07 -1.00131e-07 3.55757e-06 4.46878e-08 3.8082e-06)
(6.91848e-05 -1.39594e-05 -2.52642e-06 6.6507e-05 1.00595e-06 6.80509e-05)
(0.00561267 -0.000404488 -0.000403508 0.00137004 -0.000210845 0.00164423)
(0.00170121 -0.000267404 -7.03862e-05 0.00086257 -4.31969e-05 0.000853044)
(0.00371956 -0.000630184 -0.000482309 0.0020771 -6.25648e-05 0.00202855)
(0.00944841 -0.00172254 -0.00143187 0.00531756 -0.000152427 0.00515785)
(0.0221356 -0.00406718 -0.00347089 0.0119965 -0.000457633 0.0117417)
(0.0487747 -0.00873264 -0.00762946 0.0253946 -0.0010452 0.0251451)
(0.10011 -0.0178364 -0.0161885 0.0511892 -0.00168689 0.0502506)
(0.191905 -0.0364201 -0.032866 0.0987153 -0.001161 0.0938808)
(0.328846 -0.0697356 -0.0608856 0.169481 0.00240361 0.156266)
(0.508837 -0.120163 -0.1002 0.254121 0.00824853 0.23162)
(0.426827 -0.107493 -0.0909068 0.213086 0.00933692 0.192604)
(0.179879 -0.0469306 -0.0428384 0.0931261 0.00441368 0.0842935)
(0.0508129 -0.0125129 -0.0128662 0.0269212 0.00077825 0.0253441)
(0.0220433 -0.00468987 -0.00549287 0.0117985 1.61579e-05 0.0116521)
(0.0203104 -0.00406167 -0.00506987 0.0108895 -8.09534e-05 0.0109614)
(0.0240233 -0.00477087 -0.00614608 0.0128504 -8.67994e-05 0.0130496)
(0.0291158 -0.00582786 -0.00769516 0.0155925 -7.03297e-05 0.0159812)
(0.0363297 -0.00736305 -0.00995979 0.0194721 -4.36669e-05 0.0201945)
(0.0479162 -0.00989741 -0.013572 0.0256057 1.93316e-05 0.0268783)
(0.0629946 -0.0131494 -0.0183791 0.0333325 3.65966e-05 0.0355253)
(0.0783194 -0.0161857 -0.0234932 0.0408571 -8.00866e-05 0.0444084)
(0.0903119 -0.0180119 -0.0278091 0.0463183 -0.00038677 0.0513559)
(0.0999904 -0.0189207 -0.0314528 0.0503839 -0.000803809 0.0565487)
(0.11504 -0.0207879 -0.0366123 0.0570113 -0.00120456 0.0640194)
(0.143565 -0.0255143 -0.0458727 0.0701506 -0.00152635 0.0782948)
(0.188895 -0.0335859 -0.0603673 0.0912086 -0.00193012 0.101285)
(0.247935 -0.0441246 -0.0789803 0.118365 -0.0025748 0.130969)
(0.329404 -0.0589929 -0.104079 0.15515 -0.00315786 0.170695)
(0.43592 -0.0793271 -0.136262 0.202682 -0.0031508 0.221457)
(0.561974 -0.104484 -0.173854 0.258318 -0.00232901 0.280993)
(0.698921 -0.13375 -0.213155 0.318286 -0.00060961 0.344428)
(0.841243 -0.166608 -0.250944 0.379886 0.00194434 0.407373)
(0.961022 -0.198606 -0.277759 0.430823 0.00539959 0.456312)
(0.98893 -0.213457 -0.276614 0.440617 0.00897342 0.46156)
(0.900714 -0.202074 -0.24623 0.399315 0.0118126 0.415642)
(0.741518 -0.172304 -0.202003 0.328183 0.0135969 0.342113)
(0.564432 -0.135098 -0.156576 0.249947 0.0137197 0.263955)
(0.4128 -0.100787 -0.118581 0.182632 0.0125236 0.197575)
(0.305824 -0.0748886 -0.0916325 0.134107 0.0108173 0.150359)
(0.226665 -0.0545259 -0.071049 0.0975606 0.0085975 0.114729)
(0.183158 -0.0427866 -0.059374 0.0769897 0.00671511 0.0946043)
(0.173909 -0.0402974 -0.0568337 0.0722703 0.00596564 0.0904054)
(0.172206 -0.0404224 -0.0555433 0.0715692 0.00494303 0.0888767)
(0.183482 -0.0445363 -0.0577693 0.0774849 0.00431406 0.0935979)
(0.206639 -0.0511226 -0.063185 0.0884791 0.00375114 0.104505)
(0.225914 -0.0566017 -0.0656795 0.0974155 0.00251542 0.112447)
(0.250571 -0.062485 -0.0671917 0.10592 0.000621568 0.119232)
(0.302131 -0.0726499 -0.0727459 0.120478 -0.00152393 0.133329)
(0.365696 -0.0782738 -0.0804775 0.13548 -0.00456614 0.151505)
(0.386657 -0.0661369 -0.0780383 0.132481 -0.00962899 0.151378)
(0.35126 -0.0408825 -0.0610575 0.113362 -0.0148328 0.127085)
(0.285408 -0.0145143 -0.0355645 0.0882277 -0.0167176 0.0907707)
(0.178493 -0.000495372 -0.0151944 0.0537572 -0.0101177 0.0507925)
(0.0612937 0.000447084 -0.00429786 0.0183187 -0.00188567 0.0176723)
(0.00844543 -0.000185722 -0.000712756 0.0026403 8.99499e-06 0.00266327)
(0.000548405 -2.56916e-05 -5.28853e-05 0.000172627 3.71464e-06 0.000175862)
(2.52268e-05 -1.26226e-06 -2.32824e-06 7.91592e-06 1.54131e-07 8.11846e-06)
(8.00883e-07 -4.46415e-08 -6.66165e-08 3.12343e-07 5.61424e-09 3.26287e-07)
(3.83807e-06 -2.5986e-07 -1.0678e-07 3.42461e-06 4.50469e-08 3.6368e-06)
(6.90918e-05 -1.39637e-05 -2.74395e-06 6.5688e-05 1.05596e-06 6.68132e-05)
(0.00861812 -0.00120533 -0.00131707 0.00319498 -0.000268553 0.0038581)
(0.0127551 -0.00218176 -0.00178683 0.00703047 -0.000343308 0.00738203)
(0.0363777 -0.0074082 -0.00587299 0.0201644 -0.00105889 0.020277)
(0.0904526 -0.0197161 -0.0147344 0.0492907 -0.00263893 0.0487725)
(0.193882 -0.0430173 -0.0316579 0.0991759 -0.00638145 0.100002)
(0.396951 -0.0864948 -0.0628507 0.189577 -0.0128389 0.196884)
(0.755225 -0.165598 -0.11951 0.348792 -0.021553 0.365212)
(1.33169 -0.310235 -0.210715 0.613587 -0.029396 0.627645)
(2.05025 -0.510771 -0.336772 0.950615 -0.0253398 0.942297)
(2.72047 -0.700629 -0.472665 1.24966 -0.0106214 1.20268)
(2.46457 -0.650262 -0.465848 1.14899 0.00671095 1.06617)
(1.43797 -0.392068 -0.314519 0.709842 0.0135814 0.640949)
(0.665163 -0.179366 -0.163582 0.340269 0.00750082 0.313431)
(0.388944 -0.0983802 -0.0974284 0.197493 0.00229508 0.189948)
(0.364887 -0.0892479 -0.0911274 0.184405 0.00212502 0.180504)
(0.428788 -0.104332 -0.108328 0.216156 0.00396548 0.211908)
(0.495907 -0.121529 -0.127082 0.251224 0.00630437 0.245217)
(0.572897 -0.141708 -0.149338 0.292196 0.0087882 0.284213)
(0.670512 -0.167385 -0.178199 0.343187 0.0110176 0.334492)
(0.748204 -0.187649 -0.204497 0.383386 0.0120477 0.378777)
(0.821269 -0.20572 -0.230762 0.419127 0.0119734 0.423816)
(0.871893 -0.21625 -0.25094 0.441329 0.010686 0.458533)
(0.884554 -0.215909 -0.260631 0.444229 0.00804493 0.47232)
(0.887541 -0.211693 -0.266723 0.442895 0.00354706 0.477299)
(0.942231 -0.220516 -0.283987 0.467357 -0.00190541 0.50352)
(1.07811 -0.250582 -0.320032 0.529598 -0.00565352 0.565026)
(1.26322 -0.296242 -0.369778 0.61642 -0.00731506 0.652233)
(1.50856 -0.358377 -0.435521 0.732392 -0.0100325 0.769576)
(1.83107 -0.438813 -0.51922 0.882906 -0.012809 0.919054)
(2.22409 -0.535565 -0.618985 1.0608 -0.0127684 1.09529)
(2.63559 -0.637647 -0.720402 1.24112 -0.00929108 1.27553)
(3.01976 -0.734392 -0.809658 1.40406 -0.00369552 1.43778)
(3.32096 -0.810868 -0.868089 1.52094 0.00272798 1.5503)
(3.44442 -0.844226 -0.877509 1.5546 0.0102666 1.57571)
(3.35026 -0.828838 -0.835976 1.49773 0.0188 1.50722)
(3.04899 -0.767989 -0.750427 1.35876 0.0283261 1.3561)
(2.60563 -0.674384 -0.640942 1.16541 0.0379643 1.15761)
(2.10639 -0.56329 -0.527574 0.951793 0.044676 0.947884)
(1.66879 -0.459186 -0.431432 0.761707 0.0482491 0.766324)
(1.28909 -0.360631 -0.348899 0.591396 0.0475934 0.608442)
(0.970416 -0.273704 -0.277118 0.44562 0.0430561 0.473045)
(0.730309 -0.20353 -0.219251 0.332198 0.0357423 0.365694)
(0.533809 -0.144373 -0.167776 0.238716 0.0253976 0.27321)
(0.43358 -0.115719 -0.140286 0.19306 0.0184846 0.225075)
(0.412167 -0.108954 -0.133264 0.183085 0.0160376 0.213476)
(0.405643 -0.105919 -0.129903 0.179257 0.015071 0.210398)
(0.383526 -0.100621 -0.122481 0.171247 0.0131092 0.202995)
(0.368466 -0.0968549 -0.112557 0.167889 0.00631771 0.195683)
(0.37407 -0.0909445 -0.106141 0.166114 -0.000934901 0.190667)
(0.372644 -0.0786467 -0.0937874 0.155652 -0.00631777 0.175916)
(0.345326 -0.0570909 -0.0726629 0.1323 -0.0115328 0.146842)
(0.301606 -0.0311736 -0.0468107 0.103877 -0.0149004 0.11153)
(0.248379 -0.00739458 -0.0227876 0.0759228 -0.0134019 0.0773812)
(0.127977 0.00127542 -0.00781919 0.0373348 -0.00508716 0.0364149)
(0.0250913 2.58649e-05 -0.00145887 0.00756345 -0.000244606 0.00743283)
(0.00221435 -7.20921e-05 -0.000170212 0.000682155 5.52801e-06 0.000680435)
(0.000126374 -5.30208e-06 -9.86079e-06 3.90356e-05 5.33959e-07 3.93136e-05)
(4.30443e-06 -1.93198e-07 -3.24527e-07 1.38322e-06 1.85161e-08 1.40807e-06)
(3.84935e-06 -2.64196e-07 -1.11112e-07 3.34108e-06 4.12128e-08 3.51839e-06)
(6.90114e-05 -1.39248e-05 -2.75125e-06 6.47913e-05 9.99868e-07 6.54741e-05)
(0.0496199 -0.00855806 -0.00650757 0.0250762 -0.00938544 0.0280951)
(0.0836173 -0.0213859 -0.0129058 0.0489444 -0.00184583 0.0512243)
(0.201825 -0.0606236 -0.0359978 0.119783 0.00569665 0.117571)
(0.456819 -0.136831 -0.080703 0.261909 0.00785858 0.255195)
(0.903483 -0.272668 -0.165404 0.48819 0.0227912 0.474494)
(1.78278 -0.511024 -0.325564 0.875492 0.0465765 0.8659)
(3.10469 -0.853301 -0.573233 1.43315 0.064633 1.4405)
(4.74695 -1.26438 -0.86924 2.12762 0.0266891 2.15014)
(6.09971 -1.59229 -1.1138 2.69224 -0.0449039 2.73688)
(6.87579 -1.81372 -1.24772 3.03143 -0.0819528 3.0661)
(6.86897 -1.8848 -1.25617 3.09818 -0.0711131 3.06311)
(5.88279 -1.68568 -1.15631 2.78524 -0.0350363 2.65926)