/*--------------------------------*- C++ -*----------------------------------*\
| =========                 |                                                 |
| \\      /  F ield         | OpenFOAM: The Open Source CFD Toolbox           |
|  \\    /   O peration     | Version:  2.1.1                                 |
|   \\  /    A nd           | Web:      www.OpenFOAM.org                      |
|    \\/     M anipulation  |                                                 |
\*---------------------------------------------------------------------------*/
FoamFile
{
    version     2.0;
    format      ascii;
    class       volScalarField;
    location    "0.0012";
    object      TLS;
}
// * * * * * * * * * * * * * * * * * * * * * * * * * * * * * * * * * * * * * //

dimensions      [0 1 0 0 0 0 0];

internalField   nonuniform List<scalar> 
36520
(
0.000381065
0.000320241
0.00027965
0.000267385
0.000258289
0.000253488
0.000250984
0.000251218
0.000253339
0.000256363
0.000258744
0.000260236
0.000261613
0.000263267
0.000265622
0.000268704
0.000272332
0.000276408
0.000280883
0.000285649
0.000290816
0.000296292
0.000302311
0.000308873
0.00031619
0.000324259
0.00033326
0.000343224
0.000354287
0.000366432
0.000379675
0.000393835
0.000408725
0.000424006
0.000439261
0.000454074
0.000468076
0.000480986
0.000492735
0.000503481
0.00051348
0.000522869
0.000530853
0.000535575
0.000536673
0.000537517
0.000554117
0.000589871
0.000644145
0.000717135
0.000809664
0.0009807
0.00131073
0.00161098
0.00169614
0.00175644
0.00177573
0.00181488
0.0018013
0.00173128
0.00063892
0.000339143
0.000312303
0.000302064
0.000293186
0.000290104
0.000291887
0.000302815
0.000319571
0.000327269
0.000327823
0.000329723
0.000332524
0.000335999
0.000339934
0.000343853
0.000349433
0.000354824
0.000359859
0.000363019
0.000365114
0.000366587
0.000368747
0.000372165
0.000377042
0.000383162
0.000390689
0.000399722
0.000409935
0.000420658
0.000430771
0.000438401
0.00044174
0.00044036
0.000435528
0.000429036
0.000421306
0.00041227
0.000401618
0.000388755
0.000373018
0.000354204
0.000332973
0.000310764
0.000289267
0.000269311
0.000251491
0.000237353
0.000227948
0.000222079
0.000218175
0.000219234
0.000236888
0.000276805
0.000523949
0.000971583
0.000999194
0.000993946
0.00102982
0.00283333
0.000773012
0.000365869
0.000341946
0.000332672
0.000323547
0.000321626
0.000324966
0.000334014
0.000328565
0.000305044
0.000326808
0.000384437
0.000405507
0.000414123
0.000418683
0.000420349
0.000423317
0.000424028
0.000422729
0.000418538
0.000413406
0.000407928
0.00040284
0.000398205
0.000393456
0.000387743
0.00038043
0.000370955
0.000359623
0.000347364
0.000335497
0.000325152
0.000316805
0.00031027
0.000305
0.000300553
0.000295898
0.000290819
0.000285292
0.000279255
0.000272633
0.000265526
0.000258071
0.000250336
0.000242492
0.000234675
0.000227145
0.000221501
0.000217838
0.000217757
0.000222088
0.00022367
0.00023616
0.000263188
0.000307519
0.000504182
0.000800757
0.000795847
0.000905712
0.00297713
0.00092
0.000391024
0.000364333
0.000340304
0.000300388
0.000246262
0.000194239
0.000159069
0.000143963
0.000137963
0.000143089
0.000182449
0.000309229
0.000370459
0.000373544
0.000366459
0.000358578
0.000351033
0.000343504
0.00033515
0.000327863
0.000321901
0.000314854
0.000306814
0.000298743
0.000290931
0.000283687
0.000277141
0.000271481
0.000266663
0.00026256
0.000259098
0.000256527
0.000255061
0.000254673
0.000260598
0.000265312
0.000263482
0.000259612
0.000255099
0.000250438
0.000245879
0.000241591
0.000237422
0.000233232
0.00022876
0.000222548
0.000211702
0.000198106
0.000193731
0.000206899
0.000226015
0.0002389
0.00025977
0.000297237
0.000325533
0.000487744
0.000728186
0.000982185
0.00301373
0.00106841
0.000346756
0.000251675
0.000184376
0.000159966
0.00014825
0.000142066
0.000137512
0.000133236
0.000130232
0.000131834
0.000142363
0.000174229
0.000222174
0.000235775
0.00023773
0.000240029
0.00024328
0.000245776
0.000243764
0.000241971
0.000242204
0.0002418
0.000237084
0.000231269
0.000225626
0.000220324
0.000215223
0.000210425
0.000205941
0.000201671
0.000197404
0.000193123
0.000188375
0.000187071
0.00019012
0.000198956
0.000213363
0.000224371
0.000224988
0.000223517
0.000221143
0.000218574
0.000215773
0.000212912
0.000211831
0.000209718
0.000199743
0.000175502
0.000160567
0.000171465
0.000200984
0.000234905
0.000258619
0.000292416
0.000317222
0.000331551
0.000550341
0.00103026
0.00302532
0.00119217
0.000181721
0.000160746
0.000153065
0.000148111
0.000143677
0.000139886
0.000136362
0.000132598
0.000127582
0.000128014
0.000135502
0.000149741
0.000166384
0.000172777
0.000175948
0.000180114
0.000184552
0.000187016
0.000187815
0.000188816
0.000191067
0.000194861
0.000197581
0.000196673
0.000193431
0.000190161
0.000186697
0.000183019
0.00017939
0.000176071
0.000172909
0.000169874
0.000167574
0.000166447
0.000166382
0.000167498
0.00016993
0.000173218
0.000178295
0.000183824
0.000186305
0.000188867
0.000189548
0.000188501
0.000187548
0.000181794
0.000160283
0.000117643
8.57165e-05
8.0934e-05
8.93539e-05
0.000133509
0.000242651
0.000286845
0.00031376
0.000324151
0.000363534
0.00103126
0.00303287
0.00102895
0.000162211
0.000156285
0.000151112
0.000145493
0.000139987
0.000135052
0.000130505
0.000126216
0.000122169
0.000122694
0.000129562
0.000140131
0.000150997
0.000157584
0.000157732
0.000158481
0.000159448
0.00015986
0.000161483
0.000163155
0.000164258
0.000165812
0.000168432
0.000170845
0.000171143
0.000169672
0.00016764
0.000165409
0.000163072
0.000160939
0.000159082
0.000157337
0.000156136
0.000155538
0.000155127
0.000155071
0.000155818
0.000156822
0.000158222
0.000160173
0.000161889
0.000164454
0.000167559
0.000167621
0.000162029
0.00014859
0.00011301
6.2491e-05
4.39986e-05
3.98895e-05
4.22201e-05
5.80808e-05
0.000172752
0.000277896
0.000308159
0.000323503
0.000338618
0.000990818
0.00304113
0.000639898
0.000160248
0.000153819
0.000147226
0.000140045
0.000132616
0.000126885
0.000122845
0.000120196
0.000118243
0.000118949
0.000123085
0.000129696
0.000136213
0.000138185
0.000137289
0.000136419
0.000136388
0.000137595
0.000140687
0.000145138
0.000148355
0.000149451
0.000150053
0.000150376
0.000150075
0.000149152
0.000148097
0.000147153
0.000146238
0.000145338
0.000144411
0.000142675
0.000140225
0.000139755
0.000140634
0.000142464
0.000144317
0.000145618
0.000147124
0.000149478
0.000152441
0.000155286
0.000157387
0.000158322
0.000161319
0.000164693
0.000159706
0.000105978
3.74714e-05
3.31276e-05
3.51657e-05
4.49339e-05
0.000142986
0.000280931
0.000312434
0.000331039
0.000344105
0.000858193
0.00305127
0.000567073
0.000156528
0.000145913
0.000141264
0.000138827
0.000132266
0.000119124
9.93697e-05
8.69533e-05
9.00043e-05
0.000108595
0.000123096
0.00012633
0.000126906
0.000126606
0.00012604
0.000126205
0.000127686
0.000129329
0.000131032
0.000133228
0.000135982
0.000138677
0.000140565
0.00014158
0.000141869
0.000141463
0.00014054
0.000139251
0.000137635
0.000135883
0.000134312
0.000132651
0.000130809
0.000128783
0.000126651
0.00012487
0.000123933
0.000124007
0.000124728
0.000126444
0.000131069
0.000141482
0.000154578
0.000158982
0.000162232
0.000166373
0.000171802
0.000143495
3.64751e-05
3.09739e-05
3.39101e-05
4.29638e-05
0.000127978
0.000309455
0.000341877
0.000358615
0.000369697
0.000657525
0.00305825
0.000590455
0.000158981
0.000146864
0.000143854
0.000144594
0.000141968
0.00013623
0.000128001
0.000117288
0.000110449
0.000114835
0.000129277
0.000137175
0.000138505
0.000138122
0.000136245
0.000134594
0.000134604
0.000135151
0.000136773
0.000139739
0.000143302
0.000145258
0.000145586
0.000146083
0.000146155
0.000145641
0.000144684
0.000142845
0.000139842
0.000136319
0.000133509
0.000132231
0.000132235
0.000132283
0.000132465
0.000132958
0.000133688
0.000134292
0.00013483
0.000137354
0.000143487
0.000151169
0.00015611
0.000160159
0.000164395
0.000177281
0.000197635
0.000150025
4.09302e-05
3.59325e-05
3.93344e-05
5.00722e-05
0.000150241
0.000330538
0.000358207
0.000371766
0.000380647
0.000632471
0.00305835
0.000640896
0.000165912
0.000153049
0.00014719
0.000148052
0.000147942
0.000143472
0.000122222
9.23518e-05
8.34625e-05
9.21945e-05
0.00012182
0.000138428
0.000141615
0.000143671
0.00014418
0.000143443
0.000142947
0.000142682
0.000142732
0.0001432
0.000143154
0.000141596
0.000139587
0.000138734
0.000140562
0.000141918
0.000140116
0.000139111
0.000140315
0.000141466
0.000141757
0.000141604
0.000141283
0.000140798
0.000140163
0.00014
0.000140907
0.000141907
0.000142955
0.000145205
0.000150216
0.000155888
0.000159438
0.000164226
0.000171166
0.000182487
0.000192169
0.000149952
3.82656e-05
3.35032e-05
3.605e-05
4.60642e-05
0.000154221
0.000303267
0.000332271
0.000349725
0.00036167
0.000590209
0.00306046
0.000656683
0.000175457
0.000164134
0.000151074
0.000145629
0.000141304
0.000139267
0.000133101
9.65236e-05
9.00325e-05
0.000106038
0.000128224
0.000131439
0.000133177
0.000134101
0.000134946
0.000135559
0.000135703
0.000135467
0.000135535
0.000135825
0.000135379
0.00013198
0.000132642
0.000137084
0.000142181
0.000143748
0.000136353
0.000125558
0.000127723
0.000135592
0.000139985
0.000140749
0.000138558
0.00011965
0.000116883
0.000118121
0.00013286
0.000140585
0.000141582
0.000142279
0.000146056
0.000152032
0.000158488
0.000163842
0.000169203
0.000177293
0.000182509
0.000158805
3.87423e-05
3.09477e-05
3.21112e-05
3.61987e-05
9.02614e-05
0.000250537
0.000276578
0.000296754
0.000312347
0.000595796
0.00305645
0.000622312
0.000176237
0.000163506
0.000152178
0.000148054
0.000142287
0.000130872
9.88493e-05
5.91378e-05
4.19909e-05
4.28457e-05
5.95626e-05
0.000109757
0.000133122
0.00013498
0.0001359
0.00013648
0.00013668
0.000136785
0.000136734
0.000136474
0.000136278
0.000133953
0.000132557
0.000135432
0.000141183
0.000142075
0.000142466
0.000137127
0.000119415
0.000117612
0.000129997
0.000140017
0.000141857
0.00014179
0.000137424
0.000120082
0.000118397
0.000126952
0.000143673
0.000149316
0.000151944
0.000152255
0.000139794
0.000147982
0.000168835
0.000178223
0.000181038
0.00015483
3.86481e-05
3.04875e-05
3.16626e-05
3.56749e-05
8.69793e-05
0.000245165
0.000271852
0.000292914
0.000309302
0.000595892
0.00305649
0.000619224
0.0001629
0.00013426
0.0001322
0.000135958
0.000138715
0.000134078
9.45314e-05
4.79248e-05
3.03677e-05
2.83652e-05
3.21643e-05
5.73231e-05
0.000127946
0.000144176
0.000146287
0.000145482
0.000143049
0.00014138
0.000141631
0.000142326
0.000143112
0.000143624
0.000143226
0.000144174
0.000146131
0.000147379
0.000147562
0.00014701
0.000145216
0.000143827
0.000144203
0.000144331
0.000144238
0.000144386
0.00014469
0.000144323
0.000143319
0.000143787
0.00014476
0.000147303
0.000150136
0.00015112
0.000149001
0.000154812
0.000165909
0.000184739
0.00019092
0.000102052
3.52825e-05
3.38935e-05
3.66321e-05
5.12509e-05
0.000189377
0.000296683
0.000328907
0.000348231
0.000360801
0.000614885
0.00305956
0.00061012
0.000179822
0.000123461
9.44209e-05
9.92137e-05
0.000123721
0.000124723
0.000100963
5.6722e-05
3.333e-05
2.67428e-05
2.70419e-05
3.73864e-05
9.63568e-05
0.000134759
0.000137291
0.000138122
0.000138827
0.000139869
0.000140495
0.000140332
0.00014077
0.000142747
0.000145826
0.000147611
0.000148996
0.000144815
0.000130537
0.000130054
0.000130915
0.000138604
0.000145553
0.000149989
0.000152329
0.000152381
0.000147537
0.000134732
0.000124448
0.000130225
0.000145655
0.000149845
0.000149539
0.000149548
0.000151775
0.000159077
0.000171918
0.000193785
0.000200631
9.2035e-05
3.68791e-05
3.71471e-05
4.1263e-05
7.18505e-05
0.000262805
0.000329473
0.00035734
0.000370442
0.000378357
0.000720704
0.00305722
0.000620149
0.000164501
0.000135562
0.000135584
0.000137001
0.000134384
0.000120843
7.82125e-05
4.18413e-05
3.2392e-05
3.5047e-05
5.26581e-05
9.7442e-05
0.000129814
0.000135592
0.000136303
0.000136471
0.000136306
0.000135537
0.000135434
0.000136792
0.000140065
0.000142942
0.000144008
0.000141441
0.000124181
0.000123253
0.000124467
0.000133446
0.000143883
0.000144242
0.000144335
0.000140821
0.000112926
0.000104188
0.000123152
0.000148483
0.00015434
0.000155517
0.000155646
0.000152585
0.000152976
0.000155932
0.000160729
0.000170219
0.000186651
0.00019951
0.00020181
9.20731e-05
3.53856e-05
3.56535e-05
3.94716e-05
6.69616e-05
0.00025494
0.000322696
0.000348878
0.000362176
0.000370791
0.000759293
0.00305679
0.000704827
0.000160348
0.000153191
0.000147695
0.000140852
0.00013371
0.000127741
0.000116788
0.000102509
0.000101453
0.000114851
0.000127923
0.000136657
0.000145568
0.000150805
0.000151056
0.0001495
0.000148051
0.000147231
0.000147273
0.000147801
0.000148341
0.000148858
0.000147403
0.000147636
0.000148403
0.000149643
0.000151289
0.0001526
0.00015121
0.000143633
0.000131784
0.000129386
0.000129129
0.00013168
0.000142002
0.000152317
0.000155514
0.000157533
0.000158121
0.000159588
0.000162782
0.000165719
0.000168154
0.000171723
0.000175078
0.000178222
0.000171917
7.32428e-05
3.46608e-05
3.37234e-05
3.72234e-05
5.43691e-05
0.000190857
0.000284213
0.000310129
0.000326177
0.000338633
0.000894855
0.00305269
0.00106685
0.000174044
0.000167845
0.000162433
0.000156137
0.00014978
0.000143894
0.000138511
0.000134337
0.0001321
0.000134488
0.000139023
0.000146473
0.000157874
0.000167591
0.000169333
0.000167289
0.00016445
0.000161397
0.000160181
0.000159853
0.000159982
0.00016101
0.000163239
0.000166449
0.000168429
0.000167231
0.000165303
0.000163414
0.000161645
0.000160308
0.0001594
0.000158726
0.000158681
0.000159195
0.000160412
0.000161741
0.000163104
0.000163919
0.000164336
0.000164388
0.000163067
0.000160972
0.000159201
0.00015842
0.00015765
0.000151781
0.000112353
5.91681e-05
4.17966e-05
3.76014e-05
4.02522e-05
5.6547e-05
0.000169162
0.000266539
0.000296414
0.000313188
0.000331236
0.000997839
0.00304081
0.00107759
0.000212644
0.000176511
0.000168086
0.000163483
0.00015952
0.000155756
0.00015166
0.000146663
0.00014169
0.000142428
0.000146535
0.000155752
0.000173369
0.000186941
0.00018705
0.00018501
0.000182416
0.000179546
0.000176308
0.000174733
0.000174773
0.000178076
0.000186708
0.000198363
0.000198909
0.000196781
0.000194702
0.000193095
0.000192217
0.000192574
0.000194204
0.000196716
0.000199823
0.00020303
0.000205249
0.000205264
0.00020317
0.000199161
0.000193927
0.000187747
0.000181145
0.000174551
0.000168007
0.000162364
0.000159655
0.000157527
0.000151056
0.000124858
8.66215e-05
7.09019e-05
7.01364e-05
8.97997e-05
0.00019833
0.000273445
0.000299444
0.00031229
0.000357966
0.001029
0.00303114
0.000949093
0.000389709
0.000294277
0.000205298
0.000177515
0.000166808
0.000160578
0.000155362
0.000151564
0.000148414
0.000149761
0.000157111
0.000183955
0.00024293
0.000268035
0.000261928
0.000253155
0.000244492
0.000236308
0.000227556
0.000223615
0.000227108
0.000242541
0.000263793
0.000272948
0.000270419
0.000267669
0.000265095
0.000262795
0.000260696
0.000258638
0.000256158
0.000252856
0.000248594
0.000243333
0.000237172
0.000230159
0.000222439
0.000214171
0.000205589
0.000197029
0.000188869
0.000181255
0.000174394
0.000168412
0.000165018
0.000164311
0.000167774
0.000174247
0.00017451
0.000171562
0.000173182
0.000187595
0.000236378
0.000274994
0.000301654
0.000316963
0.000503832
0.0010273
0.0030219
0.00082109
0.00039331
0.000376488
0.000366376
0.000331184
0.000271832
0.000215177
0.00018305
0.000170564
0.0001655
0.000176329
0.000223958
0.000318735
0.000357801
0.000357622
0.000351042
0.000343388
0.000336109
0.000328923
0.000322225
0.000318601
0.000319223
0.00032259
0.00032331
0.000320431
0.000315727
0.000310677
0.00030541
0.000300008
0.000294441
0.000288631
0.000282431
0.000275726
0.000268447
0.000260513
0.000251906
0.00024261
0.000232689
0.000222355
0.000211975
0.000202022
0.000192933
0.000184915
0.00017799
0.00017159
0.000167695
0.000167627
0.000172657
0.000181703
0.000190414
0.000197615
0.00020557
0.000217648
0.00023921
0.000279467
0.000308059
0.000362328
0.0006869
0.00099844
0.00301509
0.000731609
0.000369059
0.000351143
0.000348486
0.000343103
0.000346346
0.000355108
0.000372836
0.000383285
0.000377278
0.000396339
0.000418574
0.000426427
0.000429073
0.000430815
0.00043125
0.000430328
0.000426664
0.000421713
0.000416665
0.000411684
0.000406904
0.000402226
0.000396979
0.000390722
0.000382982
0.000374068
0.000363788
0.000352328
0.000340248
0.000328223
0.000316377
0.00030449
0.000292402
0.000279949
0.000266957
0.000253286
0.000239012
0.00022447
0.000210199
0.000196809
0.000184746
0.000174227
0.000165447
0.000160212
0.000157945
0.000158949
0.000164966
0.00017615
0.000189182
0.000198905
0.000203206
0.000213108
0.000241143
0.000284265
0.000372046
0.000762068
0.000805457
0.000934475
0.0029914
0.000624771
0.000343711
0.000321468
0.000316194
0.000310176
0.00031031
0.000314359
0.000325447
0.00033839
0.000343077
0.000345444
0.000348037
0.000351145
0.000355035
0.000360159
0.000366346
0.000373817
0.000380314
0.000386379
0.000392105
0.000397385
0.000401867
0.000405451
0.00040786
0.000409378
0.000412687
0.000417967
0.000424534
0.000431516
0.000437337
0.000440096
0.000438499
0.000432253
0.00042166
0.00040742
0.000390179
0.000370281
0.000347994
0.00032327
0.000296024
0.000267567
0.000240421
0.000218227
0.000204696
0.000196948
0.00019317
0.000193597
0.000197439
0.00019991
0.000197801
0.000195782
0.000198623
0.000213356
0.000249533
0.000426922
0.00097838
0.0010316
0.0010291
0.00106322
0.00287731
0.000357862
0.000321106
0.000286299
0.000277425
0.000270546
0.000267196
0.000265461
0.000265572
0.000266955
0.000268975
0.000270949
0.000272695
0.000274651
0.00027689
0.00027984
0.000283474
0.000287875
0.000292864
0.000298342
0.000304087
0.000310215
0.000316537
0.00032326
0.000330345
0.000338152
0.000346592
0.000355861
0.00036596
0.000377034
0.00038899
0.000401647
0.000414633
0.000427697
0.000440548
0.000452976
0.000464671
0.000475439
0.000485108
0.000493566
0.000501252
0.000509127
0.000518662
0.000531157
0.000549249
0.000572347
0.000605361
0.000653471
0.000719756
0.000805398
0.000912461
0.00103836
0.00118713
0.001411
0.00167595
0.00175917
0.00180439
0.00181976
0.00185411
0.00184396
0.0018043
0.000381987
0.000334842
0.000296437
0.000286742
0.000278437
0.000274204
0.000270821
0.000269132
0.000268498
0.000268679
0.000269882
0.000271535
0.000274137
0.000277079
0.000280795
0.000284896
0.000289567
0.000294645
0.000300127
0.000305986
0.000312349
0.000319128
0.000326498
0.000334391
0.00034304
0.000352413
0.000362702
0.000373872
0.000385971
0.000398842
0.000412373
0.000426317
0.000440435
0.000454299
0.000467436
0.000479373
0.000489906
0.000498921
0.000506389
0.000512705
0.000518751
0.000525744
0.000535773
0.000551523
0.000571896
0.000599725
0.000639878
0.000696502
0.00077101
0.00086403
0.000975944
0.00111097
0.00132134
0.00165237
0.00177314
0.00181883
0.00183178
0.00186474
0.00185132
0.00179078
0.000651995
0.000363885
0.000339952
0.000335602
0.000330012
0.000328728
0.000325342
0.000324823
0.000324708
0.000326196
0.000328259
0.000332333
0.000336457
0.000342488
0.000349113
0.000356854
0.000365516
0.000373123
0.000380028
0.000385913
0.000391136
0.000395736
0.000399883
0.000404005
0.000408838
0.000414477
0.000420787
0.000426944
0.000432011
0.000434741
0.000434091
0.000429546
0.000421419
0.000410581
0.000398019
0.000384114
0.000368681
0.000351359
0.000332022
0.000310456
0.000287148
0.000263454
0.000243136
0.000227693
0.000216749
0.000209261
0.000204417
0.000201511
0.000198581
0.000194027
0.000188559
0.000186465
0.000195767
0.000226802
0.00034548
0.000914122
0.00100964
0.00100688
0.00104549
0.00286319
0.000797689
0.000395298
0.000377135
0.000378016
0.000375037
0.000377085
0.00037409
0.000375508
0.000376607
0.000379938
0.00038372
0.000390061
0.000395397
0.000402453
0.00040819
0.000412526
0.000414594
0.000413007
0.000409029
0.000403429
0.000396797
0.00038943
0.000381457
0.00037278
0.00036318
0.000352584
0.000341155
0.000329368
0.000317671
0.000306495
0.000296064
0.000286325
0.000277111
0.00026817
0.00025926
0.000250106
0.00024048
0.000230276
0.000219667
0.000208921
0.000198318
0.000188263
0.000179155
0.000170913
0.000166295
0.000165232
0.000166769
0.000171237
0.000177904
0.00018417
0.00018843
0.000188515
0.000195256
0.000220738
0.000261285
0.000332252
0.000715422
0.000779492
0.000921506
0.00299213
0.000934795
0.000424804
0.000410664
0.000416109
0.000412637
0.000410136
0.0003999
0.00038964
0.000377409
0.000364652
0.000351712
0.000339428
0.000328481
0.000318891
0.000310948
0.000304473
0.00029913
0.000294786
0.000290809
0.00028676
0.000282451
0.000278108
0.000273701
0.000269279
0.000264931
0.000260813
0.000257079
0.000253748
0.000250727
0.000247875
0.000244905
0.000241252
0.000236399
0.000230082
0.000222408
0.000213721
0.000204386
0.000194718
0.000185027
0.000175639
0.000166726
0.00015832
0.000150166
0.000141972
0.000133947
0.000130197
0.000132937
0.000138364
0.000147856
0.000159258
0.000170648
0.000181633
0.000195655
0.000218678
0.000255496
0.000286677
0.000318894
0.000633157
0.00100428
0.00302184
0.0010665
0.000438099
0.000401971
0.000356369
0.000322687
0.000298398
0.000282504
0.000269092
0.000257862
0.000248224
0.000239911
0.000232855
0.000227093
0.000222604
0.000219344
0.000217219
0.0002162
0.000216031
0.000216045
0.000216143
0.000216327
0.000216836
0.000217124
0.000216544
0.000215122
0.000213868
0.000213073
0.000212807
0.000212888
0.000213208
0.000213705
0.000213911
0.000212973
0.000210117
0.000205186
0.000198954
0.000191918
0.000184209
0.000176101
0.000167939
0.000159899
0.00015212
0.000144517
0.000136746
0.000129436
0.000123934
0.000122508
0.000124953
0.000135143
0.000145863
0.000148276
0.000147437
0.000153162
0.000192444
0.000248225
0.000280262
0.000296045
0.000374413
0.00103303
0.00302786
0.00117884
0.000315942
0.000245813
0.000221958
0.000214303
0.000208144
0.000202233
0.000196512
0.000191072
0.000186343
0.000182275
0.000178875
0.000176164
0.000174066
0.000172439
0.000171255
0.000170567
0.000170428
0.000170833
0.000171355
0.000171935
0.000173207
0.000175028
0.000176046
0.000175342
0.000174141
0.000173074
0.000172432
0.000172186
0.000172158
0.000172566
0.000173882
0.000176354
0.000179429
0.00018193
0.000182865
0.000181775
0.000178162
0.000172061
0.000164736
0.000157031
0.000149641
0.000142667
0.000135021
0.000127859
0.000122544
0.000120529
0.000121142
0.000124665
0.0001221
9.72554e-05
7.78397e-05
7.68072e-05
0.000114976
0.000228803
0.000266661
0.000283742
0.000310506
0.00102163
0.00303243
0.00122029
0.000193087
0.000179611
0.000174864
0.000175195
0.000174301
0.000172672
0.000170683
0.000168423
0.000166287
0.000164467
0.000162979
0.000161753
0.000160722
0.000159682
0.000158742
0.000158047
0.000157527
0.000157205
0.0001569
0.000156902
0.000157568
0.000158917
0.00016011
0.000159442
0.000157972
0.000156345
0.00015488
0.000153645
0.000152429
0.000151248
0.000150292
0.000149707
0.000149343
0.000148853
0.000147805
0.000146604
0.000148441
0.000152772
0.000153712
0.000150739
0.000147099
0.00014229
0.000136938
0.000132978
0.000131149
0.000131808
0.000130294
0.000112629
7.38684e-05
4.57934e-05
3.78187e-05
4.25726e-05
8.14436e-05
0.000220834
0.000254671
0.000274681
0.00029435
0.000975886
0.00303848
0.00104038
0.000164526
0.000156865
0.000155559
0.000157437
0.000159413
0.000160554
0.000160443
0.000158861
0.000156472
0.000154137
0.000151796
0.000149658
0.000147712
0.000145794
0.000144244
0.000143308
0.000142586
0.000142077
0.000142124
0.000142329
0.000142742
0.000143279
0.000143579
0.000143232
0.000141904
0.000140104
0.000138322
0.000136768
0.000135254
0.000133739
0.000132445
0.000131591
0.000131145
0.000130925
0.000131149
0.000131698
0.000132372
0.000132916
0.000133985
0.000134711
0.000135102
0.000136143
0.000137846
0.000139514
0.000141724
0.000144824
0.000146673
9.77379e-05
4.12005e-05
2.96618e-05
3.06894e-05
3.71446e-05
9.33068e-05
0.000242467
0.000269458
0.000289102
0.000306182
0.000877059
0.00304797
0.000621751
0.000144632
0.000136254
0.000147708
0.000147162
0.000145895
0.000147019
0.000145829
0.000143052
0.000139213
0.00013661
0.000134562
0.000132883
0.000131748
0.000130568
0.000129601
0.000129575
0.000130122
0.000130435
0.00013069
0.000131195
0.000131815
0.000132543
0.00013313
0.000133378
0.000133176
0.000132492
0.000131342
0.000130103
0.000129382
0.000129354
0.000129828
0.000130902
0.000132433
0.000133818
0.000134741
0.000135053
0.000135113
0.000135102
0.000135014
0.00013568
0.000137243
0.000139343
0.000141986
0.000145919
0.000152842
0.000162291
0.000164136
0.000102612
3.21186e-05
2.86271e-05
3.09375e-05
4.06108e-05
0.000150089
0.000273821
0.000302949
0.000323132
0.000337829
0.000767123
0.00305794
0.000539005
0.000143157
0.000131621
0.00012407
0.000123164
0.000125884
0.000126928
0.000127658
0.000128801
0.000129074
0.000128238
0.000127345
0.00012682
0.000126482
0.000125911
0.00012503
0.000124446
0.000124866
0.000126271
0.000127501
0.000128047
0.000128707
0.000129921
0.000131309
0.000132607
0.000133188
0.000131768
0.000128657
0.000124439
0.00011951
0.00011459
0.000110687
0.000108069
0.000106563
0.000105834
0.000105744
0.000105863
0.000106002
0.000106508
0.000108146
0.000112208
0.000120935
0.000132013
0.000136964
0.000139573
0.000144937
0.000165964
0.000183857
0.000102531
3.39171e-05
3.35621e-05
3.68326e-05
5.07589e-05
0.000203899
0.000326842
0.000353826
0.00036877
0.000378319
0.000659082
0.00306305
0.000566125
0.000148015
0.000131072
0.00011831
0.000107383
0.000113142
0.00012803
0.000134796
0.000136332
0.00013638
0.000136966
0.000138958
0.00014106
0.000142584
0.000143434
0.000143985
0.00014447
0.000144902
0.000145298
0.000145528
0.000145596
0.000145703
0.000145839
0.000145984
0.000146135
0.000145616
0.00014414
0.000142134
0.00013991
0.000138162
0.000137194
0.000135921
0.000133989
0.000131579
0.000128485
0.000123983
0.000117957
0.000112013
0.000109555
0.000110365
0.000114186
0.000122437
0.000131914
0.000138286
0.000146115
0.000159373
0.000188978
0.000201173
9.75576e-05
3.7329e-05
3.8605e-05
4.30837e-05
6.87663e-05
0.00027004
0.000353
0.000375846
0.000386184
0.000392284
0.000676297
0.00306192
0.000592842
0.000161794
8.65472e-05
4.56143e-05
3.53535e-05
3.85283e-05
6.94956e-05
0.000121328
0.000119573
0.000109939
0.000113793
0.000128726
0.000133962
0.00013454
0.000134641
0.000134959
0.000136307
0.000138382
0.000138979
0.00013332
0.000132798
0.000134565
0.000144912
0.000147936
0.000144511
0.000137656
0.000139522
0.000141868
0.000143003
0.000142923
0.000142048
0.000140675
0.000139027
0.000137038
0.000133994
0.000128279
0.000119219
0.000113287
0.000113642
0.000117983
0.00012632
0.000132779
0.000139503
0.000151349
0.000167424
0.000185751
0.000201224
0.000203669
6.46287e-05
3.77051e-05
3.97173e-05
4.57144e-05
0.000100621
0.000309059
0.000360367
0.000380852
0.000388768
0.000393349
0.000688662
0.00306287
0.000599562
0.000166989
0.000134906
9.20673e-05
7.0726e-05
7.23427e-05
8.66338e-05
8.00291e-05
6.00271e-05
5.5961e-05
6.60761e-05
0.0001056
0.000130146
0.000133364
0.000134735
0.000135693
0.000137065
0.000138817
0.000139377
0.000138066
0.000132944
0.000134538
0.000141872
0.000147839
0.000149097
0.000147196
0.000139268
0.000140256
0.000145495
0.000147077
0.000147961
0.000148679
0.000149265
0.000149784
0.000149976
0.000149547
0.000148306
0.000145073
0.000139086
0.000133233
0.000132959
0.000137005
0.000146887
0.00015966
0.000168622
0.000179766
0.0001966
0.000201715
7.73603e-05
3.74236e-05
3.87787e-05
4.36726e-05
7.86561e-05
0.000282039
0.000346854
0.000370451
0.000380109
0.000385692
0.000670856
0.00306297
0.000587516
0.000157106
0.000146205
0.000131736
0.000127701
0.00012132
0.000106745
8.384e-05
6.58553e-05
6.7192e-05
9.02349e-05
0.000133269
0.000144471
0.000147085
0.000148318
0.000148947
0.000149472
0.000150112
0.000150647
0.000150867
0.000150944
0.0001507
0.000150065
0.000150218
0.00015142
0.00015282
0.000153872
0.000154405
0.00015429
0.000153669
0.000153326
0.000153234
0.000153439
0.000154308
0.000154603
0.000154087
0.000153214
0.000150828
0.000145265
0.00013876
0.000138056
0.000140936
0.000148619
0.000156559
0.000161668
0.000169023
0.000180641
0.000192595
0.00012959
3.71715e-05
3.58281e-05
3.89413e-05
5.08383e-05
0.000174301
0.000315298
0.000343143
0.000358261
0.000367882
0.00061961
0.0030627
0.000528359
0.000169148
0.000158399
0.000147222
0.000143566
0.000139429
0.0001354
0.00013326
0.000135193
0.000137384
0.000140486
0.000144644
0.000147633
0.0001496
0.000150963
0.000151676
0.000151926
0.000151989
0.000151762
0.000151197
0.000150217
0.000149043
0.000148317
0.000146865
0.000146938
0.000147907
0.000147221
0.000140877
0.000139784
0.000140882
0.000141295
0.00014094
0.000140009
0.000138286
0.00013463
0.000130362
0.000129844
0.000131615
0.000134602
0.000138222
0.000142512
0.000148005
0.000154609
0.000160319
0.00016824
0.000181739
0.00019925
0.000206089
0.000163704
4.17184e-05
3.51435e-05
3.65229e-05
4.21312e-05
0.000110175
0.000277441
0.000303338
0.000320778
0.00033417
0.000580736
0.00305903
0.00049823
0.000190502
0.000183401
0.000176026
0.000168745
0.000161224
0.000154664
0.000149083
0.00014723
0.000147325
0.00014813
0.000148152
0.000146971
0.000145244
0.000143256
0.000141199
0.000139803
0.000139733
0.000140714
0.000142253
0.000143974
0.000145884
0.000146992
0.000146388
0.000143151
0.000140528
0.000138295
0.000139407
0.000142186
0.000140009
0.000127742
0.000116916
0.000126756
0.000137879
0.00013815
0.00013311
0.000129317
0.000137448
0.000145088
0.000147908
0.000151336
0.000153803
0.000153103
0.000157118
0.000171964
0.00018398
0.00019176
0.00019253
0.000155957
4.50548e-05
3.31464e-05
3.40199e-05
3.86785e-05
9.0662e-05
0.000243833
0.000267582
0.000284771
0.000299124
0.000713157
0.00305258
0.000621515
0.000187559
0.000179083
0.000171174
0.000164092
0.000158022
0.000152676
0.000148557
0.000145997
0.000145268
0.000145065
0.000144091
0.000142763
0.000141063
0.000139569
0.000138336
0.000137448
0.000137108
0.000137397
0.000138274
0.000139732
0.000141516
0.00014291
0.000143579
0.00014363
0.000142873
0.000142358
0.000142376
0.000141718
0.000139178
0.000134251
0.000133121
0.000136037
0.000141618
0.00014375
0.000143474
0.000143188
0.000146457
0.000152497
0.000159084
0.000165889
0.000169655
0.000169872
0.000168207
0.000169035
0.000171211
0.000175724
0.00017343
0.000104402
4.20514e-05
3.40236e-05
3.50488e-05
4.02901e-05
8.54054e-05
0.000232816
0.000258878
0.000276692
0.000292532