/*--------------------------------*- C++ -*----------------------------------*\
| =========                 |                                                 |
| \\      /  F ield         | OpenFOAM: The Open Source CFD Toolbox           |
|  \\    /   O peration     | Version:  2.1.1                                 |
|   \\  /    A nd           | Web:      www.OpenFOAM.org                      |
|    \\/     M anipulation  |                                                 |
\*---------------------------------------------------------------------------*/
FoamFile
{
    version     2.0;
    format      ascii;
    class       volVectorField;
    location    "0.0012";
    object      U;
}
// * * * * * * * * * * * * * * * * * * * * * * * * * * * * * * * * * * * * * //

dimensions      [0 1 -1 0 0 0 0];

internalField   nonuniform List<vector> 
36520
(
(-0.55085 -0.759814 -0.715137)
(-0.527773 0.0903632 0.0285457)
(-1.75252 0.296932 0.192045)
(-2.17883 0.720286 0.148304)
(-2.73782 1.04478 0.172835)
(-3.45102 1.39368 0.212499)
(-4.46656 1.56632 0.250128)
(-5.50166 1.3672 0.20449)
(-6.17842 0.831006 0.0873086)
(-6.30345 0.219924 -0.0437314)
(-5.91775 -0.256063 -0.137018)
(-5.33641 -0.42708 -0.158164)
(-4.81173 -0.362842 -0.123813)
(-4.53527 -0.157518 -0.0686316)
(-4.47483 0.0320987 -0.0277007)
(-4.54616 0.16939 -0.00593398)
(-4.65615 0.241896 -0.000756591)
(-4.75943 0.278611 -0.00187338)
(-4.82684 0.297748 -0.00886632)
(-4.86809 0.321753 -0.0112017)
(-4.88549 0.359768 -0.00995533)
(-4.91521 0.415052 -0.0026921)
(-4.96229 0.480757 0.00694321)
(-5.04924 0.553518 0.0183816)
(-5.17286 0.62417 0.0302954)
(-5.3444 0.681994 0.0434626)
(-5.55385 0.717604 0.0563761)
(-5.79536 0.724992 0.0661355)
(-6.04823 0.706966 0.0717488)
(-6.29963 0.668842 0.070993)
(-6.52615 0.618907 0.0634291)
(-6.71527 0.567711 0.049787)
(-6.85382 0.529125 0.0332995)
(-6.94465 0.511776 0.0162643)
(-6.99392 0.527077 0.00499596)
(-7.02636 0.580271 0.00039545)
(-7.06368 0.66106 0.00473888)
(-7.13283 0.769684 0.0183835)
(-7.26808 0.893912 0.0428413)
(-7.50203 1.01779 0.080938)
(-7.87548 1.115 0.134611)
(-8.41636 1.15823 0.209326)
(-9.11748 1.11321 0.307488)
(-9.99752 0.953919 0.428543)
(-11.1479 0.635413 0.573357)
(-12.5655 0.108321 0.736095)
(-14.1537 -0.552655 0.870704)
(-15.7501 -1.39263 0.887914)
(-16.9712 -2.48015 0.690361)
(-17.3787 -3.78362 0.308672)
(-16.5118 -5.18808 -0.107574)
(-14.5333 -6.41933 -0.447334)
(-10.8982 -7.19364 -0.830358)
(-7.56107 -7.03517 -0.805075)
(-4.37617 -6.32225 -0.630547)
(-2.59158 -5.31547 -0.426133)
(-1.09794 -4.41702 -0.280414)
(-0.739074 -3.69891 -0.180648)
(-0.0677401 -3.21869 -0.125671)
(-0.230629 -2.95923 -0.0981701)
(-2.16374 -0.670351 -0.498637)
(-2.92066 0.463692 0.231736)
(-3.80073 0.509587 0.392956)
(-4.20553 0.884277 0.291464)
(-4.69163 1.12721 0.394495)
(-5.37496 1.49102 0.518517)
(-6.39876 1.64617 0.653968)
(-7.43778 1.42887 0.536741)
(-8.12947 0.78519 0.231715)
(-8.20558 0.0994868 -0.129531)
(-7.77831 -0.428805 -0.37814)
(-7.16247 -0.602006 -0.442876)
(-6.62988 -0.513258 -0.338321)
(-6.36481 -0.272636 -0.18536)
(-6.32699 -0.072536 -0.0654236)
(-6.40751 0.0725981 -0.00539918)
(-6.52465 0.138697 0.00868092)
(-6.62339 0.166171 0.00442829)
(-6.68736 0.17877 -0.0182957)
(-6.72472 0.193555 -0.0357735)
(-6.72925 0.230146 -0.0433373)
(-6.75318 0.276867 -0.0330069)
(-6.78478 0.338124 -0.0107451)
(-6.86098 0.401112 0.0207492)
(-6.96661 0.463068 0.0559984)
(-7.12317 0.510633 0.0947072)
(-7.31116 0.538809 0.134608)
(-7.53207 0.539644 0.167225)
(-7.7586 0.51789 0.188163)
(-7.98431 0.475954 0.194056)
(-8.1808 0.419954 0.182661)
(-8.33925 0.362084 0.155239)
(-8.44364 0.315699 0.118974)
(-8.49419 0.291467 0.0883981)
(-8.51653 0.297552 0.0672625)
(-8.51852 0.339585 0.0759685)
(-8.52565 0.405947 0.113528)
(-8.56489 0.497025 0.179374)
(-8.66554 0.599748 0.279505)
(-8.85395 0.703709 0.419071)
(-9.15531 0.788896 0.601188)
(-9.59571 0.826185 0.822607)
(-10.1733 0.788617 1.09352)
(-10.8966 0.657871 1.41945)
(-11.8389 0.374626 1.79274)
(-13.021 -0.101968 2.17651)
(-14.4098 -0.673938 2.44667)
(-15.8973 -1.48153 2.40779)
(-17.1169 -2.74361 1.69163)
(-17.6117 -4.30101 0.561609)
(-17.0039 -5.99417 -0.517614)
(-15.233 -7.66161 -1.73407)
(-11.142 -8.17195 -2.55103)
(-7.5094 -7.76786 -2.46428)
(-4.14955 -6.85909 -1.92957)
(-2.42864 -5.68651 -1.29504)
(-0.919101 -4.67677 -0.850561)
(-0.681466 -3.89196 -0.554105)
(0.0255155 -3.36922 -0.385767)
(-0.259372 -3.08957 -0.306682)
(-2.61249 -0.587889 0.00647381)
(-3.69715 0.550186 0.517683)
(-4.47972 0.614044 0.627116)
(-4.83033 0.915049 0.466083)
(-5.19285 1.17082 0.6326)
(-5.80057 1.63973 0.828135)
(-6.87411 1.87452 1.05244)
(-8.00451 1.63623 0.872139)
(-8.75692 0.814152 0.388309)
(-8.79363 -0.0342716 -0.16392)
(-8.27346 -0.674721 -0.562371)
(-7.54456 -0.851546 -0.657589)
(-6.95074 -0.688835 -0.498618)
(-6.67819 -0.364821 -0.259856)
(-6.66716 -0.107545 -0.0864861)
(-6.77059 0.0550873 0.00474792)
(-6.89807 0.123075 0.019587)
(-6.99586 0.147298 0.00751105)
(-7.05071 0.156998 -0.0290778)
(-7.07639 0.16519 -0.0531001)
(-7.05932 0.203206 -0.0616048)
(-7.06753 0.25691 -0.0415579)
(-7.07831 0.33204 0.00160527)
(-7.14131 0.406857 0.05619)
(-7.23084 0.480282 0.115718)
(-7.37428 0.535924 0.180179)
(-7.54776 0.572175 0.245241)
(-7.75795 0.578226 0.2957)
(-7.97594 0.55986 0.32352)
(-8.198 0.519221 0.320765)
(-8.39329 0.461606 0.285295)
(-8.5506 0.39765 0.219005)
(-8.65359 0.340165 0.134264)
(-8.69816 0.30915 0.0591547)
(-8.70496 0.310611 0.0103993)
(-8.69268 0.355571 0.00244124)
(-8.67995 0.429952 0.0436973)
(-8.69335 0.533843 0.126975)
(-8.75768 0.655938 0.261468)
(-8.90048 0.790995 0.459828)
(-9.14702 0.912413 0.723529)
(-9.51365 1.00672 1.06593)
(-9.9782 1.06381 1.51414)
(-10.5278 1.05187 2.04181)
(-11.1865 0.933717 2.62689)
(-11.931 0.647159 3.20288)
(-12.6668 0.203774 3.60947)
(-13.3354 -0.556494 3.55898)
(-13.8499 -1.88612 2.63005)
(-14.505 -3.74516 0.985442)
(-15.3852 -5.86687 -0.623888)
(-15.0646 -8.08355 -2.40009)
(-11.7387 -9.52031 -4.40293)
(-7.35316 -8.47671 -4.14343)
(-3.79253 -7.30513 -3.19326)
(-2.08235 -5.93384 -2.11124)
(-0.678726 -4.80615 -1.36377)
(-0.527401 -3.96544 -0.882667)
(0.104697 -3.41071 -0.604656)
(-0.233882 -3.11939 -0.480187)
(-2.79749 -0.54641 0.582064)
(-3.90746 0.643608 0.729684)
(-4.66134 0.743949 0.764852)
(-4.98356 0.952276 0.5336)
(-5.22761 1.2918 0.759175)
(-5.79388 1.92567 1.01074)
(-6.96801 2.32354 1.31358)
(-8.28391 2.04091 1.09248)
(-9.13896 0.977618 0.508747)
(-9.12967 -0.171812 -0.179967)
(-8.47709 -0.985162 -0.675761)
(-7.58377 -1.18729 -0.786442)
(-6.89559 -0.919544 -0.563148)
(-6.61167 -0.475429 -0.253254)
(-6.6307 -0.146843 -0.0363023)
(-6.77082 0.0368002 0.0793205)
(-6.91238 0.102638 0.0864293)
(-7.01522 0.114806 0.065126)
(-7.05078 0.111477 0.0103036)
(-7.05808 0.124426 -0.0463837)
(-7.01301 0.185539 -0.0866586)
(-6.99616 0.266176 -0.0880806)
(-6.9853 0.361093 -0.0506505)
(-7.03208 0.455981 0.0144471)
(-7.10294 0.548213 0.0986503)
(-7.22489 0.620843 0.190311)
(-7.37839 0.674106 0.283859)
(-7.57135 0.694695 0.360068)
(-7.77375 0.686214 0.407591)
(-7.97789 0.650401 0.414408)
(-8.15508 0.593939 0.374148)
(-8.28852 0.529866 0.28383)
(-8.36544 0.474711 0.162694)
(-8.3854 0.447781 0.0360194)
(-8.36683 0.461997 -0.0596893)
(-8.34061 0.520356 -0.0965997)
(-8.31793 0.608182 -0.069755)
(-8.31461 0.732039 0.0165079)
(-8.34259 0.881395 0.166715)
(-8.42133 1.05489 0.394102)
(-8.56156 1.22389 0.705717)
(-8.76845 1.37509 1.10863)
(-9.0053 1.52263 1.60912)
(-9.17745 1.64276 2.18458)
(-9.20178 1.6867 2.73479)
(-8.93574 1.60517 3.2815)
(-8.21434 1.32909 3.7007)
(-6.9457 0.695869 3.74406)
(-5.92469 -0.687594 2.94893)
(-6.2452 -2.49313 1.24121)
(-8.77571 -4.83325 -0.491319)
(-11.8111 -7.98708 -2.5018)
(-11.8496 -10.3744 -5.18556)
(-7.0987 -9.7825 -6.06398)
(-3.21603 -8.02364 -4.47427)
(-1.5419 -6.31286 -2.88149)
(-0.320418 -5.0016 -1.83556)
(-0.299242 -4.07126 -1.18414)
(0.218931 -3.46727 -0.809013)
(-0.193851 -3.15747 -0.642845)
(-2.7578 -0.179491 1.28584)
(-4.05018 0.801732 1.00888)
(-4.79337 0.833097 1.00213)
(-5.06665 0.953178 0.697884)
(-5.09129 1.39793 0.948782)
(-5.65133 2.21836 1.2113)
(-6.96338 2.84541 1.5526)
(-8.51523 2.56126 1.2831)
(-9.45829 1.21162 0.608009)
(-9.38252 -0.310888 -0.165347)
(-8.56236 -1.36627 -0.712289)
(-7.45781 -1.58628 -0.82378)
(-6.64689 -1.15273 -0.569813)
(-6.35362 -0.528692 -0.236673)
(-6.40412 -0.0947918 -0.0211041)
(-6.57983 0.11364 0.0801916)
(-6.72268 0.183004 0.0733755)
(-6.81785 0.175299 0.029772)
(-6.81859 0.166409 -0.0514572)
(-6.7865 0.169877 -0.127701)
(-6.68298 0.223099 -0.187706)
(-6.60199 0.309233 -0.19156)
(-6.52734 0.431185 -0.140551)
(-6.50655 0.566087 -0.0342407)
(-6.5053 0.689057 0.0883548)
(-6.54585 0.785774 0.208914)
(-6.61388 0.862418 0.33073)
(-6.7076 0.902155 0.435405)
(-6.80348 0.900711 0.492135)
(-6.88799 0.858345 0.482666)
(-6.94015 0.785163 0.399761)
(-6.94389 0.695205 0.242178)
(-6.90927 0.614581 0.0311957)
(-6.86908 0.573552 -0.174052)
(-6.88509 0.590653 -0.320078)
(-6.94758 0.675306 -0.380131)
(-7.02188 0.82939 -0.351333)
(-7.07687 1.054 -0.261832)
(-7.1057 1.31865 -0.124895)
(-7.12057 1.6218 0.122085)
(-7.12723 1.93981 0.450415)
(-7.12479 2.24834 0.83031)
(-7.06865 2.57399 1.33945)
(-6.87169 2.89647 1.89952)
(-6.41087 3.15324 2.43595)
(-5.7232 3.37779 2.88155)
(-4.38202 3.36981 3.27162)
(-2.14787 2.58996 3.59405)
(0.651045 0.877189 3.24399)
(1.69749 -0.674982 1.89161)
(0.217542 -2.37284 0.611232)
(-3.70754 -6.18553 -1.53667)
(-7.78021 -10.0033 -5.45838)
(-6.70082 -11.2736 -7.86126)
(-2.38208 -8.99862 -5.85667)
(-0.784909 -6.79854 -3.53638)
(0.151158 -5.25521 -2.21098)
(-0.00343644 -4.20672 -1.41212)
(0.365583 -3.53989 -0.957299)
(-0.14226 -3.20653 -0.758507)
(-3.24228 0.255931 1.5316)
(-4.24744 0.954101 1.04105)
(-4.8604 1.01251 1.12797)
(-5.12739 1.03567 0.780928)
(-5.03344 1.60884 1.11223)
(-5.59145 2.74877 1.32864)
(-6.91789 3.7574 1.56117)
(-8.57374 3.4957 1.17175)
(-9.54928 1.76588 0.495404)
(-9.34478 -0.376208 -0.181343)
(-8.38413 -1.77539 -0.634252)
(-7.09696 -2.00325 -0.647284)
(-6.16643 -1.36003 -0.375276)
(-5.85533 -0.543 -0.0851617)
(-5.92387 -0.0363727 0.0946301)
(-6.08074 0.138718 0.188477)
(-6.17316 0.169781 0.16818)
(-6.17551 0.112087 0.108845)
(-6.05856 0.0691063 0.019551)
(-5.88166 0.0646848 -0.0754983)
(-5.61874 0.147444 -0.190001)
(-5.35299 0.293883 -0.267903)
(-5.08756 0.481064 -0.282117)
(-4.87379 0.66226 -0.229394)
(-4.6534 0.806772 -0.135164)
(-4.4194 0.916374 -0.0210911)
(-4.18566 1.00389 0.122856)
(-3.9154 1.03486 0.244831)
(-3.63369 1.00304 0.313581)
(-3.31069 0.916034 0.317782)
(-2.9573 0.76741 0.255531)
(-2.56587 0.572828 0.11797)
(-2.2682 0.385559 -0.0882344)
(-2.14583 0.264928 -0.312493)
(-2.25942 0.247412 -0.508972)
(-2.55633 0.357297 -0.6693)
(-2.8974 0.564885 -0.765172)
(-3.15461 0.824743 -0.790439)
(-3.29026 1.13928 -0.779662)
(-3.40794 1.52591 -0.670613)
(-3.34669 1.91747 -0.454234)
(-3.14178 2.26465 -0.125122)
(-2.79884 2.60702 0.395706)
(-2.15517 2.9555 1.11145)
(-0.936107 3.07803 1.70092)
(0.80458 2.92553 2.10845)
(3.07833 2.54178 2.33612)
(5.43366 1.6306 2.66215)
(8.34871 0.34033 2.43447)
(10.1855 -0.700699 1.24546)
(10.4187 -1.8102 -0.0216976)
(9.37379 -3.53532 -1.31137)
(5.77842 -6.26845 -4.09816)
(-3.4907 -11.1837 -8.39611)
(-1.21455 -10.2364 -7.29166)
(0.253915 -7.3801 -4.05766)
(0.734511 -5.54683 -2.46852)
(0.352272 -4.35768 -1.55989)
(0.543299 -3.6196 -1.05083)
(-0.0821873 -3.25949 -0.831107)
(-3.39204 1.89343 2.43504)
(-4.41779 1.19757 1.35705)
(-4.93598 1.13098 1.3799)
(-5.03768 1.03901 1.04704)
(-4.51382 1.82467 1.45086)
(-4.82301 3.24091 1.58039)
(-5.86642 4.51234 1.67066)
(-7.37728 4.17368 1.21276)
(-7.95898 2.09182 0.598199)
(-7.428 -0.715269 0.0146346)
(-6.69556 -2.44812 -0.236109)
(-5.68935 -2.60302 -0.279163)
(-4.78572 -1.59814 -0.182406)
(-4.41523 -0.506912 -0.0122094)
(-4.38509 0.117921 0.144185)
(-4.42557 0.341998 0.208212)
(-4.34285 0.362657 0.156905)
(-4.15338 0.315705 0.0512211)
(-3.84196 0.236829 -0.132625)
(-3.4753 0.207293 -0.330431)
(-3.0074 0.290853 -0.529067)
(-2.55836 0.466496 -0.681891)
(-2.09691 0.676104 -0.760702)
(-1.62497 0.851397 -0.691635)
(-1.11301 0.987249 -0.512992)
(-0.621428 1.10597 -0.332439)
(-0.19186 1.24191 -0.183445)
(0.34423 1.32788 -0.0435652)
(0.974308 1.31135 0.0692298)
(1.69588 1.20757 0.0803541)
(2.41891 1.02759 -0.00401641)
(3.13754 0.796502 -0.124471)
(3.76088 0.545401 -0.235958)
(4.15412 0.328134 -0.347361)
(4.26501 0.190822 -0.433138)
(4.18151 0.141977 -0.505895)
(3.92646 0.200117 -0.616413)
(3.66831 0.368592 -0.741131)
(3.60066 0.633652 -0.888581)
(3.53704 1.00513 -1.00429)
(3.60359 1.43936 -0.987465)
(3.93329 1.81364 -0.916622)
(4.11499 2.22582 -0.564244)
(4.76602 2.4928 -0.0213234)
(6.3421 2.48506 0.389289)
(7.43747 2.43405 0.759648)
(8.20804 2.30684 1.26726)
(9.57117 2.0149 1.8537)
(13.9026 0.894403 1.34306)
(17.1134 -0.153155 0.0123313)
(18.0262 -0.902803 -0.902116)
(17.65 -1.7551 -1.55891)
(16.0728 -2.90522 -2.47091)
(8.27231 -6.82704 -5.43113)
(0.708375 -11.2066 -7.71556)
(1.59113 -8.05463 -4.36724)
(1.43303 -5.84476 -2.56005)
(0.758628 -4.50825 -1.60051)
(0.74749 -3.69741 -1.07318)
(-0.0153485 -3.30883 -0.846676)
(-4.14499 1.88353 1.61553)
(-4.85118 1.47919 0.605023)
(-4.15735 1.58675 1.27718)
(-3.55713 1.04227 1.17308)
(-1.96868 1.99844 1.7716)
(-1.21745 3.63212 1.89551)
(-1.20227 5.08284 1.57461)
(-1.51834 4.92135 0.822715)
(-0.979323 2.88827 -0.185016)
(-0.245455 0.0756124 -0.865106)
(-0.328205 -2.14027 -0.418377)
(-0.306597 -2.61161 0.440361)
(0.367081 -1.59204 0.666834)
(0.983391 -0.420466 0.495934)
(1.31133 0.142743 0.333939)
(1.55071 0.161045 0.200619)
(1.911 -0.0432507 0.0713138)
(2.21882 -0.324463 -0.0171594)
(2.5046 -0.601463 -0.107342)
(2.74307 -0.685928 -0.230787)
(3.06427 -0.520604 -0.433428)
(3.33814 -0.1467 -0.710324)
(3.61875 0.332383 -0.953923)
(3.90745 0.760714 -1.02693)
(4.26691 1.1003 -0.906845)
(4.73944 1.31369 -0.672627)
(5.29525 1.44017 -0.465282)
(5.93603 1.52289 -0.324073)
(6.69712 1.52908 -0.208281)
(7.66174 1.41249 -0.137261)
(8.58184 1.2003 -0.138498)
(9.39716 0.925035 -0.222771)
(10.0685 0.654844 -0.321677)
(10.5394 0.435498 -0.394741)
(10.787 0.277874 -0.444312)
(10.8196 0.177524 -0.494109)
(10.7344 0.134829 -0.586591)
(10.5356 0.173358 -0.790335)
(10.5066 0.288383 -1.03553)
(10.4423 0.620736 -1.27359)
(10.5214 1.05959 -1.53174)
(10.8055 1.57792 -1.66912)
(10.9426 2.2103 -1.51031)
(11.6282 2.59717 -1.11508)
(12.9759 2.60303 -0.497759)
(13.7021 2.46607 0.282946)
(14.3006 2.13326 0.390758)
(15.377 2.00499 -0.130686)
(19.3595 1.10018 -0.556192)
(21.1455 -0.364748 -0.708337)
(21.0289 -0.903695 -0.915015)
(20.4074 -1.45576 -1.26014)
(19.2165 -2.23618 -1.79625)
(14.4994 -4.9738 -3.50532)
(3.56116 -11.3597 -6.39648)
(3.01706 -8.73033 -4.30374)
(2.20344 -6.11515 -2.50485)
(1.2082 -4.6259 -1.55524)
(0.976246 -3.74528 -1.03951)
(0.0562566 -3.33007 -0.818015)
(-3.5205 17.0877 4.08708)
(-4.60287 4.42996 0.720652)
(-3.07173 1.02064 0.979298)
(-1.5511 1.55228 0.68647)
(1.20764 1.70869 1.1552)
(4.65326 1.67031 1.25699)
(8.47445 1.34194 1.0764)
(12.0777 0.475666 0.662576)
(13.6877 -0.280186 0.270129)
(13.1797 -0.766432 0.0147036)
(11.0394 -0.994081 -0.102886)
(10.2809 -0.992567 0.130684)
(11.1081 -0.883521 0.375906)
(12.4056 -0.560689 0.309513)
(13.4844 -0.310278 0.232701)
(14.3219 -0.233498 0.219897)
(14.7968 -0.211691 0.181693)
(14.8267 -0.169795 0.150663)
(14.5823 -0.151923 0.159099)
(14.061 -0.107996 0.110401)
(13.4161 0.0395379 -0.162759)
(12.6437 0.268145 -0.625714)
(11.9741 0.472941 -1.04279)
(11.7781 0.564749 -1.21721)
(11.9968 0.569922 -1.17028)
(12.6134 0.518259 -0.943675)
(13.3768 0.460114 -0.699801)
(14.2319 0.407494 -0.506813)
(15.1497 0.347323 -0.378628)
(16.1445 0.26635 -0.307285)
(17.1179 0.183107 -0.263426)
(17.9295 0.161479 -0.246908)
(18.5466 0.165752 -0.253177)
(18.9254 0.143856 -0.229173)
(19.1616 0.101956 -0.173402)
(19.2852 0.0624606 -0.114173)
(19.2909 0.0483254 -0.082891)
(19.2169 0.052847 -0.0749613)
(19.0421 0.10094 -0.150004)
(18.8201 0.193737 -0.318515)
(18.791 0.294179 -0.568928)
(18.8821 0.466552 -0.896375)
(19.1862 0.625223 -1.11432)
(19.6422 0.686397 -0.985689)
(20.4602 0.80926 -0.397649)
(21.853 0.895138 0.537462)
(24.2152 0.503051 0.826751)
(25.3613 0.031842 -0.086732)
(24.8691 0.153746 -0.996738)
(23.9632 -0.145138 -0.457755)
(22.5318 -0.79435 -0.570079)
(21.5462 -1.22903 -0.817498)
(20.3327 -1.87528 -1.17709)
(16.862 -4.4451 -2.32996)
(6.43421 -11.4885 -4.6243)
(4.58994 -9.55101 -3.59438)
(3.02001 -6.55979 -2.10369)
(1.64367 -4.88748 -1.29609)
(1.18362 -3.91616 -0.859104)
(0.119456 -3.45937 -0.671289)
(-2.13468 18.7999 6.82355)
(-3.74203 3.69163 1.8769)
(-1.99071 0.86565 1.20451)
(-0.551975 0.654016 0.216972)
(2.3314 1.04587 0.212908)
(5.08814 1.50119 0.567734)
(7.70553 0.907083 1.19855)
(9.96705 0.331392 1.481)
(12.354 -0.0309223 1.10057)
(14.3224 -0.204681 0.501075)
(15.064 -0.457525 -0.136373)
(15.737 -0.393438 -0.807043)
(17.1762 -0.299015 -0.867491)
(18.522 -0.251274 -0.591899)
(19.3944 -0.200831 -0.27387)
(19.8664 -0.148819 -0.0147306)
(20.0493 -0.13692 0.202516)
(19.9627 -0.139539 0.360204)
(19.8243 -0.162794 0.475791)
(19.7119 -0.175063 0.489584)
(19.5235 -0.16463 0.400019)
(18.9741 -0.109783 0.191116)
(17.7311 0.072389 -0.264629)
(16.0651 0.302496 -0.849326)
(14.8183 0.478746 -1.1335)
(14.6294 0.480585 -1.02326)
(15.0919 0.346224 -0.823676)
(16.1382 0.194118 -0.553361)
(17.2667 0.0790215 -0.330297)
(18.3693 0.0180264 -0.213695)
(19.3408 0.00188085 -0.178321)
(20.0944 0.0188518 -0.181308)
(20.5404 0.0514577 -0.196545)
(20.7703 0.065367 -0.226267)
(20.927 0.0651621 -0.248971)
(21.0525 0.056156 -0.236143)
(21.1293 0.0483869 -0.199964)
(21.1401 0.0493149 -0.176907)
(21.1194 0.0588351 -0.182439)
(21.0427 0.0779114 -0.254082)
(20.8683 0.135715 -0.491438)
(20.7898 0.246221 -0.704347)
(20.908 0.306827 -0.722391)
(21.4177 0.327789 -0.37198)
(22.96 0.206993 0.369137)
(26.0891 -0.0232588 0.78381)
(28.5892 -0.129222 0.827606)
(28.728 -0.0254364 0.726198)
(27.5567 0.635166 -0.0373812)
(24.1976 -0.195929 -0.0655105)
(22.7048 -0.762855 -0.227787)
(21.6237 -1.20784 -0.476959)
(20.3204 -1.90233 -0.895911)
(16.6791 -4.69722 -2.10976)
(6.58137 -11.7112 -3.49298)
(4.78574 -9.80071 -2.56071)
(3.17926 -6.77285 -1.49892)
(1.7413 -5.03906 -0.943664)
(1.2346 -4.02913 -0.636527)
(0.134883 -3.55384 -0.50161)
(-1.57613 11.9551 4.81878)
(-2.97878 1.61011 2.16129)
(0.0784769 0.241387 1.04686)
(1.32842 0.267109 0.107396)
(3.96413 1.09463 0.283751)
(6.69527 2.18707 1.13885)
(10.4112 2.34852 2.21335)
(14.5377 1.18976 1.89456)
(17.5361 0.341117 0.533732)
(18.4631 -0.0374916 -0.436924)
(18.1798 -0.32875 -1.06602)
(17.2555 -0.341307 -1.73963)
(17.4505 -0.547006 -2.04202)
(18.889 -0.710371 -1.5898)
(20.3364 -0.474619 -0.69803)
(21.1588 -0.223565 -0.032283)
(21.3905 -0.120612 0.282291)
(21.3421 -0.0914855 0.383672)
(21.2313 -0.0999186 0.402178)
(21.1 -0.12115 0.368666)
(20.9235 -0.134683 0.279161)
(20.5972 -0.153754 0.195152)
(19.8696 -0.188131 0.131774)
(18.0784 -0.197749 -0.0531504)
(15.5994 -0.0952525 -0.359507)
(14.2072 0.104577 -0.73487)
(14.1283 0.222369 -0.872092)
(14.7266 0.275345 -0.817932)
(16.1477 0.26862 -0.605866)
(17.8199 0.203103 -0.388883)
(19.4147 0.140582 -0.194008)
(20.6615 0.0778097 -0.0697382)
(21.359 0.0387347 -0.0374082)
(21.5652 0.0340976 -0.0753461)
(21.5533 0.0355701 -0.116071)
(21.4917 0.0320877 -0.170013)
(21.475 0.0246449 -0.170914)
(21.5124 0.0188996 -0.145458)
(21.5552 -0.0280092 -0.0863356)
(21.5443 -0.0901535 -0.0826048)
(21.4458 -0.121767 -0.127201)
(20.9679 -0.00386076 -0.162975)
(20.476 0.403383 -0.190299)
(20.7235 0.879106 -0.167774)
(22.0969 1.56268 0.0286179)
(25.8195 1.48592 0.449392)
(28.8119 0.375829 0.577295)
(28.7379 -0.200727 0.70362)
(27.4237 0.164241 1.24491)
(24.1405 -0.294961 0.35621)
(22.7909 -0.818923 0.0373272)
(21.7985 -1.28352 -0.200982)
(20.5302 -2.0254 -0.654634)
(16.4997 -5.17849 -2.0825)
(7.14604 -11.6878 -2.5257)
(5.09676 -9.85839 -1.65392)
(3.35272 -6.94306 -0.926763)
(1.81916 -5.16632 -0.58951)
(1.27097 -4.12543 -0.404359)
(0.144667 -3.63351 -0.32236)
(-3.3186 3.8761 3.52852)
(-4.18654 1.43016 2.2041)
(-1.22093 0.763796 0.883716)
(-0.380829 0.578745 -0.18601)
(2.22176 1.35506 -0.126379)
(3.93838 2.85108 0.688159)
(6.31987 4.2206 2.34794)
(11.2274 3.20752 3.01767)
(18.5227 0.349831 1.46426)
(20.04 -1.1111 0.0797946)
(19.3823 -1.76111 -0.922243)
(15.825 -1.45079 -2.28113)
(13.8502 -1.00856 -3.13839)
(14.0798 -0.702989 -2.68965)
(14.8123 -0.195063 -1.31291)
(15.5492 -0.0175806 -0.331514)
(16.2883 -0.00749084 0.229471)
(16.6752 -0.0588335 0.506479)
(16.7189 -0.140619 0.606447)
(16.6394 -0.204661 0.597224)
(16.3327 -0.262306 0.547786)
(15.6241 -0.359348 0.542365)
(14.6739 -0.573339 0.634075)
(13.5993 -0.838585 0.543948)
(12.8453 -0.856052 0.061072)
(12.5107 -0.378029 -0.547539)
(12.4086 0.176948 -0.786463)
(12.6858 0.555451 -0.748938)
(13.3817 0.728548 -0.611365)
(14.2709 0.758704 -0.481918)
(15.175 0.684282 -0.367678)
(15.9944 0.506383 -0.257583)
(16.5585 0.32056 -0.173051)
(16.822 0.19651 -0.138924)
(16.8719 0.0934974 -0.202967)
(16.811 -0.0131607 -0.307269)
(16.7195 -0.0501051 -0.326589)
(16.635 -0.00290195 -0.253728)
(16.5896 0.0248673 -0.0863758)
(16.483 -0.0255458 0.116539)
(16.3518 -0.0486182 0.287546)
(16.2615 0.083102 0.437859)
(16.3746 0.37727 0.49952)
(16.9627 1.14677 0.670662)
(18.6656 2.58232 1.06887)
(22.4637 2.92325 1.21821)
(26.7582 1.25423 0.992416)
(27.0677 -1.023 0.888305)
(26.1866 -1.40312 1.04443)
(24.013 -0.637178 0.355439)
(22.6252 -1.06221 0.118369)
(21.8083 -1.46204 0.0364603)
(20.9106 -1.99471 -0.0632633)
(18.5443 -3.69066 -0.336736)
(8.49379 -10.4318 -0.48727)
(4.94387 -9.46206 -0.371213)
(3.20043 -6.87093 -0.246753)
(1.72185 -5.15218 -0.188581)
(1.22256 -4.12887 -0.145782)
(0.132337 -3.64265 -0.124099)
(-3.57662 2.91962 -2.40397)
(-4.8508 1.37614 -0.239286)
(-2.31665 1.5671 0.58401)
(-1.3862 1.44561 0.439261)
(2.23693 2.30102 0.416583)
(5.44083 3.75939 1.38241)
(8.8216 4.64247 3.43369)
(15.063 2.21075 3.85567)
(21.7464 -0.786392 1.12973)
(23.7083 -1.87183 -0.241379)
(23.5625 -2.15772 -0.708283)
(22.0669 -1.984 -1.41328)
(17.5588 -1.51592 -3.35193)
(15.3236 -1.07601 -3.41209)
(15.0129 -0.279176 -1.25688)
(15.1504 0.115663 0.164246)
(15.5537 0.191881 0.713545)
(15.9225 0.144292 0.857566)
(16.0793 0.0269957 0.786464)
(16.0147 -0.0994338 0.629932)
(15.7388 -0.224211 0.426639)
(15.187 -0.346056 0.229215)
(14.4189 -0.576364 -0.127498)
(13.5142 -0.854478 -0.538686)
(12.6943 -0.879246 -0.692956)
(12.1545 -0.443048 -0.487006)
(11.7905 0.156924 -0.271231)
(11.8562 0.607248 -0.105537)
(12.3802 0.882402 0.0317388)
(13.3895 0.847506 0.177504)
(14.3927 0.642813 0.312756)
(15.3342 0.427039 0.372437)
(16.0291 0.245066 0.331293)
(16.3444 0.126537 0.20702)
(16.3799 0.102029 0.0898928)
(16.2128 0.141046 0.0208866)
(15.8534 0.160492 -0.0161171)
(15.5852 0.12431 0.0581346)
(15.4927 0.0900051 0.205744)
(15.2993 0.101705 0.396353)
(15.0812 0.193818 0.620747)
(15.0024 0.443573 1.0943)
(15.0831 0.948034 1.7392)
(15.9084 1.72059 2.13399)
(18.3241 2.48099 2.52457)
(22.2975 2.48694 2.81535)
(26.2984 0.857842 1.94869)
(26.3338 -1.29106 0.910446)
(25.5314 -1.48016 1.07484)
(23.9875 -0.576219 0.565847)
(22.6223 -1.03724 0.142775)
(21.7993 -1.46275 0.039461)
(20.8669 -2.04892 0.103953)
(18.4656 -3.79793 0.571803)
(8.23502 -10.3289 1.79513)
(4.84131 -9.39897 0.815665)
(3.16616 -6.85647 0.318311)
(1.71226 -5.1505 0.15027)
(1.21969 -4.12933 0.0766369)
(0.132587 -3.6436 0.0476597)
(-0.889857 11.0552 -3.23729)
(-1.50566 1.37375 2.08149)
(0.405944 1.10335 2.8391)
(1.6874 0.384702 0.331415)
(4.73751 1.03317 -0.729899)
(8.68334 4.04845 0.453833)
(13.4233 6.38707 1.71398)
(23.3029 2.91197 1.05797)
(28.5574 -1.18446 0.147519)
(29.0781 -2.14588 -0.122661)
(28.6411 -2.47679 -0.135565)
(27.8555 -2.26825 -0.42499)
(26.028 -1.88462 -1.26374)
(20.3985 -1.20484 -2.91318)
(18.7961 -0.350611 -1.67796)
(18.8744 -0.00100279 -0.162597)
(19.5025 0.0644561 0.361696)
(20.1006 0.056311 0.497023)
(20.4007 0.0259327 0.478595)
(20.5082 -0.00930664 0.389708)
(20.4778 -0.0524882 0.248257)
(20.3021 -0.100955 0.155976)
(19.7686 -0.155245 0.130167)
(18.2507 -0.220042 0.0828326)
(15.5797 -0.156597 -0.0113841)
(13.6248 0.0748661 0.00105068)
(13.1713 0.299964 0.0906848)
(13.433 0.400698 0.164867)
(14.4743 0.393156 0.146132)
(16.0489 0.277116 0.103014)
(17.7717 0.16164 0.0999533)
(19.2222 0.0939424 0.0799755)
(20.1007 0.0550466 0.0625582)
(20.4612 0.0180258 0.0570951)
(20.5541 -0.0276487 0.0122538)
(20.5368 -0.0538916 0.00172985)
(20.4563 -0.0635543 0.071467)
(20.2951 -0.0587604 0.19147)
(20.1586 -0.0573695 0.353769)
(19.8581 -0.0696365 0.614907)
(19.2447 -0.0172593 0.975376)
(18.0375 0.292175 1.65095)
(16.9922 0.89412 2.48382)
(17.0459 1.55898 2.93588)
(18.2259 2.14509 2.99226)
(21.0918 2.27897 2.88909)
(24.1637 0.874401 2.14314)
(24.2813 -0.924394 0.903269)
(24.081 -0.784959 0.618849)
(23.3965 -0.530536 0.305913)
(22.5854 -0.841719 0.155628)
(21.6267 -1.30044 0.193447)
(20.133 -2.22797 0.635192)
(14.2501 -6.42844 2.75395)
(5.92956 -11.6797 3.78576)
(4.54088 -9.7303 2.0209)
(3.17746 -6.90424 0.96153)
(1.76369 -5.15925 0.536109)
(1.25 -4.12389 0.32895)
(0.143275 -3.63335 0.242995)
(-0.978398 18.242 -6.23307)
(-0.940457 3.93505 -0.744767)
(14.4031 0.550606 -0.163874)
(21.8415 -1.17379 0.377199)
(21.0806 -1.38188 1.30217)
(18.9154 0.271415 3.22902)
(22.0999 2.00635 2.26604)
(29.4707 1.74211 -1.94643)
(32.3247 -1.08333 -1.86211)
(33.2053 -2.84098 -0.740323)
(33.233 -3.21505 -0.284832)
(32.2644 -2.95183 -0.146205)
(29.5298 -2.36147 -0.00767311)
(22.0141 -1.70729 0.505876)
(14.9471 -0.867529 0.699421)
(13.7841 -0.142862 0.535837)
(14.0215 0.0541927 0.563017)
(14.9137 0.107555 0.667249)
(15.3282 0.109334 0.645571)
(15.2882 0.0910556 0.563336)
(14.8066 0.0633412 0.458126)
(13.8045 0.071705 0.448077)
(12.5445 0.143186 0.605587)
(11.1237 0.255529 0.797787)
(10.2504 0.304185 0.796817)
(10.095 0.308731 0.554194)
(10.246 0.352007 0.405653)
(10.8228 0.349798 0.336532)
(11.6342 0.276303 0.207782)
(12.521 0.191263 0.10232)
(13.485 0.120277 0.102417)
(14.3108 0.0742428 0.183231)
(14.772 0.0845724 0.276296)
(14.8302 0.106283 0.344512)
(14.6445 0.124969 0.395607)
(14.124 0.169874 0.469219)
(13.7626 0.23448 0.614505)
(13.6974 0.292993 0.855603)
(13.8725 0.394987 1.22157)
(14.0752 0.584183 1.73428)
(14.3328 0.846244 2.30569)
(14.4456 1.3661 2.92497)
(14.8565 1.83433 3.45723)
(15.8767 2.14325 3.69067)
(17.4296 2.46695 3.67487)
(19.434 2.58829 3.21175)
(22.4561 1.4993 2.04308)
(23.9466 -0.334412 0.648035)
(23.888 -0.532144 0.311695)
(23.1889 -0.688453 0.319223)
(22.1599 -1.04764 0.391197)
(20.9029 -1.55963 0.58411)
(18.6656 -2.86006 1.19472)
(8.74706 -9.52676 3.5494)
(4.26507 -12.4188 4.12681)
(3.74934 -9.51424 2.54014)
(2.89811 -6.74228 1.43712)
(1.6429 -5.05241 0.862601)
(1.19494 -4.04723 0.554618)
(0.131124 -3.57259 0.42235)
(-3.06079 16.8187 -4.82727)
(-3.12493 1.38321 -3.03166)
(2.38529 -1.4248 -3.04193)
(2.80532 -0.533852 -0.312063)
(6.56071 2.6833 0.461014)
(12.6462 5.48812 -1.09823)
(23.5647 3.68709 -2.50755)
(32.0818 -0.806326 -1.77301)
(32.7555 -2.69786 -0.566671)
(30.9556 -3.24458 0.0633565)
(27.4253 -2.03955 0.589372)
(23.8797 -0.372075 1.43103)
(16.458 0.64452 3.28657)
(9.49604 0.664292 3.48146)
(8.33444 0.246197 1.73144)
(8.25332 0.177669 0.629621)
(8.68692 0.168079 0.37544)
(9.44584 0.136697 0.45352)
(10.1323 0.139721 0.600836)
(10.4368 0.197817 0.728775)
(10.3847 0.242977 0.842124)
(10.1028 0.271592 0.933902)
(9.63825 0.300022 0.925967)
(9.1431 0.31188 0.855543)
(8.88193 0.303781 0.719222)
(8.90456 0.316772 0.642339)
(9.17297 0.35483 0.599019)
(9.75407 0.368586 0.554361)
(10.2745 0.350546 0.524878)
(10.6923 0.327541 0.474557)
(10.9853 0.297552 0.438014)
(11.2949 0.259921 0.45819)
(11.4171 0.295668 0.530311)
(11.4697 0.337126 0.586704)
(11.6233 0.344303 0.635053)
(11.7639 0.366109 0.69993)
(11.8958 0.411327 0.767762)
(12.1468 0.488376 0.848138)
(12.5059 0.703724 1.09318)
(13.1706 0.93148 1.50623)
(14.035 1.26745 2.22444)
(14.791 1.79401 3.18615)
(15.7927 2.26217 3.96349)
(17.3617 2.59905 4.20585)
(19.0735 2.8609 4.05428)
(21.2201 2.72463 3.55949)
(23.6924 1.08104 2.24459)
(23.783 -0.840967 0.425722)
(23.4581 -0.801143 -0.0321803)
(22.6106 -0.824065 0.286713)
(21.8732 -1.02549 0.579021)
(20.8871 -1.41888 0.953608)
(18.9649 -2.57055 1.59208)
(9.01481 -9.45821 3.84204)
(4.13029 -12.6366 4.11729)
(3.52471 -9.31738 3.06943)
(2.72227 -6.56095 1.88925)
(1.53332 -4.91788 1.17197)
(1.13973 -3.94536 0.76612)
(0.113553 -3.48695 0.589671)
(-4.61737 1.2427 -2.70665)
(-5.24182 1.09086 -1.64474)
(-4.4883 0.591415 -2.16392)
(-3.33508 0.400696 -1.35069)
(-0.756452 0.473157 -2.73188)
(0.783691 1.01395 -4.63256)
(2.36499 1.44211 -5.76995)
(6.63468 0.859654 -4.2817)
(11.2462 -0.403585 -1.02361)
(11.0814 -0.977002 1.69213)
(6.64966 -0.116313 3.46282)
(2.97098 1.10268 4.82824)
(1.59374 1.62508 5.0711)
(1.59695 1.63899 3.26318)
(1.72458 1.62721 1.46925)
(1.86815 1.50861 0.655334)
(2.17824 1.21837 0.380405)
(2.67089 0.782936 0.355234)
(3.13277 0.325952 0.493689)
(3.42292 -0.0541251 0.654888)
(3.76041 -0.392527 0.784435)
(4.08229 -0.66114 0.922731)
(4.29352 -0.71615 1.04817)
(4.47764 -0.502437 1.05692)
(4.68017 -0.0136215 0.938387)
(4.925 0.590169 0.775715)
(5.26773 1.07203 0.634388)
(5.70428 1.36594 0.583514)
(6.20131 1.41107 0.559754)
(6.78054 1.21292 0.517741)
(7.35411 0.863373 0.458788)
(7.9613 0.471477 0.439753)
(8.52608 0.144089 0.484305)
(8.95617 -0.0750373 0.555789)
(9.10151 -0.229354 0.651081)
(9.11979 -0.352882 0.806924)
(9.19336 -0.439318 0.964434)
(9.33462 -0.411402 1.14189)
(9.66046 -0.0999122 1.44484)
(10.2517 0.690961 1.91393)
(10.8419 1.67974 2.47214)
(11.772 2.67654 3.01411)
(13.2821 3.34244 3.35848)
(15.282 3.72422 3.52795)
(17.4655 3.55354 3.21144)
(19.7481 2.44627 2.03246)
(21.219 0.32003 0.613512)
(21.0292 -1.11464 -0.0356332)
(20.8785 -0.97537 -0.0640026)
(20.886 -0.903147 0.221692)
(20.6527 -1.0892 0.749567)
(19.8997 -1.57941 1.48096)
(18.2267 -2.628 2.41199)
(10.1751 -7.94729 4.78872)
(3.00556 -12.3012 4.9996)
(2.61638 -8.7446 3.59224)
(2.09182 -6.15347 2.21655)
(1.15833 -4.65259 1.40216)
(0.956917 -3.76363 0.936021)
(0.0532353 -3.3457 0.731465)
(-4.02093 1.89966 -2.6708)