/*--------------------------------*- C++ -*----------------------------------*\
| =========                 |                                                 |
| \\      /  F ield         | OpenFOAM: The Open Source CFD Toolbox           |
|  \\    /   O peration     | Version:  2.1.1                                 |
|   \\  /    A nd           | Web:      www.OpenFOAM.org                      |
|    \\/     M anipulation  |                                                 |
\*---------------------------------------------------------------------------*/
FoamFile
{
    version     2.0;
    format      ascii;
    class       volVectorField;
    location    "0.0012";
    object      UFLUK;
}
// * * * * * * * * * * * * * * * * * * * * * * * * * * * * * * * * * * * * * //

dimensions      [0 1 -1 0 0 0 0];

internalField   nonuniform List<vector> 
36520
(
(-5.64921e-05 -0.715115 0.759926)
(-7.73204e-05 0.0285807 -0.0901978)
(9.66273e-06 0.192114 -0.296669)
(1.50277e-05 0.148409 -0.719934)
(2.43328e-05 0.172994 -1.04432)
(3.1531e-05 0.212725 -1.39311)
(3.61077e-05 0.250425 -1.56563)
(3.6962e-05 0.204858 -1.3664)
(3.33697e-05 0.0877382 -0.830124)
(2.09701e-05 -0.0432588 -0.219002)
(5.07701e-07 -0.136545 0.257008)
(-1.03612e-05 -0.157725 0.42804)
(-4.35189e-06 -0.123402 0.36384)
(9.81101e-06 -0.0682267 0.15858)
(2.47062e-05 -0.0272753 -0.0309394)
(3.71325e-05 -0.00546947 -0.168107)
(4.93877e-05 -0.00023921 -0.240454)
(6.39058e-05 -0.00128611 -0.276977)
(8.14507e-05 -0.00818783 -0.295896)
(0.000101429 -0.0104085 -0.319669)
(0.000122639 -0.00902462 -0.35746)
(0.000143299 -0.00160365 -0.412542)
(0.000160066 0.00820237 -0.478098)
(0.000169135 0.0198144 -0.550786)
(0.000167215 0.0318898 -0.621469)
(0.000153563 0.0451906 -0.679447)
(0.000131325 0.0581921 -0.715338)
(0.000108959 0.067984 -0.72312)
(0.000100098 0.0735792 -0.705563)
(0.000119366 0.0727851 -0.667921)
(0.000174181 0.0652149 -0.618419)
(0.000258556 0.0516566 -0.567557)
(0.000352993 0.0353766 -0.529218)
(0.000431587 0.0186675 -0.512067)
(0.000472216 0.00780474 -0.527553)
(0.000463342 0.00363309 -0.580925)
(0.000400464 0.00836848 -0.661866)
(0.000287709 0.0222984 -0.7706)
(0.000142117 0.0468648 -0.894887)
(-1.24475e-05 0.0848435 -1.01878)
(-0.000173562 0.13815 -1.11598)
(-0.000384413 0.212194 -1.15916)
(-0.000665228 0.309276 -1.114)
(-0.000822332 0.428989 -0.954544)
(-0.000581387 0.572543 -0.640588)
(-0.000354088 0.723952 -0.200104)
(-0.000259392 0.848654 0.378846)
(-0.000144826 0.865834 1.20558)
(-5.85967e-05 0.671336 2.30774)
(1.07418e-05 0.293268 3.63577)
(7.77568e-05 -0.119184 5.07087)
(0.000111265 -0.453705 6.35101)
(6.99924e-06 -0.830404 7.19306)
(-8.25344e-06 -0.805042 7.03529)
(-4.46002e-06 -0.630544 6.32226)
(-2.76806e-07 -0.426133 5.31547)
(-4.87743e-09 -0.280414 4.41702)
(-3.95543e-11 -0.180648 3.69891)
(-2.55334e-13 -0.125671 3.21869)
(-1.37092e-15 -0.0981701 2.95923)
(-3.26561e-05 -0.498496 0.670598)
(-1.78576e-05 0.231959 -0.463402)
(4.59354e-05 0.393273 -0.509217)
(5.68245e-05 0.291863 -0.883866)
(6.6418e-05 0.394983 -1.12677)
(6.95401e-05 0.519081 -1.49056)
(6.82205e-05 0.654597 -1.64572)
(5.86318e-05 0.537401 -1.42844)
(4.22778e-05 0.232389 -0.784808)
(2.71475e-05 -0.128835 -0.0991424)
(1.62325e-05 -0.37744 0.429106)
(1.60462e-05 -0.442188 0.602271)
(2.87297e-05 -0.337633 0.513493)
(4.71545e-05 -0.184651 0.272845)
(6.73599e-05 -0.0646623 0.0727303)
(8.79121e-05 -0.00455776 -0.0724061)
(0.000109792 0.00962876 -0.138501)
(0.000131628 0.00551308 -0.165965)
(0.000151217 -0.0170462 -0.178555)
(0.000166644 -0.0343292 -0.193328)
(0.000175389 -0.0416767 -0.229914)
(0.00017402 -0.0311162 -0.276636)
(0.000157832 -0.00863361 -0.337909)
(0.000123535 0.0230497 -0.400931)
(7.11611e-05 0.0584317 -0.46294)
(5.86837e-06 0.0971971 -0.51058)
(-6.26985e-05 0.137061 -0.538838)
(-0.000120382 0.169543 -0.539786)
(-0.000151554 0.190286 -0.518126)
(-0.000145739 0.19598 -0.476233)
(-0.000106109 0.184433 -0.420232)
(-5.21942e-05 0.156924 -0.362374)
(-6.08646e-06 0.120627 -0.316021)
(2.19102e-05 0.0900464 -0.291842)
(3.34613e-05 0.0689073 -0.298002)
(3.60133e-05 0.077605 -0.340129)
(3.28397e-05 0.115153 -0.406591)
(2.05785e-05 0.180978 -0.497764)
(-5.56412e-06 0.281041 -0.600559)
(-4.46275e-05 0.42044 -0.704557)
(-9.23921e-05 0.602245 -0.789738)
(-0.000139489 0.823158 -0.826969)
(-0.000227323 1.09159 -0.797308)
(-0.00141651 1.40085 -0.733744)
(-0.0098141 1.75132 -0.516542)
(-0.00949466 2.12641 -0.0729772)
(-0.00587523 2.39582 0.479627)
(-0.0036215 2.35711 1.27171)
(-0.00203109 1.64063 2.52087)
(0.000512852 0.511194 4.07305)
(0.00407828 -0.567197 5.78338)
(0.00807768 -1.77622 7.50111)
(0.0285955 -2.5777 8.0954)
(0.000232374 -2.46398 7.76865)
(-2.49208e-05 -1.92955 6.85912)
(-1.99109e-06 -1.29504 5.68651)
(-6.08849e-08 -0.850561 4.67677)
(-7.44014e-10 -0.554105 3.89196)
(-6.84655e-12 -0.385767 3.36922)
(-7.21695e-14 -0.306682 3.08957)
(-2.82764e-05 0.00672175 0.588081)
(-6.80972e-06 0.517981 -0.550046)
(3.65212e-05 0.627482 -0.613912)
(3.34213e-05 0.466482 -0.914943)
(2.78464e-05 0.633031 -1.17074)
(2.19169e-05 0.828582 -1.63967)
(1.6017e-05 1.0529 -1.87449)
(8.59146e-06 0.87259 -1.63622)
(-3.90644e-07 0.388751 -0.814152)
(-1.10796e-05 -0.163462 0.0342461)
(-1.60372e-05 -0.561987 0.674634)
(-1.39284e-05 -0.657273 0.85143)
(-1.08413e-05 -0.498297 0.688718)
(-5.57634e-06 -0.259518 0.364697)
(1.70551e-06 -0.0861213 0.107411)
(7.85866e-06 0.00514947 -0.0552376)
(1.24569e-05 0.0200302 -0.123245)
(1.58711e-05 0.00800005 -0.147493)
(1.82024e-05 -0.0285445 -0.157232)
(1.95195e-05 -0.052521 -0.165474)
(1.93124e-05 -0.0609803 -0.203542)
(1.66382e-05 -0.0408851 -0.257284)
(1.0722e-05 0.00232115 -0.332434)
(1.24482e-06 0.056929 -0.407277)
(-1.2612e-05 0.116452 -0.48072)
(-2.62332e-05 0.180882 -0.536369)
(-4.4698e-05 0.244483 -0.577506)
(-5.08198e-05 0.292265 -0.592774)
(-3.4408e-05 0.317671 -0.583072)
(-1.0972e-05 0.312358 -0.5519)
(-8.05842e-07 0.274565 -0.503076)
(-9.41807e-07 0.206302 -0.446755)
(-1.05344e-06 0.120018 -0.395375)
(-1.14178e-06 0.0437929 -0.368873)
(-1.20576e-06 -0.00564852 -0.37316)
(-1.24964e-06 -0.0139429 -0.419546)
(-1.30188e-06 0.0268867 -0.495575)
(-1.37524e-06 0.109468 -0.602061)
(-1.50348e-06 0.242485 -0.729425)
(-1.69853e-06 0.438422 -0.872936)
(-1.97799e-06 0.698737 -1.00617)
(-0.00189752 1.03625 -1.11808)
(-0.0234781 1.47834 -1.20108)
(-0.0804921 1.98394 -1.21524)
(-0.150348 2.53907 -1.11297)
(-0.169955 3.08068 -0.852769)
(-0.125717 3.45008 -0.453669)
(-0.0666066 3.37132 0.26535)
(-0.0265868 2.42374 1.56753)
(0.00897211 0.789283 3.41819)
(0.0408998 -0.835596 5.59961)
(0.0582755 -2.60808 7.9249)
(0.104319 -4.55474 9.48631)
(0.0839675 -4.14222 8.47891)
(-0.000306361 -3.19315 7.30534)
(-8.39119e-06 -2.11123 5.93385)
(-3.18012e-07 -1.36377 4.80615)
(-5.57385e-09 -0.882667 3.96544)
(-9.03999e-11 -0.604656 3.41071)
(-2.07618e-12 -0.480187 3.11939)
(-4.34964e-05 0.58229 0.546444)
(-2.66131e-05 0.72992 -0.643624)
(3.63039e-06 0.765124 -0.743998)
(2.55735e-06 0.533901 -0.952366)
(1.68561e-06 0.75956 -1.29193)
(3.51194e-06 1.01124 -1.92581)
(5.06379e-06 1.31428 -2.3237)
(3.30357e-06 1.09349 -2.04112)
(-1.05735e-05 0.510302 -0.977816)
(-7.03802e-05 -0.177893 0.171444)
(-7.74618e-05 -0.674334 0.984902)
(-1.65846e-05 -0.786502 1.18593)
(-3.42336e-08 -0.563628 0.917272)
(-4.65859e-08 -0.254226 0.471424)
(-7.14737e-08 -0.0380156 0.140152)
(-1.1028e-07 0.0764548 -0.0476245)
(-1.64403e-07 0.081899 -0.119338)
(-2.79283e-06 0.0585774 -0.138577)
(-6.28301e-06 0.00154468 -0.142971)
(-5.8942e-06 -0.0574338 -0.163939)
(-1.25905e-06 -0.100072 -0.233243)
(3.83879e-06 -0.103787 -0.321746)
(3.22353e-06 -0.0686174 -0.424465)
(1.2853e-07 -0.00580273 -0.527333)
(-1.46297e-06 0.0759727 -0.628017)
(-0.000409834 0.165029 -0.709576)
(-0.00106213 0.255985 -0.772006)
(-0.00128384 0.329625 -0.80201)
(-0.00135694 0.37461 -0.802928)
(-0.00140516 0.378961 -0.776343)
(-0.00128216 0.336379 -0.728812)
(-0.00100257 0.243955 -0.673223)
(-0.000603125 0.121074 -0.625614)
(-0.000131025 -0.00692998 -0.604909)
(0.000323985 -0.103696 -0.624083)
(0.00054303 -0.140399 -0.682575)
(0.000501932 -0.11383 -0.771624)
(0.000187987 -0.0292548 -0.9012)
(-0.000596286 0.118343 -1.05855)
(-0.00186773 0.34103 -1.24176)
(-0.00459412 0.642397 -1.42166)
(-0.0115927 1.02501 -1.5835)
(-0.0333971 1.49219 -1.73736)
(-0.0881678 2.02448 -1.85504)
(-0.184827 2.53799 -1.88839)
(-0.296285 3.05671 -1.79533)
(-0.338761 3.41967 -1.53372)
(-0.239087 3.33987 -0.920447)
(-0.0949035 2.45183 0.43831)
(0.01081 0.759346 2.22053)
(0.0672578 -0.941154 4.64071)
(0.0704921 -2.8759 7.86654)
(0.0945309 -5.40744 10.2303)
(0.0703492 -6.10069 9.6627)
(-0.00352652 -4.47321 8.02458)
(-7.3989e-05 -2.88146 6.3129)
(-1.39241e-06 -1.83556 5.0016)
(-2.79152e-08 -1.18414 4.07126)
(-1.18517e-09 -0.809013 3.46727)
(-4.46364e-11 -0.642845 3.15747)
(-4.69306e-05 1.28604 0.179397)
(-3.24831e-05 1.00912 -0.801829)
(-2.33669e-05 1.00259 -0.833275)
(-2.95778e-05 0.698798 -0.9537)
(-1.81701e-05 0.950664 -1.39926)
(-2.51535e-07 1.21536 -2.22071)
(-4.44581e-07 1.56212 -2.8474)
(0.000135588 1.30323 -2.56288)
(-2.8703e-07 0.642601 -1.21377)
(-0.000205512 -0.149345 0.254848)
(-0.00382462 -0.683471 1.28826)
(-0.00396297 -0.831583 1.49466)
(-0.00209088 -0.580733 1.09063)
(-0.00172577 -0.248324 0.47118)
(-0.00189004 -0.0367059 0.0266794)
(-0.00214398 0.0595721 -0.195235)
(-0.00224225 0.0478523 -0.277798)
(-0.00225027 -0.000280385 -0.283184)
(-0.00225847 -0.0860494 -0.288529)
(-0.00243704 -0.167397 -0.309052)
(-0.00270808 -0.232204 -0.378664)
(-0.00290838 -0.240156 -0.478669)
(-0.0029645 -0.193546 -0.614527)
(-0.00308764 -0.0937714 -0.76958)
(-0.00350214 0.0208859 -0.91731)
(-0.00431217 0.132503 -1.04245)
(-0.00578332 0.244471 -1.15076)
(-0.0078676 0.33821 -1.22597)
(-0.0102748 0.383358 -1.26252)
(-0.0129437 0.362202 -1.25944)
(-0.015004 0.267787 -1.2261)
(-0.0137492 0.0988854 -1.17627)
(-0.00780822 -0.12237 -1.13281)
(0.000872463 -0.337491 -1.12516)
(0.00770891 -0.47898 -1.12655)
(0.00988448 -0.520271 -1.15407)
(0.00833811 -0.468636 -1.23704)
(0.00602942 -0.361076 -1.40671)
(0.00385431 -0.217059 -1.64937)
(0.00192373 0.02798 -1.95653)
(-0.000195247 0.349932 -2.28549)
(-0.00322544 0.71839 -2.60957)
(-0.0104123 1.2071 -2.95178)
(-0.0287404 1.72949 -3.28899)
(-0.0688292 2.21259 -3.55809)
(-0.149094 2.59612 -3.7775)
(-0.226604 2.89702 -3.74387)
(-0.237195 3.08491 -2.92886)
(-0.107788 2.60809 -1.21776)
(-0.0125965 1.29281 0.268551)
(0.0320567 0.107141 1.94973)
(0.0401718 -1.90207 5.76696)
(0.0379801 -5.61974 9.64468)
(0.0712312 -7.92866 11.0669)
(0.120188 -5.85672 8.99799)
(-0.000419764 -3.53608 6.79885)
(-1.57056e-05 -2.21098 5.25521)
(-1.718e-07 -1.41212 4.20672)
(-1.46646e-08 -0.957299 3.53989)
(-7.61222e-10 -0.758507 3.20653)
(-5.79185e-05 1.53186 -0.256085)
(-7.08153e-05 1.04065 -0.958155)
(-0.000278583 1.12369 -1.03554)
(-0.000825643 0.774792 -1.08942)
(-0.00142369 1.1517 -1.61187)
(0.000641141 1.32076 -2.96513)
(0.000496584 1.43608 -4.25081)
(7.12004e-05 0.960102 -4.21518)
(-0.000894042 0.205206 -2.70507)
(-0.00102778 -0.572496 -0.761495)
(-0.00294519 -0.956504 0.729513)
(-0.0177543 -0.798779 1.31596)
(-0.0109967 -0.460798 0.981861)
(-0.00719454 -0.15082 0.285824)
(-0.00784127 0.0260613 -0.213163)
(-0.0097869 0.109283 -0.410621)
(-0.0116566 0.076975 -0.470128)
(-0.0136366 0.00372981 -0.449125)
(-0.0162586 -0.102995 -0.457593)
(-0.0192059 -0.215812 -0.511416)
(-0.0233142 -0.344203 -0.647469)
(-0.0322844 -0.430861 -0.831971)
(-0.0494525 -0.455257 -1.04416)
(-0.0663169 -0.418863 -1.25905)
(-0.0738027 -0.35088 -1.46502)
(-0.0757684 -0.272548 -1.66369)
(-0.0762291 -0.169934 -1.85197)
(-0.0770366 -0.0975976 -2.00098)
(-0.0812699 -0.0929138 -2.0979)
(-0.0748384 -0.160909 -2.14177)
(-0.0593708 -0.286439 -2.12061)
(-0.0352048 -0.477469 -2.04359)
(-0.0155523 -0.746493 -1.93175)
(-0.0160849 -0.995406 -1.81213)
(-0.0199716 -1.17164 -1.70967)
(-0.0205863 -1.28133 -1.67853)
(-0.0155646 -1.30152 -1.72439)
(-0.0145245 -1.25871 -1.82299)
(-0.0233451 -1.18784 -2.00639)
(-0.0329614 -1.01053 -2.28752)
(-0.0275394 -0.739304 -2.61794)
(-0.0208093 -0.380435 -2.95968)
(-0.032518 0.159153 -3.30368)
(-0.0628675 0.862705 -3.66835)
(-0.11693 1.41049 -3.81732)
(-0.222511 1.76896 -3.66382)
(-0.385576 1.95697 -3.25775)
(-0.437198 2.0872 -2.24957)
(-0.18843 1.67462 -0.875615)
(-0.0657584 0.551875 0.0724202)
(-0.00246314 -0.527611 1.09792)
(0.0475716 -1.6679 2.87516)
(0.131647 -4.30917 5.7484)
(0.425719 -8.47309 10.9546)
(0.22964 -7.2925 10.2336)
(0.0103231 -4.05608 7.38027)
(-0.000141953 -2.46846 5.54689)
(-2.1949e-06 -1.55989 4.35768)
(-1.43694e-07 -1.05083 3.6196)
(-9.14025e-09 -0.831107 3.25949)
(-0.00519976 2.42844 -1.92592)
(-0.0216443 1.34324 -1.28114)
(-0.069176 1.4351 -1.13866)
(0.00476111 0.795721 -1.4992)
(-0.00304348 1.18118 -2.5614)
(-0.0214015 1.18509 -4.27096)
(-0.0431529 0.847508 -5.7644)
(-0.0409243 -0.55931 -5.01485)
(-0.0213994 -1.82988 -2.30218)
(-0.00330084 -2.77672 0.584042)
(0.02687 -2.90708 2.24245)
(0.0883571 -2.28608 2.00199)
(-0.0967297 -0.427548 0.224802)
(-0.10038 -0.214948 -0.559386)
(-0.0938405 -0.0737809 -1.15395)
(-0.0978841 -0.0475612 -1.46093)
(-0.0967735 -0.131314 -1.56411)
(-0.0947293 -0.270271 -1.60714)
(-0.0970612 -0.504802 -1.63222)
(-0.093661 -0.768687 -1.68017)
(-0.0843104 -1.04674 -1.83048)
(-0.0939387 -1.26248 -2.04993)
(-0.141983 -1.36792 -2.27159)
(-0.204397 -1.32251 -2.44144)
(-0.209442 -1.20082 -2.60293)
(-0.192348 -1.17104 -2.76681)
(-0.285875 -1.18597 -2.96458)
(-0.321826 -1.03736 -3.2556)
(-0.2231 -0.824122 -3.52159)
(-0.166989 -0.641882 -3.71554)
(-0.146389 -0.816453 -3.72574)
(-0.114263 -1.95114 -3.15454)
(-0.0295361 -2.6815 -2.44044)
(0.0507052 -2.46086 -2.63425)
(0.0392455 -2.42724 -2.51818)
(-0.0217905 -1.79781 -2.75126)
(-0.00935909 -1.25481 -2.81332)
(0.0237197 -1.36993 -2.71998)
(-0.0137063 -1.716 -2.65841)
(-0.12271 -1.74504 -2.80244)
(-0.421556 -1.5806 -3.01914)
(-0.933562 -1.48876 -3.03355)
(-1.03194 -1.15518 -3.09898)
(-0.842203 -0.473867 -3.38693)
(-0.950264 0.203698 -3.39402)
(-1.36653 0.837751 -3.01641)
(-1.51808 1.43301 -2.43473)
(-1.51333 1.92884 -2.02863)
(-1.49639 1.13987 -0.948649)
(-0.378019 -0.763649 -0.439701)
(-0.037379 -1.44848 0.1374)
(0.113463 -2.00193 1.06114)
(0.523864 -2.80412 2.37139)
(0.87278 -5.48568 6.73792)
(0.395985 -7.71623 11.205)
(0.115368 -4.3671 8.05485)
(-0.000263678 -2.55951 5.84525)
(-2.52507e-05 -1.60051 4.50825)
(-1.00534e-06 -1.07318 3.69741)
(-7.83104e-08 -0.846676 3.30883)
(-0.0930607 1.62198 -1.88976)
(0.0815865 0.696073 -1.47637)
(-0.00327844 0.436916 -1.38363)
(-0.099201 -0.0663851 -0.742394)
(-0.401305 1.60819 -3.68637)
(-0.197675 1.55827 -5.92969)
(-0.14966 0.751793 -7.96581)
(-0.0923128 -1.23618 -7.94629)
(-0.0338249 -4.08868 -4.15854)
(0.00433395 -5.21674 0.0229414)
(0.0346781 -4.77132 2.78071)
(0.0705601 -3.67664 3.27104)
(0.116971 -2.69452 0.0268799)
(-0.11843 0.0302824 -2.93541)
(-0.144331 -0.0944128 -3.61505)
(-0.139693 -0.271607 -3.85959)
(-0.123371 -0.35059 -3.86347)
(-0.145045 -0.250454 -3.69411)
(-0.209276 -0.215652 -3.36466)
(-0.237896 -0.321329 -3.11179)
(-0.200258 -0.529515 -3.10299)
(-0.137104 -0.933378 -3.3958)
(-0.116761 -1.51082 -3.84034)
(-0.162717 -1.85801 -4.2123)
(-0.257636 -1.84742 -4.53167)
(-0.350726 -1.66924 -4.78202)
(-0.404547 -1.51402 -4.98691)
(-0.400156 -1.40611 -5.1688)
(-0.328825 -1.25003 -5.30557)
(-0.264304 -1.02436 -5.35084)
(-0.301517 -0.809886 -5.28076)
(-0.514839 -0.752985 -5.06784)
(-0.73402 -0.730852 -4.79676)
(-0.467615 -0.719694 -4.56248)
(-0.0232192 -0.738101 -4.33994)
(0.17987 -0.778007 -4.10239)
(0.185171 -0.871063 -3.85764)
(0.0725318 -1.01222 -3.63759)
(0.0177738 -1.14355 -3.46649)
(0.0520861 -1.30679 -3.50868)
(0.0988271 -1.49121 -3.67146)
(0.0921564 -1.48746 -3.93668)
(-0.132752 -0.837111 -4.22619)
(-0.889026 0.651478 -2.75285)
(-0.53892 1.01303 -2.04806)
(-0.191994 1.50331 -1.56463)
(-0.350269 1.33543 -1.0897)
(-0.891766 0.542598 -1.08013)
(-1.57182 -0.39793 -0.817603)
(-1.45238 -0.972439 0.255351)
(-0.242462 -1.58656 0.27302)
(0.374347 -1.85816 0.952109)
(0.962974 -2.15065 1.99967)
(0.97553 -3.56705 4.93753)
(0.549361 -6.39983 11.3574)
(0.19433 -4.3032 8.73066)
(-0.00500504 -2.50194 6.11764)
(-0.000218277 -1.5552 4.62594)
(-5.45202e-06 -1.03951 3.74528)
(-4.93502e-07 -0.818015 3.33007)
(0.000517483 3.56484 -17.2697)
(0.000699371 0.130302 -4.67901)
(0.00108295 0.000110425 -1.42991)
(-0.0082703 -0.643795 -2.10156)
(-0.101663 -0.516014 -2.41783)
(-0.19604 -0.729502 -2.53225)
(-0.141536 -1.23395 -2.31905)
(-0.0557845 -1.94471 -1.56166)
(-0.00573483 -2.61709 -0.933434)
(0.0350345 -3.14165 -0.590502)
(0.057191 -3.45738 -0.48064)
(0.0458523 -3.3905 -0.562196)
(0.0155688 -3.3542 -0.739442)
(0.0063594 -3.66062 -1.14822)
(0.00330756 -3.9846 -1.49429)
(0.00459762 -4.22767 -1.66004)
(0.00910288 -4.44643 -1.7442)
(0.0100563 -4.56634 -1.80958)
(0.00699043 -4.54554 -1.81114)
(0.00472333 -4.51677 -1.80937)
(0.00416627 -4.68076 -1.89634)
(0.00415897 -5.02665 -2.0646)
(0.00308052 -5.32781 -2.22758)
(-0.00453602 -5.37838 -2.32045)
(-0.0273473 -5.19943 -2.36186)
(-0.0490476 -4.87369 -2.32237)
(-0.0693158 -4.56032 -2.2799)
(-0.0819948 -4.32332 -2.22464)
(-0.074422 -4.17198 -2.12172)
(-0.0507681 -4.0847 -1.97676)
(-0.0260082 -4.02834 -1.82462)
(-0.0117559 -3.99111 -1.74097)
(-0.00600126 -3.95985 -1.69822)
(-0.00465341 -3.87925 -1.64191)
(-0.00504276 -3.74968 -1.57046)
(-0.0047315 -3.60105 -1.49479)
(-0.00289493 -3.45736 -1.43114)
(-0.00033776 -3.30876 -1.36901)
(0.00147393 -3.21119 -1.33457)
(0.00337563 -3.18487 -1.33735)
(0.00976906 -3.23662 -1.34675)
(0.0228568 -3.38195 -1.4338)
(0.0307285 -3.44408 -1.52276)
(0.0181509 -3.16954 -1.5227)
(0.00429509 -2.41844 -1.57874)
(0.00190868 -1.30765 -1.60008)
(0.00235274 -0.868837 -1.14181)
(-0.120558 -1.65072 -0.553787)
(-1.9865 -1.17348 -0.204425)
(-1.63971 -0.836525 0.0448484)
(-0.639608 -1.37822 0.386546)
(0.5459 -1.49886 0.907333)
(0.879884 -1.59545 1.69352)
(0.966299 -2.44568 4.39151)
(0.646629 -4.63543 11.4831)
(0.281994 -3.59329 9.55157)
(-0.0240545 -2.09165 6.56736)
(-0.00139721 -1.2958 4.88767)
(-2.80737e-05 -0.859099 3.91616)
(-2.74152e-06 -0.671289 3.45937)
(0.000430817 6.3081 -18.9008)
(0.00061084 1.32498 -3.82186)
(0.000983056 0.203644 -1.09291)
(0.000786378 -1.08299 -0.943167)
(-0.00750124 -1.35887 -1.39571)
(-0.124859 -1.26251 -1.83042)
(-0.133632 -0.886659 -1.22302)
(-0.0514692 -0.847412 -0.801249)
(-0.0160658 -1.47159 -0.588809)
(0.00124173 -2.29302 -0.510856)
(0.0177219 -3.12428 -0.326124)
(0.0223631 -3.933 -0.406725)
(0.0101315 -4.0361 -0.495077)
(0.00146328 -3.77667 -0.532754)
(-0.00047474 -3.52773 -0.587039)
(-9.1514e-05 -3.42463 -0.670876)
(0.00240932 -3.41427 -0.733419)
(0.00407408 -3.45404 -0.781979)
(0.00511987 -3.50967 -0.802653)
(0.00776606 -3.65537 -0.827623)
(0.0116031 -3.92545 -0.874488)
(0.0125278 -4.34029 -0.967858)
(0.00849505 -4.95744 -1.18085)
(0.0031273 -5.57676 -1.42056)
(-0.00612531 -5.75867 -1.58628)
(-0.033233 -5.49079 -1.56202)
(-0.0479641 -5.14311 -1.38778)
(-0.0550132 -4.73751 -1.22057)
(-0.0594532 -4.40352 -1.07191)
(-0.0456227 -4.20065 -0.963133)
(-0.0216654 -4.09615 -0.924392)
(-0.00549593 -4.04612 -0.936898)
(0.000636495 -4.01491 -0.967245)
(0.00197703 -3.98556 -0.974033)
(0.00190862 -3.92406 -0.960371)
(0.00203891 -3.79605 -0.929938)
(0.00234494 -3.61084 -0.890612)
(0.00242548 -3.40887 -0.849274)
(0.00245153 -3.21349 -0.807277)
(0.00385891 -3.07084 -0.767279)
(0.00680435 -3.07486 -0.758167)
(0.00842776 -3.03434 -0.795798)
(0.00595394 -2.77927 -0.784825)
(0.00200485 -2.1609 -0.743366)
(0.00144673 -1.2082 -0.571225)
(0.00414539 -0.649061 -0.309078)
(0.00909087 -0.469394 -0.175215)
(-0.0453804 -0.415052 -0.245024)
(-1.28142 -0.401675 -0.741478)
(-1.04237 -0.561829 0.0428453)
(-0.388839 -0.962452 0.687277)
(0.42146 -1.11262 1.17085)
(0.748406 -1.33235 1.86216)
(0.91741 -2.24224 4.68638)
(0.640306 -3.50538 11.7105)
(0.290134 -2.55926 9.80099)
(-0.0230031 -1.48475 6.77753)
(-0.00166818 -0.943295 5.03918)
(-3.419e-05 -0.636521 4.02913)
(-3.34164e-06 -0.50161 3.55384)
(0.000131369 4.39853 -12.0295)
(0.000195431 1.66235 -1.71125)
(0.000361248 -0.0214828 -0.441113)
(0.000424754 -1.41171 -0.543151)
(-0.00663729 -1.4478 -1.39771)
(-0.037065 -0.836061 -2.50173)
(-0.0542624 -0.0830621 -2.73833)
(-0.0460199 -0.872209 -1.70435)
(-0.0246491 -2.77979 -1.01637)
(0.00461727 -4.25308 -0.764299)
(0.0419516 -5.31614 -0.561384)
(0.0583671 -6.31112 -0.612501)
(0.0261003 -6.74453 -0.430138)
(0.00183468 -6.33008 -0.254538)
(-0.00152412 -5.45208 -0.479135)
(-0.00279505 -4.83591 -0.740216)
(-0.00150863 -4.63293 -0.876894)
(-0.000114798 -4.66682 -0.946755)
(0.00116989 -4.79485 -0.980456)
(0.00323007 -4.99941 -1.00396)
(0.00512252 -5.29729 -1.04065)
(0.00419934 -5.61933 -1.0773)
(0.000260253 -5.90731 -1.09688)
(-0.00559591 -6.20763 -1.1081)
(-0.00789019 -6.44242 -1.17626)
(-0.011122 -6.66667 -1.14432)
(-0.46713 -6.70411 -0.0324544)
(-0.568161 -6.46353 -0.939381)
(-0.0780786 -6.01765 -1.69348)
(0.0146091 -5.84948 -1.28498)
(0.0047171 -5.66047 -1.17336)
(0.000908868 -5.53667 -1.17218)
(0.000503334 -5.50081 -1.17876)
(-1.18838e-05 -5.507 -1.19166)
(-0.000881014 -5.46633 -1.22439)
(-0.00110114 -5.39978 -1.21371)
(0.000249199 -5.2328 -1.17462)
(0.00123329 -4.99169 -1.09333)
(0.00112917 -4.65311 -0.973205)
(0.00246519 -4.31136 -0.828096)
(0.00631598 -3.9589 -0.697638)
(0.00902647 -3.52817 -0.698809)
(0.00585639 -3.034 -0.971818)
(-0.000771337 -2.52234 -1.30411)
(-0.00173331 -1.91852 -1.87156)
(0.00972831 -1.20432 -1.72952)
(0.0200436 -0.862885 -0.599175)
(-0.200494 -0.523901 -0.066764)
(-1.46251 1.01038 -0.214378)
(-1.1906 -0.149915 0.244178)
(-0.442166 -0.716131 0.5077)
(0.500738 -0.743043 0.842485)
(0.921286 -0.921386 1.7246)
(0.981229 -2.14308 5.11414)
(0.661204 -2.53131 11.6849)
(0.300354 -1.64997 9.86082)
(-0.0209466 -0.912642 6.94624)
(-0.00216229 -0.589114 5.16637)
(-3.98463e-05 -0.404353 4.12543)
(-3.65303e-06 -0.32236 3.63351)
(0.0447642 3.84445 -4.0127)
(0.0100855 1.75966 -1.75379)
(-0.0267967 0.0679558 -1.27027)
(-0.0134495 -1.42523 -1.25191)
(0.00327431 -1.65519 -2.16207)
(0.0019196 -1.2409 -3.75954)
(-0.0903223 -0.0565275 -5.36899)
(-0.307733 -0.0657651 -4.74544)
(-0.0805248 -2.34211 -2.43149)
(0.0167643 -4.24097 -1.3964)
(0.0519075 -5.67123 -1.04001)
(0.0540482 -7.34075 -1.55039)
(0.000720873 -8.39922 -2.0676)
(-0.197924 -8.31938 -2.10469)
(-0.170585 -7.23155 -2.38276)
(-0.0598121 -6.39684 -2.51353)
(-0.0362786 -5.93366 -2.58493)
(-0.0467976 -5.77793 -2.57746)
(-0.0329038 -5.78449 -2.50812)
(0.0213293 -5.89229 -2.48234)
(-0.00267316 -6.0322 -2.50572)
(-0.618716 -6.08679 -2.45548)
(-1.91637 -5.57821 -2.85881)
(1.42638 -3.62708 -4.84428)
(7.53858 -4.43973 1.33335)
(2.61294 -4.59521 5.06053)
(-4.98112 -4.89532 2.8214)
(-6.20469 -4.28446 1.51647)
(-2.94915 -6.38277 -0.861617)
(1.72304 -4.51119 -5.03411)
(1.41885 -4.76426 -4.85215)
(0.624719 -5.9657 -3.21783)
(-0.251256 -6.47463 -1.56237)
(-3.49937 -6.04605 -0.918012)
(-5.39219 -5.39066 -0.142465)
(-1.08235 -6.52396 -0.507803)
(3.17603 -4.32825 -3.98626)
(2.99323 -4.31478 -3.67868)
(0.898347 -4.86173 -2.73606)
(-0.323413 -4.98462 0.312914)
(-0.0463153 -4.20515 0.688085)
(0.421718 -3.39504 -0.367356)
(0.36778 -2.4296 -1.32647)
(0.0547724 -1.04797 -2.62546)
(-0.0582339 -0.361266 -3.67532)
(0.0698049 -0.386521 -3.39581)
(0.657021 -0.498467 -1.08322)
(-1.86525 1.31957 0.980616)
(-1.87084 1.00974 1.38722)
(-1.6494 -0.102979 0.587609)
(-0.897735 -0.79708 0.823926)
(0.642855 -0.670803 0.910915)
(1.21913 -0.209093 1.70096)
(1.12644 -0.339932 3.64587)
(0.729356 -0.486471 10.4294)
(0.307559 -0.370916 9.46243)
(-0.0415264 -0.239518 6.87172)
(-0.00167123 -0.188377 5.15219)
(-2.72843e-05 -0.145779 4.12887)
(-2.34778e-06 -0.124099 3.64265)
(-0.265779 -2.12329 -2.71075)
(-0.112652 -0.761556 -1.09061)
(-0.077433 -0.105504 -2.08221)
(-0.105191 -0.789222 -1.91874)
(-0.345012 -1.20055 -2.56579)
(-1.24015 -0.438558 -3.42535)
(-1.79932 1.21247 -3.96003)
(-1.64081 0.657167 -1.51079)
(-0.791098 -2.86418 1.4415)
(-0.197245 -4.78903 1.6744)
(0.304284 -5.67896 1.01741)
(0.941515 -6.55723 -0.236175)
(2.40619 -7.90408 -1.94844)
(4.86014 -8.36449 -0.591593)
(0.11737 -7.07794 3.1889)
(-0.000777048 -5.86565 2.79763)
(-0.000782155 -5.51749 2.69376)
(-0.000977609 -5.59776 2.68718)
(-0.00929685 -5.83993 2.76706)
(-0.0283099 -6.0794 2.91276)
(-0.0584045 -6.35925 2.99314)
(-0.476311 -6.55911 3.10422)
(-2.07841 -5.94358 4.73339)
(-2.17777 -2.00206 7.68898)
(6.08682 0.0583448 6.19707)
(7.54288 -3.98543 2.26368)
(-0.454144 -6.58251 0.466608)
(-1.96001 -4.41185 3.23299)
(-3.85862 -3.20082 3.08448)
(-4.17382 -3.25783 2.92055)
(3.03956 -5.02362 1.54423)
(3.99878 -5.12296 0.717355)
(1.6059 -5.82701 0.844125)
(0.198013 -6.03043 1.18738)
(-0.481583 -4.8691 3.75587)
(-2.61729 -4.28279 3.90183)
(-3.26147 -3.53746 4.09528)
(1.42496 -5.33558 1.60828)
(4.2092 -4.33876 -0.0737182)
(2.32661 -4.22608 0.305843)
(0.293368 -3.54802 0.762141)
(-0.273678 -2.29895 0.542502)
(-1.46769 -0.837868 -0.495154)
(-1.45248 0.429196 -2.45691)
(1.14508 1.1908 -3.1699)
(1.00939 1.38979 -2.79101)
(1.70841 0.941115 -1.10892)
(-2.13685 1.45978 1.0443)
(-2.2101 0.970296 1.3219)
(-1.77749 -0.113131 0.271023)
(-0.898387 -0.83325 1.60134)
(0.52816 -0.55037 2.31754)
(1.21886 -0.029465 2.47805)
(1.17015 0.574007 3.85543)
(0.744675 1.7963 10.3312)
(0.307886 0.815973 9.39877)
(-0.0409279 0.325378 6.85384)
(-0.00155488 0.150467 5.15044)
(-2.55582e-05 0.0766398 4.12933)
(-2.23218e-06 0.0476598 3.6436)
(-6.128e-05 -3.68258 -10.9719)
(-0.000508703 1.39997 -1.23447)
(-0.000987697 1.3497 -0.874159)
(-0.00138668 -1.57163 -0.159639)
(-0.00409575 -2.79579 -1.05742)
(-0.718404 0.355597 -6.04393)
(-3.26175 2.14805 -6.72862)
(-3.71421 0.195719 -2.79268)
(-1.58166 -2.60408 1.58873)
(-0.290764 -3.395 2.55243)
(0.0656269 -3.91006 2.71722)
(0.464684 -4.84053 2.40013)
(1.23742 -6.2158 1.90437)
(1.15718 -8.09173 1.86648)
(0.0472618 -6.94245 1.29707)
(-0.00543894 -5.54854 0.984816)
(-0.00772018 -5.20464 0.973977)
(-0.00648854 -5.24932 1.03184)
(-0.00342321 -5.40787 1.10017)
(-0.000570285 -5.57663 1.15862)
(0.00105528 -5.76444 1.21258)
(0.00280443 -5.90519 1.26577)
(0.00262564 -5.99519 1.33001)
(0.000787376 -6.06346 1.40347)
(-0.00153024 -6.01588 1.31826)
(-0.0253282 -5.72436 1.02415)
(-0.747845 -5.39205 -1.12491)
(-0.512597 -2.15425 -4.95056)
(-0.3448 -5.02141 -1.43722)
(-0.0914124 -5.02591 0.772883)
(-0.0136338 -5.02391 0.934922)
(-0.000866838 -5.09505 0.900047)
(-0.00195235 -5.13454 0.924326)
(-0.00246407 -5.11532 0.961889)
(-0.00245256 -5.08365 0.993247)
(-0.00359293 -4.96457 0.989874)
(-0.00562782 -4.71073 0.971377)
(-0.0036784 -4.36846 0.888051)
(0.00055831 -3.94225 0.823386)
(0.00442284 -3.37899 0.773768)
(0.00646176 -2.64365 0.641087)
(0.00163134 -1.48176 0.227477)
(-0.0149735 -0.0962499 -0.488746)
(-0.0207985 0.866171 -1.20244)
(0.00696948 1.28615 -1.85342)
(0.0553313 1.37779 -2.07263)
(0.0531138 0.730947 -0.626085)
(-0.958974 -0.210859 1.14914)
(-1.60835 0.36323 0.764523)
(-0.933855 -0.501488 0.166136)
(-0.158408 -0.716317 1.30705)
(0.457941 -0.239101 1.99915)
(0.80323 0.515389 2.81443)
(0.998355 2.73836 6.6256)
(0.642108 3.78589 11.6939)
(-0.153911 2.06187 9.67721)
(-0.0314932 0.970601 6.90001)
(-0.00152681 0.536403 5.15915)
(-2.73077e-05 0.328954 4.12389)
(-2.64905e-06 0.242995 3.63335)
(-0.000102926 -6.71694 -18.1428)
(-0.0158187 -1.16972 -3.81413)
(-0.0241805 -1.15887 -0.325678)
(-0.00471771 -1.05038 1.4831)
(0.0160399 -0.539415 1.776)
(0.0131778 1.13893 0.182815)
(-0.0348543 0.0868244 -1.5293)
(-0.538697 -4.17382 -1.3221)
(-1.81017 -3.96731 1.47291)
(-0.857256 -3.27884 3.69261)
(-0.127474 -3.41911 4.04345)
(0.365741 -4.08376 3.90296)
(1.30608 -4.79783 3.39531)
(3.86978 -4.22396 2.65844)
(2.35577 -4.3784 1.78647)
(-0.111884 -4.7032 1.12245)
(-0.0126886 -4.71388 1.02598)
(0.00760053 -4.72869 1.03219)
(0.00817857 -4.88585 1.0636)
(0.00291108 -5.06309 1.09624)
(-0.000404272 -5.19415 1.12222)
(0.00574617 -5.14325 1.09881)
(0.0176251 -4.84177 0.99427)
(0.0193358 -4.42289 0.833173)
(-0.00235986 -4.1913 0.603218)
(-0.879185 -1.18443 -4.55135)
(-2.81989 0.351632 -4.32595)
(-2.24839 0.853807 -4.32623)
(-0.404104 1.45339 -4.32218)
(4.83395 -2.46118 -1.24829)
(1.14066 -4.15902 0.718024)
(0.264873 -4.14412 0.767659)
(0.0851167 -4.06066 0.683932)
(0.0192201 -4.01369 -0.103572)
(-0.0816611 -3.80609 -0.58404)
(-0.343711 -3.53962 -0.0562402)
(-0.762686 -3.03604 0.385261)
(-0.520514 -2.5167 0.377763)
(2.19571 -1.49844 0.233621)
(1.57181 -0.912647 0.037703)
(0.0877117 -0.36966 -0.551892)
(-0.0487143 0.555963 -1.08575)
(-0.0359833 1.43358 -1.55759)
(-0.00900999 1.99379 -1.86772)
(0.0262641 2.23572 -2.20851)
(0.0684418 1.968 -2.32735)
(0.0399284 0.930434 -1.26599)
(-1.1232 0.146841 0.506972)
(-1.25111 0.297882 0.548314)
(-0.776274 -0.318579 0.568351)
(0.0324934 -0.383155 1.11903)
(0.547366 -0.0248501 1.74179)
(0.989352 0.894198 3.03743)
(0.910089 3.48559 9.57876)
(0.512562 4.12578 12.4191)
(-0.130495 2.5764 9.49172)
(-0.0163866 1.44249 6.73917)
(-0.000607659 0.862726 5.05234)
(-1.20654e-05 0.55462 4.04723)
(-1.24345e-06 0.42235 3.57259)
(-0.000141702 -5.27916 -16.6729)
(-0.00196667 -3.50871 -1.19121)
(-0.000814187 -4.06679 1.83739)
(0.00327542 -1.64165 1.10877)
(-5.55089e-06 -0.945325 -1.72885)
(-0.941009 -2.17352 -3.90329)
(-1.70225 -4.27931 -2.77213)
(-1.48843 -4.12862 1.8106)
(-0.456505 -3.57796 3.93258)
(-0.0655828 -3.5877 4.90103)
(0.291307 -3.46542 4.59832)
(0.831981 -2.02304 4.27857)
(1.48704 1.95939 4.32163)
(2.7212 2.06381 3.90621)
(0.224547 -2.38206 2.73565)
(-0.375647 -3.50284 2.93464)
(-0.126794 -4.35632 2.18036)
(-0.0677674 -4.4835 1.91321)
(-0.0297072 -4.39806 1.8097)
(-0.00431238 -4.24413 1.70789)
(0.0182619 -4.03089 1.62227)
(0.0298595 -3.80746 1.54354)
(0.0183242 -3.68714 1.44806)
(-0.0405636 -3.64405 1.30709)
(-1.34791 -3.6323 0.962336)
(-5.81856 0.100578 -2.08132)
(-1.97071 3.91916 -2.64933)
(2.14959 2.15258 3.05417)
(2.98635 1.48271 2.91682)
(1.41482 1.3768 3.31617)
(-1.34089 0.573467 3.37916)
(-0.619699 -3.35855 -0.322716)
(-1.77676 -2.94354 0.163088)
(-2.09796 -2.64856 -0.0334867)
(0.497322 -2.70704 -0.0209139)
(1.9604 -2.02476 0.530001)
(1.01602 -1.56418 1.20675)
(0.154796 -0.330091 1.8619)
(-0.0985998 1.65072 1.60623)
(-0.778139 2.37032 0.997524)