/*--------------------------------*- C++ -*----------------------------------*\
| =========                 |                                                 |
| \\      /  F ield         | OpenFOAM: The Open Source CFD Toolbox           |
|  \\    /   O peration     | Version:  2.1.1                                 |
|   \\  /    A nd           | Web:      www.OpenFOAM.org                      |
|    \\/     M anipulation  |                                                 |
\*---------------------------------------------------------------------------*/
FoamFile
{
    version     2.0;
    format      ascii;
    class       Cloud<solidParticle>;
    location    "0.0015";
    object      positions;
}
// * * * * * * * * * * * * * * * * * * * * * * * * * * * * * * * * * * * * * //

43837
(
(0.000506282 0.00898521 0.00101621) 20041
(0.0278266 0.00592976 0.0017063) 6055
(0.0277376 0.00593262 0.00171366) 6055
(0.0276416 0.00593654 0.0017219) 6055
(0.0275422 0.0059417 0.00173115) 6055
(0.0274379 0.0059486 0.00174187) 6054
(0.0273285 0.00595752 0.00175435) 6054
(0.0272131 0.00596878 0.00176885) 6054
(0.0270943 0.0059823 0.00178498) 6054
(0.0269713 0.00599844 0.00180337) 6053
(0.0268427 0.00601711 0.00182361) 6053
(0.0267089 0.00603756 0.00184461) 13493
(0.0265675 0.00605928 0.00186534) 13493
(0.0264184 0.00608148 0.00188505) 13492
(0.0262638 0.00610328 0.00190276) 13492
(0.0261051 0.00612434 0.00191777) 13492
(0.0259404 0.00614463 0.00192978) 13491
(0.0284901 0.0059314 0.001654) 6056
(0.0284219 0.00592785 0.00165644) 6056
(0.0283506 0.00592467 0.00165857) 6056
(0.0282764 0.00592198 0.00166125) 6056
(0.028199 0.00591972 0.00166447) 6056
(0.0281175 0.00591798 0.00166848) 6056
(0.0280315 0.00591702 0.00167317) 6056
(0.0279411 0.00591693 0.00167828) 6055
(0.0278442 0.00591797 0.00168415) 6055
(0.027744 0.00592021 0.00169098) 6055
(0.0276375 0.0059239 0.00169924) 6055
(0.0275268 0.00592925 0.00170889) 6055
(0.0274102 0.00593668 0.00171985) 6054
(0.0272889 0.00594662 0.00173283) 6054
(0.0271627 0.00595931 0.00174817) 6054
(0.0270338 0.00597491 0.00176608) 6054
(0.0268986 0.005994 0.00178704) 6053
(0.0267587 0.00601566 0.00180978) 6053
(0.0290143 0.00599311 0.00163429) 6058
(0.0266111 0.00603966 0.00183368) 13493
(0.0289607 0.00598127 0.00163436) 6057
(0.0195306 0.00287517 0.00341716) 32689
(0.026457 0.00606406 0.00185572) 13492
(0.028904 0.00597101 0.00163472) 6057
(0.0193388 0.00286871 0.00341777) 32545
(0.026294 0.00608819 0.00187502) 13492
(0.0288445 0.00596159 0.00163482) 6057
(0.0191384 0.00286242 0.00341884) 32545
(0.0261252 0.00611122 0.0018907) 13492
(0.0287829 0.0059529 0.00163458) 6057
(0.0189192 0.00285543 0.00342075) 32401
(0.0259465 0.00613359 0.00190279) 13491
(0.0287187 0.00594496 0.00163488) 6057
(0.0186773 0.00284739 0.00342368) 32401
(0.0257526 0.00615571 0.00191124) 13491
(0.0286517 0.00593782 0.00163584) 6057
(0.018409 0.00283783 0.00342783) 32257
(0.0285815 0.00593151 0.00163736) 6057
(0.0181143 0.0028265 0.00343322) 32257
(0.0285082 0.00592572 0.0016385) 6057
(0.0177911 0.00281278 0.00343994) 32113
(0.0284312 0.00592065 0.00163966) 6056
(0.0174431 0.00279627 0.00344806) 31969
(0.0283502 0.00591635 0.00164148) 6056
(0.0170757 0.00277681 0.0034575) 31969
(0.0282641 0.0059126 0.00164392) 6056
(0.0167022 0.00275461 0.00346786) 31825
(0.0281727 0.00590941 0.00164711) 6056
(0.0280781 0.00590679 0.0016503) 6056
(0.027976 0.00590533 0.00165444) 6055
(0.0278682 0.00590555 0.00165987) 6055
(0.0212849 0.00291796 0.00342761) 33121
(0.0277544 0.00590731 0.0016666) 6055
(0.0211614 0.00291354 0.00342334) 33121
(0.0276339 0.0059105 0.00167411) 6055
(0.0210323 0.00290878 0.00341966) 33121
(0.0275068 0.00591608 0.00168363) 6055
(0.0208939 0.00290334 0.00341672) 32977
(0.0273728 0.00592475 0.0016955) 6054
(0.0293092 0.00615308 0.00160533) 6058
(0.02075 0.00289754 0.0034142) 32977
(0.0272328 0.00593654 0.0017097) 6054
(0.0292882 0.00612156 0.00161062) 6058
(0.0205972 0.00289121 0.0034122) 32977
(0.027087 0.00595196 0.00172683) 6054
(0.0292603 0.00609219 0.00161506) 6058
(0.0204372 0.00288457 0.00341066) 32833
(0.0269359 0.00597188 0.0017481) 6053
(0.0292252 0.00606604 0.00161899) 6058
(0.0202699 0.00287758 0.00340957) 32833
(0.0267793 0.00599588 0.00177306) 6053
(0.0291841 0.0060422 0.00162109) 6058
(0.0200949 0.00287053 0.00340886) 32833
(0.0266146 0.00602357 0.00180104) 6053
(0.0291375 0.00602129 0.00162176) 6058
(0.01991 0.00286337 0.00340858) 32689
(0.0264393 0.00605313 0.0018285) 13492
(0.0290852 0.00600326 0.00162194) 6058
(0.0197171 0.00285644 0.00340857) 32689
(0.0262529 0.00608209 0.00185139) 13492
(0.0290275 0.00598801 0.00162207) 6058
(0.0195151 0.00284975 0.00340889) 32689
(0.0260523 0.00610972 0.00186853) 13492
(0.0289655 0.00597467 0.00162187) 6057
(0.0192929 0.00284229 0.00341011) 32545
(0.0258311 0.00613642 0.00187998) 13491
(0.0289001 0.00596268 0.00162043) 6057
(0.0190461 0.00283366 0.00341244) 32545
(0.0255805 0.00616342 0.00188636) 13491
(0.0288306 0.00595208 0.00161964) 6057
(0.0187722 0.00282354 0.00341598) 32401
(0.0287574 0.00594249 0.00161957) 6057
(0.0184707 0.00281165 0.00342082) 32257
(0.0286805 0.00593379 0.00162031) 6057
(0.0181389 0.00279736 0.00342703) 32257
(0.0285993 0.00592556 0.0016206) 6057
(0.0182414 0.00447046 0.000814326) 13236
(0.0177832 0.00278033 0.00343472) 32113
(0.0285128 0.00591819 0.00162088) 6057
(0.0181928 0.00447933 0.000810971) 13236
(0.0174061 0.00275972 0.00344407) 31969
(0.0222921 0.00293243 0.00345333) 33409
(0.0284208 0.00591191 0.00162184) 6056
(0.0181419 0.00448794 0.000807498) 13236
(0.0170252 0.00273632 0.00345427) 31969
(0.022188 0.00292969 0.00344701) 33409
(0.0283235 0.00590664 0.00162369) 6056
(0.0180891 0.00449632 0.000803979) 13236
(0.0166619 0.00271107 0.00346456) 31825
(0.0220797 0.00292661 0.00344091) 33409
(0.0282201 0.00590166 0.00162527) 6056
(0.0180347 0.0045045 0.000800429) 13236
(0.0219663 0.00292311 0.00343505) 33265
(0.0281099 0.00589745 0.00162754) 6056
(0.0179786 0.00451246 0.000796831) 13235
(0.021847 0.00291914 0.00342948) 33265
(0.0279928 0.0058949 0.00163146) 6055
(0.0179209 0.0045202 0.000793194) 13235
(0.0217217 0.0029147 0.00342426) 33265
(0.0278665 0.00589434 0.00163662) 6055
(0.0295464 0.0062992 0.00160944) 6779
(0.0178618 0.00452775 0.000789515) 13235
(0.0215914 0.0029098 0.0034194) 33265
(0.0277339 0.00589559 0.00164258) 6055
(0.029513 0.00627916 0.00160171) 6779
(0.0178011 0.00453509 0.000785794) 13235
(0.021454 0.00290432 0.00341516) 33121
(0.0275921 0.00589951 0.00165102) 6055
(0.0294757 0.00626058 0.0015942) 6778
(0.0177383 0.00454224 0.000782014) 13235
(0.0213099 0.00289822 0.00341156) 33121
(0.0274417 0.00590694 0.00166216) 6054
(0.0294355 0.00624314 0.00158924) 6778
(0.017673 0.00454925 0.000778158) 13235
(0.0211602 0.00289159 0.00340835) 33121
(0.0272818 0.00591845 0.00167596) 6054
(0.0293919 0.00622655 0.00158573) 6778
(0.0176056 0.00455617 0.000774222) 13235
(0.0210019 0.00288429 0.00340563) 33121
(0.0271152 0.00593449 0.00169327) 6054
(0.0293493 0.00620744 0.00158413) 6778
(0.0175356 0.00456301 0.000770198) 13235
(0.0208389 0.00287671 0.00340324) 32977
(0.0269417 0.00595625 0.00171592) 6053
(0.0293318 0.00616911 0.00159227) 10018
(0.0206689 0.00286872 0.00340129) 32977
(0.0267592 0.0059839 0.00174387) 6053
(0.02931 0.00613057 0.00159933) 6058
(0.0204928 0.00286074 0.00339963) 32833
(0.0265666 0.00601682 0.0017766) 6053
(0.0292784 0.00609548 0.00160544) 6058
(0.0203084 0.00285284 0.00339825) 32833
(0.0263595 0.00605266 0.00180935) 13492
(0.0292381 0.00606364 0.00160911) 6058
(0.0194079 0.00505729 0.000372897) 7838
(0.0201157 0.00284519 0.00339708) 32833
(0.0261327 0.00608775 0.00183523) 13492
(0.0291887 0.00603611 0.00161089) 6058
(0.019342 0.00506427 0.000374993) 7838
(0.0199135 0.00283806 0.00339604) 32689
(0.0258805 0.00612056 0.00185162) 13491
(0.0291313 0.00601287 0.00161174) 6058
(0.0192726 0.00507094 0.000376771) 7838
(0.0196903 0.00283033 0.00339574) 32689
(0.0255859 0.00615308 0.00185973) 13491
(0.0290665 0.00599359 0.00161211) 6058
(0.0190399 0.00442863 0.000810369) 13238
(0.0192005 0.00507738 0.000378286) 7838
(0.0194423 0.00282169 0.0033964) 32545
(0.0233319 0.00294681 0.00349197) 33697
(0.0289956 0.0059767 0.00161082) 6057
(0.0189938 0.00443832 0.000807357) 13237
(0.0191248 0.0050836 0.000379383) 7838
(0.019165 0.00281145 0.00339813) 32545
(0.0232351 0.00294523 0.00348446) 33697
(0.028919 0.00596208 0.00160885) 6057
(0.0189452 0.00444763 0.000804356) 13237
(0.019046 0.00508964 0.000380229) 7838
(0.0188566 0.0027992 0.00340131) 32401
(0.0231361 0.00294352 0.00347708) 33697
(0.0288379 0.00594951 0.00160781) 6057
(0.0188941 0.00445662 0.000801346) 13237
(0.0189647 0.00509556 0.000380862) 7837
(0.0185144 0.00278405 0.00340613) 32401
(0.0230343 0.00294161 0.00346987) 33697
(0.0287519 0.00593815 0.00160765) 6057
(0.0188409 0.00446537 0.000798322) 13237
(0.0188808 0.00510139 0.0003813) 7837
(0.0181407 0.00276517 0.00341282) 32257
(0.022929 0.00293941 0.00346282) 33553
(0.0286602 0.00592737 0.00160685) 6057
(0.0187856 0.00447386 0.000795275) 13237
(0.0187941 0.00510716 0.000381541) 7837
(0.0177501 0.00274283 0.00342128) 32113
(0.0228199 0.00293694 0.00345592) 33553
(0.0285636 0.00591757 0.00160582) 6057
(0.0187284 0.00448211 0.000792201) 13237
(0.0187052 0.00511294 0.000381632) 7837
(0.0173549 0.0027168 0.00343105) 31969
(0.0227064 0.00293409 0.00344912) 33553
(0.0206209 0.00370223 0.00346842) 14501
(0.0284585 0.00590919 0.00160579) 6056
(0.0297331 0.00655504 0.00170346) 6779
(0.0186706 0.00449016 0.000789455) 13237
(0.0186152 0.00511877 0.00038193) 7837
(0.0169905 0.00269023 0.00344108) 31825
(0.0225881 0.00293084 0.00344268) 33553
(0.0227342 0.00646173 0.00135268) 6825
(0.0205961 0.00370219 0.0034684) 14501
(0.0205724 0.00379583 0.00367243) 14561
(0.0283478 0.00590229 0.00160684) 6056
(0.0297143 0.0065193 0.00168492) 6779
(0.0186113 0.00449814 0.000786637) 13237
(0.0185228 0.00512471 0.000382048) 7837
(0.016698 0.00266703 0.0034486) 31825
(0.0224657 0.00292717 0.00343629) 33409
(0.0225082 0.00647769 0.00134627) 6825
(0.0205712 0.00370211 0.00346838) 14501
(0.020548 0.00379577 0.0036724) 14561
(0.0282294 0.00589565 0.00160731) 6056
(0.0296922 0.00648583 0.00166536) 6779
(0.0185505 0.00450596 0.000783754) 13237
(0.0184284 0.00513072 0.000382018) 7836
(0.0223372 0.00292291 0.00343005) 33409
(0.0222613 0.00649696 0.00133986) 6824
(0.0205703 0.00636248 0.00290736) 13541
(0.0205464 0.00370199 0.00346838) 14501
(0.0205236 0.00379569 0.00367239) 14561
(0.0281034 0.0058902 0.00160887) 6056
(0.0296715 0.00645066 0.00165024) 6779
(0.0184884 0.00451367 0.000780792) 13236
(0.0183324 0.00513686 0.00038187) 7836
(0.02071 0.00498584 0.000339234) 7841
(0.0222052 0.00291816 0.00342395) 33409
(0.0219911 0.00652006 0.00133349) 6823
(0.0205466 0.00636232 0.00290749) 13541
(0.0205216 0.00370185 0.00346838) 14501
(0.0210423 0.00369588 0.0034704) 14502
(0.0204993 0.00379559 0.0036724) 14560
(0.0279682 0.00588682 0.0016123) 6055
(0.0296501 0.00641577 0.00163707) 6779
(0.018425 0.00452127 0.000777757) 13236
(0.0182345 0.00514312 0.000381587) 7836
(0.020681 0.00499732 0.000345751) 7841
(0.0220687 0.00291293 0.00341806) 33409
(0.0217017 0.00654725 0.00132747) 6823
(0.0205228 0.0063622 0.00290762) 13541
(0.0204968 0.00370167 0.00346838) 14500
(0.0210175 0.0036963 0.00347035) 14502
(0.020475 0.00379546 0.00367243) 14560
(0.020984 0.00379039 0.00367836) 14561
(0.0278228 0.00588579 0.00161671) 6055
(0.0296267 0.00638253 0.00162367) 6779
(0.0183604 0.00452878 0.000774636) 13236
(0.018135 0.00514955 0.000381201) 7836
(0.0206426 0.00500753 0.000351272) 7841
(0.0219251 0.00290697 0.00341277) 33265
(0.0214809 0.00655883 0.0013229) 6822
(0.020499 0.0063621 0.00290774) 13540
(0.0209901 0.00637216 0.00290381) 13541
(0.020472 0.00370146 0.00346838) 14500
(0.0209927 0.00369671 0.0034703) 14501
(0.0204508 0.0037953 0.00367248) 14560
(0.0209592 0.00379074 0.00367808) 14561
(0.027668 0.00588751 0.00162323) 6055
(0.0295995 0.00635158 0.00161308) 6779
(0.018294 0.00453623 0.000771418) 13236
(0.0180327 0.00515618 0.000380688) 7836
(0.0206015 0.00501718 0.000356432) 7841
(0.021777 0.00290044 0.00340799) 33265
(0.0213152 0.00656462 0.00132017) 6822
(0.0204752 0.00636204 0.00290785) 13540
(0.0209675 0.00637153 0.002904) 13541
(0.0204474 0.00370122 0.00346839) 14500
(0.0209679 0.00369709 0.00347024) 14501
(0.0204266 0.00379512 0.00367254) 14560
(0.0209344 0.00379106 0.00367781) 14561
(0.0275032 0.00589317 0.00163328) 6055
(0.0295677 0.00632279 0.00160467) 6779
(0.0182255 0.00454363 0.000768093) 13236
(0.0179284 0.00516307 0.000380092) 7835
(0.0205578 0.00502632 0.000361281) 7841
(0.0216214 0.00289305 0.00340377) 33265
(0.0211635 0.00656933 0.00131789) 6822
(0.0204513 0.00636202 0.00290796) 13540
(0.0209448 0.00637093 0.00290419) 13541
(0.0204227 0.00370094 0.0034684) 14500
(0.0209431 0.00369746 0.00347019) 14501
(0.0204025 0.00379491 0.00367263) 14560
(0.0209096 0.00379137 0.00367754) 14561
(0.0273274 0.00590385 0.00164679) 6054
(0.0295305 0.00629704 0.00159547) 6779
(0.0181553 0.00455104 0.000764655) 13236
(0.0205115 0.00503499 0.000365819) 7841
(0.0214631 0.00288534 0.00339984) 33121
(0.0210232 0.00657438 0.00131629) 6822
(0.0204274 0.00636202 0.00290806) 13540
(0.0209221 0.00637035 0.00290438) 13541
(0.0203981 0.00370064 0.00346842) 14500
(0.0209182 0.0036978 0.00347014) 14501
(0.0203784 0.00379468 0.00367272) 14560
(0.0208849 0.00379165 0.00367729) 14561
(0.0271405 0.00592006 0.00166427) 6054
(0.0294884 0.00627402 0.00158704) 6778
(0.0180831 0.00455844 0.000761096) 13236
(0.020462 0.00504319 0.000370022) 7840
(0.0212981 0.00287696 0.00339635) 33121
(0.0209079 0.00658004 0.00131636) 6821
(0.0204035 0.00636206 0.00290814) 13540
(0.0208992 0.00636979 0.00290456) 13541
(0.0203735 0.0037003 0.00346844) 14500
(0.0208934 0.00369812 0.00347009) 14501
(0.0203544 0.00379442 0.00367284) 14560
(0.0208601 0.00379192 0.00367704) 14561
(0.0269438 0.00594326 0.0016875) 6053
(0.029442 0.00625293 0.00158141) 6778
(0.018009 0.00456584 0.000757413) 13236
(0.0204092 0.00505092 0.000373877) 7840
(0.0211275 0.00286821 0.00339325) 33121
(0.0208058 0.00658599 0.00131724) 6821
(0.0203795 0.00636213 0.00290822) 13540
(0.0208763 0.00636925 0.00290474) 13541
(0.0202566 0.00422781 0.0018924) 14140
(0.020349 0.00369994 0.00346846) 14500
(0.0208685 0.00369842 0.00347004) 14501
(0.0213848 0.00368617 0.00347209) 14502
(0.0203304 0.00379413 0.00367297) 14560
(0.0208354 0.00379216 0.0036768) 14561
(0.0203834 0.0063681 0.00313565) 15280
(0.0267352 0.00597427 0.0017181) 6053
(0.0293914 0.00623313 0.00157751) 6778
(0.0179329 0.00457323 0.000753604) 13235
(0.0203528 0.00505819 0.000377354) 7840
(0.02095 0.00285909 0.00339059) 32977
(0.024468 0.00296314 0.00353159) 33986
(0.0207025 0.00659196 0.00131786) 6821
(0.0203555 0.00636223 0.00290829) 13540
(0.0208533 0.00636873 0.00290492) 13541
(0.0202337 0.00422748 0.00189238) 14140
(0.0203245 0.00369954 0.00346849) 14500
(0.0208436 0.00369869 0.00346999) 14501
(0.0213603 0.00368676 0.00347203) 14502
(0.0203064 0.00379381 0.00367311) 14560
(0.0208107 0.00379239 0.00367657) 14561
(0.0201058 0.00500968 0.00437692) 14860
(0.0203594 0.00636829 0.00313582) 15280
(0.0208603 0.00637247 0.00313362) 15281
(0.0265137 0.006012 0.00175484) 6053
(0.0293478 0.00620598 0.00157799) 6778
(0.0178547 0.00458062 0.000749693) 13235
(0.0198715 0.00440101 0.000806212) 13239
(0.0202923 0.00506505 0.000380449) 7840
(0.0207653 0.00285021 0.00338817) 32977
(0.0243721 0.00296177 0.00352419) 33986
(0.0205979 0.00659789 0.00131823) 6821
(0.0203315 0.00636237 0.00290835) 13540
(0.0208303 0.00636823 0.00290509) 13541
(0.0212969 0.00638446 0.00290074) 13542
(0.0202109 0.00422713 0.00189234) 14140
(0.0203 0.00369911 0.00346852) 14500
(0.0208188 0.00369893 0.00346994) 14501
(0.0213359 0.00368734 0.00347196) 14502
(0.0202826 0.00379347 0.00367327) 14560
(0.0207861 0.00379259 0.00367635) 14561
(0.0212986 0.00378258 0.00368518) 14562
(0.0200823 0.0050095 0.00437749) 14860
(0.0205771 0.00501303 0.00437365) 14861
(0.0203354 0.0063685 0.00313599) 15280
(0.0208369 0.00637205 0.00313368) 15281
(0.0262722 0.00605365 0.00179162) 13492
(0.0293291 0.00615954 0.00158766) 10018
(0.0177743 0.00458801 0.000745682) 13235
(0.0198294 0.00441182 0.000803958) 13239
(0.0202277 0.0050715 0.000383177) 7840
(0.0205756 0.00284221 0.00338573) 32977
(0.0242732 0.00296036 0.00351695) 33986
(0.0204935 0.00660352 0.00131835) 6820
(0.0203075 0.00636253 0.0029084) 13540
(0.0208071 0.00636776 0.00290526) 13541
(0.0212756 0.00638366 0.00290091) 13542
(0.0201881 0.00422676 0.00189229) 14140
(0.0206582 0.00422749 0.00188744) 14141
(0.0202756 0.00369865 0.00346856) 14500
(0.0207939 0.00369915 0.00346989) 14501
(0.0213114 0.00368792 0.00347188) 14502
(0.0202587 0.0037931 0.00367345) 14560
(0.0207614 0.00379276 0.00367615) 14561
(0.0212739 0.00378306 0.00368481) 14562
(0.0200589 0.00500931 0.00437807) 14860
(0.020553 0.00501283 0.00437364) 14861
(0.0203114 0.00636875 0.00313617) 15280
(0.0208135 0.00637166 0.00313374) 15281
(0.0260031 0.00609399 0.00181864) 13492
(0.0292997 0.00611582 0.00159578) 6058
(0.0176913 0.00459537 0.000741533) 13235
(0.0197866 0.00442225 0.000801701) 13239
(0.0201593 0.00507764 0.000385556) 7840
(0.020375 0.00283476 0.00338336) 32833
(0.0241719 0.00295886 0.00350987) 33986
(0.0203884 0.006609 0.00131823) 6820
(0.0202834 0.00636273 0.00290844) 13540
(0.0207839 0.00636731 0.00290543) 13541
(0.0212542 0.00638287 0.00290109) 13542
(0.0201653 0.00422637 0.00189222) 14140
(0.0206351 0.00422753 0.00188775) 14141
(0.0202512 0.00369816 0.0034686) 14500
(0.0207689 0.00369934 0.00346984) 14501
(0.021287 0.00368848 0.00347181) 14502
(0.0202349 0.00379271 0.00367364) 14560
(0.0207368 0.00379292 0.00367595) 14561
(0.0212492 0.00378354 0.00368445) 14562
(0.0200355 0.00500913 0.00437867) 14860
(0.0205289 0.00501263 0.00437367) 14861
(0.0202873 0.00636902 0.00313635) 15280
(0.02079 0.00637129 0.0031338) 15281
(0.0256871 0.00613222 0.00183279) 13491
(0.0292579 0.00607674 0.00160128) 6058
(0.0197414 0.00443228 0.000799461) 13239
(0.0200866 0.00508347 0.000387582) 7840
(0.020153 0.00282688 0.00338153) 32833
(0.0240656 0.00295714 0.00350301) 33986
(0.0202825 0.00661434 0.00131785) 6820
(0.0240735 0.00644752 0.0013621) 6828
(0.0202593 0.00636296 0.00290846) 13540
(0.0207606 0.00636688 0.00290559) 13541
(0.0212327 0.00638209 0.00290126) 13542
(0.0201425 0.00422596 0.00189213) 14140
(0.020612 0.00422756 0.00188805) 14141
(0.0202269 0.00369764 0.00346864) 14500
(0.020744 0.0036995 0.0034698) 14501
(0.0212624 0.00368903 0.00347174) 14502
(0.0202112 0.0037923 0.00367385) 14560
(0.0207122 0.00379305 0.00367577) 14561
(0.0212245 0.003784 0.00368409) 14562
(0.0200121 0.00500895 0.00437929) 14860
(0.0205049 0.00501243 0.00437373) 14861
(0.0202633 0.00636932 0.00313653) 15280
(0.0207664 0.00637095 0.00313387) 15281
(0.0253014 0.00617162 0.00183728) 13490
(0.0292049 0.00604339 0.00160346) 6058
(0.0196933 0.00444191 0.000797233) 13239
(0.0200099 0.00508905 0.000389287) 7840
(0.0199029 0.00281788 0.00338063) 32689
(0.0239576 0.0029554 0.0034963) 33841
(0.0201753 0.00661985 0.00131716) 6820
(0.023958 0.00644992 0.00135895) 6827
(0.0202352 0.00636321 0.00290848) 13540
(0.0207372 0.00636649 0.00290575) 13541
(0.021211 0.00638132 0.00290144) 13542
(0.0201198 0.00422554 0.00189203) 14140
(0.0205889 0.00422757 0.00188833) 14141
(0.0202026 0.00369709 0.0034687) 14500
(0.0207191 0.00369962 0.00346976) 14501
(0.0212379 0.00368957 0.00347167) 14502
(0.0201875 0.00379185 0.00367407) 14560
(0.0206877 0.00379315 0.00367561) 14561
(0.0211998 0.00378445 0.00368374) 14562
(0.0199887 0.00500877 0.00437992) 14859
(0.0204809 0.00501222 0.00437382) 14860
(0.0202392 0.00636964 0.00313672) 15280
(0.0207428 0.00637064 0.00313395) 15281
(0.02914 0.00601576 0.00160432) 6058
(0.0196423 0.00445115 0.000795) 13239
(0.0199295 0.00509442 0.000390697) 7839
(0.0196213 0.0028074 0.00338088) 32689
(0.0238477 0.00295357 0.00348967) 33841
(0.0200691 0.00662555 0.00131628) 6820
(0.0238228 0.00645427 0.00135479) 6827
(0.020211 0.0063635 0.00290849) 13540
(0.0207137 0.00636612 0.00290591) 13541
(0.0211893 0.00638056 0.00290162) 13542
(0.0200971 0.0042251 0.00189192) 14140
(0.0205658 0.00422756 0.0018886) 14141
(0.0201783 0.00369651 0.00346875) 14500
(0.0206941 0.00369971 0.00346972) 14501
(0.0212133 0.0036901 0.0034716) 14502
(0.0201638 0.00379139 0.00367431) 14560
(0.0206631 0.00379324 0.00367546) 14561
(0.021175 0.0037849 0.00368339) 14562
(0.0199654 0.00500859 0.00438056) 14859
(0.0204569 0.00501201 0.00437394) 14860
(0.0202151 0.00636999 0.00313692) 15280
(0.0207191 0.00637036 0.00313404) 15281
(0.0290661 0.00599335 0.00160414) 6058
(0.0195884 0.00446006 0.00079275) 13239
(0.0198452 0.00509963 0.000391815) 7839
(0.0193022 0.00279438 0.00338276) 32545
(0.0237336 0.00295155 0.00348321) 33841
(0.019963 0.0066313 0.00131509) 6819
(0.0236679 0.00646073 0.00134976) 6827
(0.0201869 0.00636382 0.00290848) 13540
(0.0206901 0.00636577 0.00290607) 13541
(0.0211675 0.00637981 0.0029018) 13542
(0.020501 0.00442686 0.00177613) 14081
(0.0200745 0.00422464 0.00189179) 14140
(0.0205427 0.00422752 0.00188885) 14141
(0.0201541 0.0036959 0.00346882) 14500
(0.0206691 0.00369977 0.00346969) 14501
(0.0211887 0.00369061 0.00347154) 14502
(0.0201402 0.0037909 0.00367456) 14560
(0.0206386 0.00379329 0.00367533) 14561
(0.0211502 0.00378533 0.00368305) 14562
(0.019942 0.00500842 0.00438121) 14859
(0.020433 0.0050118 0.00437409) 14860
(0.020191 0.00637037 0.00313711) 15280
(0.0206953 0.00637011 0.00313413) 15281
(0.0289856 0.00597425 0.00160191) 6057
(0.0195321 0.00446868 0.000790474) 13239
(0.0197574 0.00510475 0.000392679) 7839
(0.0189471 0.00277824 0.0033864) 32401
(0.023617 0.00294939 0.00347685) 33841
(0.0198552 0.00663716 0.00131351) 6819
(0.0234937 0.00646955 0.00134419) 6826
(0.0201627 0.00636417 0.00290847) 13540
(0.0206665 0.00636546 0.00290623) 13541
(0.0211456 0.00637908 0.00290198) 13542
(0.0200159 0.00442454 0.00177741) 14080
(0.0204781 0.00442685 0.00177632) 14080
(0.0200518 0.00422417 0.00189165) 14140
(0.0205195 0.00422747 0.00188908) 14141
(0.0201299 0.00369527 0.00346888) 14500
(0.0206441 0.0036998 0.00346966) 14501
(0.021164 0.0036911 0.00347147) 14502
(0.0201166 0.0037904 0.00367483) 14560
(0.0206142 0.00379332 0.00367522) 14561
(0.0211254 0.00378575 0.00368272) 14562
(0.0199187 0.00500825 0.00438187) 14859
(0.020409 0.00501159 0.00437427) 14860
(0.0201669 0.00637076 0.00313732) 15280
(0.0206714 0.00636988 0.00313423) 15281
(0.021158 0.00638183 0.00313371) 15282
(0.0288972 0.00595778 0.00159922) 6057
(0.0297349 0.00682542 0.00183733) 2459
(0.0194733 0.00447704 0.000788167) 13238
(0.0196665 0.00510982 0.000393321) 7839
(0.0215633 0.00493452 0.00030653) 4183
(0.0185552 0.00275764 0.0033921) 32401
(0.0234994 0.00294714 0.00347056) 33697
(0.0197447 0.00664294 0.0013114) 6819
(0.0232994 0.00648118 0.00133827) 6826
(0.0201385 0.00636454 0.00290844) 13540
(0.0206428 0.00636517 0.00290638) 13541
(0.0211236 0.00637835 0.00290216) 13542
(0.0199932 0.0044243 0.00177707) 14079
(0.0204551 0.00442684 0.00177649) 14080
(0.0200292 0.00422369 0.00189149) 14140
(0.0204964 0.0042274 0.0018893) 14140
(0.0209624 0.00422241 0.0018792) 14141
(0.0201057 0.00369462 0.00346895) 14500
(0.0206192 0.0036998 0.00346963) 14501
(0.0211393 0.00369158 0.00347141) 14502
(0.0200931 0.00378987 0.00367511) 14560
(0.0205898 0.00379333 0.00367513) 14561
(0.0211006 0.00378617 0.0036824) 14562
(0.0198954 0.00500809 0.00438254) 14859
(0.0203851 0.00501138 0.00437449) 14860
(0.0201428 0.00637118 0.00313753) 15280
(0.0206475 0.00636969 0.00313434) 15281
(0.0211357 0.00638113 0.0031337) 15282
(0.028803 0.0059434 0.00159751) 6057
(0.0297261 0.00680747 0.00180493) 2459
(0.0194122 0.00448515 0.000785815) 13238
(0.0195729 0.00511486 0.000393761) 7839
(0.0215744 0.0049516 0.00031679) 4183
(0.018143 0.0027326 0.00340015) 32257
(0.0233771 0.00294458 0.0034644) 33697
(0.0196297 0.00664865 0.00130859) 6819
(0.0230847 0.00649586 0.00133213) 6826
(0.0201142 0.00636495 0.0029084) 13540
(0.020619 0.00636492 0.00290652) 13541
(0.0211015 0.00637764 0.00290235) 13542
(0.0199706 0.00442404 0.00177672) 14079
(0.0204322 0.00442681 0.00177663) 14080
(0.0200067 0.00422318 0.00189131) 14140
(0.0204733 0.00422731 0.0018895) 14140
(0.0209399 0.00422266 0.00187975) 14141
(0.0200816 0.00369394 0.00346902) 14500
(0.0205942 0.00369976 0.00346962) 14501
(0.0211145 0.00369205 0.00347136) 14502
(0.0200696 0.00378932 0.00367541) 14560
(0.0205654 0.00379332 0.00367506) 14561
(0.0210758 0.00378656 0.00368209) 14562
(0.0198721 0.00500792 0.00438321) 14859
(0.0203613 0.00501116 0.00437473) 14860
(0.0201187 0.00637163 0.00313774) 15280
(0.0206235 0.00636953 0.00313446) 15281
(0.0211133 0.00638044 0.00313369) 15282
(0.0287037 0.00593034 0.00159604) 6057
(0.02971 0.00678595 0.00177374) 2459
(0.0193491 0.00449307 0.000783418) 13238
(0.0194765 0.00511993 0.000394019) 7838
(0.0215794 0.00496762 0.000326437) 4123
(0.0177314 0.00270387 0.00340961) 32113
(0.0232521 0.00294175 0.00345824) 33697
(0.0195104 0.00665411 0.00130501) 6819
(0.022848 0.00651426 0.00132595) 6825
(0.02009 0.00636538 0.00290836) 13540
(0.0205952 0.00636469 0.00290667) 13541
(0.0210793 0.00637695 0.00290253) 13542
(0.0199479 0.00442378 0.00177634) 14079
(0.0204092 0.00442676 0.00177675) 14080
(0.0199841 0.00422267 0.00189113) 14139
(0.0204503 0.0042272 0.00188967) 14140
(0.0209173 0.0042229 0.00188027) 14141
(0.0200576 0.00369323 0.00346909) 14500
(0.0205693 0.00369969 0.00346961) 14501
(0.0210897 0.0036925 0.00347131) 14502
(0.0200462 0.00378876 0.00367571) 14560
(0.020541 0.00379327 0.00367501) 14561
(0.021051 0.00378695 0.00368178) 14562
(0.0198488 0.00500776 0.00438389) 14859
(0.0203375 0.00501095 0.004375) 14860
(0.0200946 0.00637209 0.00313796) 15280
(0.0205995 0.0063694 0.00313458) 15281
(0.0210907 0.00637977 0.00313369) 15282
(0.028597 0.00591787 0.0015932) 6057
(0.0297115 0.00674686 0.00175385) 2519
(0.0192843 0.00450082 0.000780975) 13238
(0.0193782 0.00512507 0.000394145) 7838
(0.0215784 0.00498264 0.000335494) 4123
(0.017363 0.00267548 0.00341884) 31969
(0.0231229 0.00293855 0.00345211) 33697
(0.0193863 0.00665911 0.00130055) 6818
(0.0225856 0.00653692 0.00131976) 6825
(0.0200658 0.00636584 0.00290831) 13540
(0.0205713 0.0063645 0.00290681) 13541
(0.021057 0.00637627 0.00290272) 13542
(0.0197258 0.00578345 0.00191225) 13779
(0.0199252 0.00442351 0.00177595) 14079
(0.0203863 0.00442671 0.00177684) 14080
(0.0199616 0.00422214 0.00189092) 14139
(0.0204272 0.00422707 0.00188983) 14140
(0.0208946 0.00422313 0.00188078) 14141
(0.0200335 0.00369251 0.00346916) 14500
(0.0205444 0.00369959 0.0034696) 14501
(0.021065 0.00369293 0.00347126) 14502
(0.0200227 0.00378818 0.00367603) 14560
(0.0205167 0.00379321 0.00367498) 14561
(0.0210262 0.00378732 0.00368149) 14562
(0.0198256 0.0050076 0.00438457) 14859
(0.0203137 0.00501074 0.0043753) 14860
(0.0200706 0.00637258 0.00313818) 15280
(0.0205755 0.00636931 0.00313471) 15281
(0.0210681 0.00637912 0.00313369) 15282
(0.0284826 0.0059071 0.00159109) 6056
(0.0297313 0.00669564 0.0017422) 2519
(0.0192178 0.00450844 0.000778464) 13238
(0.0192778 0.00513029 0.00039413) 7838
(0.0215655 0.00499599 0.000343489) 7843
(0.0170817 0.00265225 0.00342489) 31969
(0.0229884 0.00293488 0.00344605) 33553
(0.0192564 0.0066633 0.00129504) 6818
(0.0223521 0.00655147 0.00131464) 6824
(0.0200415 0.00636633 0.00290825) 13540
(0.0205473 0.00636434 0.00290695) 13541
(0.0210346 0.0063756 0.00290291) 13542
(0.0197031 0.00578387 0.00191189) 13779
(0.0199026 0.00442323 0.00177553) 14079
(0.0203633 0.00442664 0.00177691) 14080
(0.0199391 0.00422159 0.0018907) 14139
(0.0204041 0.00422692 0.00188997) 14140
(0.0208719 0.00422334 0.00188128) 14141
(0.0200095 0.00369176 0.00346923) 14500
(0.0205196 0.00369946 0.0034696) 14501
(0.0210401 0.00369335 0.00347121) 14502
(0.0199994 0.00378758 0.00367636) 14559
(0.0204924 0.00379312 0.00367498) 14560
(0.0210014 0.00378768 0.00368121) 14562
(0.0198023 0.00500745 0.00438525) 14859
(0.0202899 0.00501053 0.00437562) 14860
(0.0200465 0.00637308 0.0031384) 15280
(0.0205514 0.00636924 0.00313485) 15281
(0.0210454 0.0063785 0.00313369) 15282
(0.0283598 0.00589821 0.00159059) 6056
(0.0297406 0.00664844 0.0017276) 2519
(0.01915 0.00451594 0.000775881) 13238
(0.0191749 0.00513561 0.000393943) 7838
(0.021544 0.00500809 0.00035059) 7843
(0.022853 0.00293088 0.00343995) 33553
(0.0191193 0.00666665 0.00128832) 6818
(0.022161 0.00655913 0.00131107) 6824
(0.0200172 0.00636685 0.00290818) 13540
(0.0205233 0.00636421 0.00290708) 13541
(0.0210121 0.00637496 0.0029031) 13542
(0.0196805 0.00578429 0.00191153) 13779
(0.0198799 0.00442294 0.0017751) 14079
(0.0203404 0.00442656 0.00177695) 14080
(0.0208014 0.0044251 0.0017679) 14081
(0.0199166 0.00422104 0.00189047) 14139
(0.0203811 0.00422675 0.00189009) 14140
(0.0208492 0.00422354 0.00188176) 14141
(0.0199856 0.003691 0.0034693) 14499
(0.0204948 0.0036993 0.0034696) 14500
(0.0210153 0.00369375 0.00347117) 14502
(0.019976 0.00378696 0.00367669) 14559
(0.0204682 0.003793 0.00367499) 14560
(0.0209766 0.00378802 0.00368093) 14561
(0.019779 0.00500729 0.00438594) 14859
(0.0202662 0.00501033 0.00437597) 14860
(0.0200224 0.00637361 0.00313863) 15280
(0.0205273 0.00636921 0.00313499) 15281
(0.0210226 0.00637789 0.00313371) 15282
(0.0282282 0.00588964 0.00158929) 6056
(0.0297387 0.0066048 0.00170907) 2519
(0.0190807 0.00452331 0.000773208) 13238
(0.01907 0.0051411 0.000393634) 7838
(0.0215177 0.00501943 0.000357279) 7843
(0.0227131 0.00292633 0.0034339) 33553
(0.0220037 0.00656474 0.00130932) 6824
(0.0199929 0.00636739 0.0029081) 13539
(0.0204993 0.00636411 0.00290721) 13540
(0.0209895 0.00637433 0.00290329) 13541
(0.0196579 0.00578471 0.00191118) 13779
(0.0198573 0.00442264 0.00177465) 14079
(0.0203175 0.00442647 0.00177696) 14080
(0.0207789 0.00442526 0.00176841) 14081
(0.0198941 0.00422047 0.00189022) 14139
(0.0203581 0.00422655 0.00189019) 14140
(0.0208265 0.00422373 0.00188223) 14141
(0.0199616 0.00369021 0.00346937) 14499
(0.02047 0.00369911 0.00346961) 14500
(0.0209904 0.00369413 0.00347112) 14501