/*--------------------------------*- C++ -*----------------------------------*\
| =========                 |                                                 |
| \\      /  F ield         | OpenFOAM: The Open Source CFD Toolbox           |
|  \\    /   O peration     | Version:  2.1.1                                 |
|   \\  /    A nd           | Web:      www.OpenFOAM.org                      |
|    \\/     M anipulation  |                                                 |
\*---------------------------------------------------------------------------*/
FoamFile
{
    version     2.0;
    format      ascii;
    class       scalarField;
    location    "0.0015";
    object      T;
}
// * * * * * * * * * * * * * * * * * * * * * * * * * * * * * * * * * * * * * //


43837
(
652.193
680.693
668.621
656.502
646.004
636.261
625.711
614.653
604.553
595.971
588.677
583.673
579.826
576.862
574.913
574.229
575.143
772.715
760.198
746.709
732.394
717.228
703.897
691.641
679.763
667.007
652.561
638.082
625.676
613.716
600.645
587.569
575.629
564.577
554.863
893.427
547.865
878.229
873.036
542.704
861.988
867.542
538.439
844.977
860.323
534.562
827.454
853.415
532.161
810.471
841.652
532.177
794.822
830.017
779.327
813.432
764.022
794.094
3.91153e+180
779.292
4.72822e+222
769.368
715.008
760.661
698.462
683.509
669.405
655.148
908.188
639.019
903.749
622.296
899.061
608.014
3.91153e+180
594.163
982.348
889.489
579.346
975.535
884.058
564.748
966.58
878.943
551.663
955.259
873.03
538.697
942.038
866.817
527.644
927.116
861.291
519.713
910.433
854.653
514.45
891.963
847.675
3.91153e+180
872.458
839.869
506.106
851.9
829.467
505.934
3.91153e+180
817.968
808.752
801.686
788.877
777.018
769.878
909.377
753.46
1.19354e+190
912.005
728.207
930.13
731.628
2.06697e+161
706.171
926.259
711.875
916.487
682.579
2.06685e+161
692.307
2.06697e+161
917.827
2.06697e+161
919.988
913.172
657.822
921.286
908.207
641.381
1108.69
922.243
902.966
623.891
1088.48
922.857
6.75387e+87
606.672
2.06697e+161
923.006
892.949
590.72
1045.02
922.627
887.537
574.041
1022.13
6.75387e+87
9.09155e+223
2.06697e+161
999.505
920.284
877.021
542.599
990.697
871.35
527.187
982.941
866.175
513.875
972.179
861.006
503.887
958.503
908.703
855.11
497.784
941.648
6.75387e+87
850.309
493.057
922.157
912.403
844.267
491.798
4.2695e+257
870.662
913.974
838.744
967.719
876.36
2.06697e+161
915.345
9.09155e+223
4.2695e+257
851.192
874.235
916.51
822.767
958.446
825.056
875.772
917.425
807.897
953.519
799.476
877.105
918.201
785.762
948.678
4.2695e+257
878.23
9.09155e+223
9.09155e+223
943.495
752.765
879.124
919
734.03
938.016
697.695
730.364
1233.31
879.827
919.002
706.699
932.397
845.665
697.387
792.581
707.582
9.09155e+223
880.278
918.732
678.808
926.766
846.342
697.029
791.094
685.07
1209.94
880.434
918.141
920.688
847.845
727.673
696.64
789.543
664.766
1199.06
880.3
917.424
897.242
914.234
849.996
726.36
696.203
659.791
787.939
645.97
2.06697e+161
879.72
9.09155e+223
899.304
907.561
852.978
725.076
695.719
659.93
786.282
757.769
626.914
1167.97
9.09155e+223
915.202
901.128
901.34
851.776
723.827
713.42
695.224
660.066
784.587
757.682
607.841
1148.74
876.988
9.09155e+223
902.845
894.69
849.596
722.6
711.869
694.694
660.197
782.854
757.522
2.06697e+161
1127.65
9.09155e+223
911.16
904.497
888.04
846.97
721.403
710.33
694.137
660.313
781.088
757.253
2.06697e+161
1103.99
9.09155e+223
9.09155e+223
881.843
844.655
720.235
708.819
693.567
660.402
779.299
756.876
2.06697e+161
1078.61
868.131
907.386
875.329
843.023
719.1
707.336
692.967
660.473
777.488
756.408
536.629
1052.75
863.888
908.544
868.723
841.534
717.993
705.863
861.782
692.358
660.526
623.336
775.656
755.849
702.814
519.317
9.09155e+223
859.034
909.478
863.106
1049.34
840.06
716.924
704.427
858.94
691.698
660.575
623.474
773.805
755.215
728.844
701.577
693.016
504.269
9.09155e+223
853.495
869.889
910.16
856.959
1040.9
838.691
715.911
703.019
702.861
856.07
690.935
660.6
623.638
771.932
754.506
711.753
727.448
727.356
700.366
691.286
492.809
991.655
847.378
871.122
910.556
850.353
1032.66
837.26
714.946
701.637
700.811
853.158
868.996
690.065
660.536
623.783
770.026
753.709
712.445
726.036
726.265
699.193
689.632
486.212
981.21
9.09155e+223
872.186
910.618
844.967
1024.73
835.664
714.013
700.273
698.82
850.221
866.829
689.147
660.422
623.887
768.082
752.854
713.079
724.611
725.176
698.052
688.051
483.282
9.09155e+223
873.175
910.314
838.136
1017.24
834.051
893.218
713.126
698.944
696.89
847.275
864.646
688.197
660.295
623.976
766.122
751.938
713.658
723.17
724.085
696.934
686.548
487.726
948.047
874.089
909.638
833.389
1010.08
832.763
893.377
712.276
697.642
695.039
844.309
862.433
687.196
660.132
624.094
764.146
750.96
714.182
721.718
722.991
695.839
685.117
925.141
9.09155e+223
908.578
828.15
1003.03
831.726
893.302
711.462
696.368
693.229
841.316
860.207
686.134
659.943
624.233
762.147
749.942
714.682
720.262
721.875
694.773
683.756
9.09155e+223
875.549
907.139
825.302
996.002
830.84
892.999
710.671
695.124
691.496
850.321
838.299
857.958
685.095
659.726
624.387
760.113
748.872
715.137
718.808
720.74
693.734
682.454
871.176
9.09155e+223
1.49258e+195
821.051
988.941
830.159
892.701
709.896
693.907
689.812
824.824
847.99
835.255
855.685
684.035
659.554
624.614
758.03
747.749
715.535
717.362
719.587
692.722
681.212
689.571
841.432
1299.77
876.843
902.954
9.09155e+223
3.94662e+180
9.09155e+223
829.483
892.719
709.141
692.724
688.19
822.449
845.679
832.178
853.39
865.193
682.852
659.397
624.893
755.919
746.565
715.856
715.934
718.414
691.735
680.024
686.906
811.006
1278.85
9.09155e+223
9.09155e+223
894.544
795.972
974.988
828.738
892.853
708.376
691.574
686.61
820.076
843.382
829.052
851.064
863.137
681.514
659.182
625.164
753.785
745.314
716.095
714.53
717.22
690.76
678.862
684.332
783.028
1254.77
9.09155e+223
897.126
897.123
781.411
967.846
828.012
894.338
707.593
690.449
685.067
817.694
841.111
825.887
848.717
861.097
679.922
658.932
625.406
751.624
743.998
716.258
713.157
716.008
689.777
677.723
681.854
756.479
1245.89
876.873
893.682
899.534
765.779
960.537
827.436
895.878
706.791
689.351
683.553
618.831
815.312
838.841
822.684
846.347
859.076
678.206
658.635
625.633
749.436
742.619
716.346
711.823
714.775
688.788
676.602
679.454
730.896
1253.01
876.254
889.87
902.122
745.631
953.252
826.969
896.054
705.988
688.278
682.075
616.948
812.926
836.56
819.446
843.949
857.062
676.512
658.312
625.831
747.207
741.184
716.361
710.534
713.518
687.809
675.484
677.127
705.152
1254.47
9.09155e+223
878.242
904.739
945.764
826.826
893.347
705.166
687.222
680.614
615.176
810.536
834.29
861.389
816.181
841.524
855.056
674.843
657.953
626.019
744.958
739.694
716.308
709.29
712.239
686.84
674.366
674.887
679.938
9.09155e+223
873.992
880.893
907.164
937.889
890.568
704.343
686.185
679.188
613.474
808.145
832.058
858.683
812.889
839.071
853.061
673.216
657.568
626.201
742.713
738.161
716.185
708.104
710.941
685.864
673.25
672.719
657.338
9.09155e+223
9.09155e+223
875.672
909.327
929.755
887.637
703.493
685.17
677.773
611.841
805.76
829.88
856.049
809.572
836.59
851.06
671.654
657.153
626.39
740.467
736.593
716.001
706.986
709.636
684.882
672.137
670.615
636.219
9.09155e+223
858.557
870.505
870.26
911.216
921.917
884.175
702.626
684.18
676.38
610.276
803.376
827.613
853.457
806.231
834.079
849.051
670.189
656.701
626.552
738.19
734.994
715.757
705.936
708.327
683.9
671.026
668.586
614.956
1211.93
853.836
867.957
864.47
912.981
913.597
880.786
701.749
683.217
675.004
608.786
800.941
825.331
850.926
802.862
831.53
847.048
668.787
656.22
626.674
735.913
733.368
715.43
704.957
707.017
669.922
666.64
594.275
1196.87
847.687
864.708
858
914.699
905.054
1166.9
877.922
700.876
682.281
673.644
607.355
823.04
848.448
799.474
828.948
845.043
667.446
655.688
626.782
733.632
731.72
715.016
704.062
705.708
668.816
664.777
574.465
1177.97
841.239
860.704
850.723
916.284
896.903
1159.44
875.134
699.998
681.37
672.304
605.986
820.744
845.99
796.063
826.333
843.025
666.165
655.132
626.862
731.337
730.053
714.53
703.254
704.395
667.704
662.991
9.09155e+223
1155.58
834.017
855.92
842.759
917.65
888.127
1151.16
871.953
699.081
680.489
671
604.676
818.453
843.564
792.627
823.686
840.995
664.955
654.545
626.927
729.095
728.371
713.977
702.527
703.077
666.598
661.291
535.698
1130.79
824.882
9.09155e+223
897.75
834.33
918.806
879.349
1142.14
868.607
930.959
698.171
679.648
669.721
603.423
816.225
841.178
789.18
821.01
838.971
663.807
653.875
626.958
726.898
726.672
713.351
701.885
701.756
665.504
659.675
517.355
1103.36
815.438
843.907
898.419
826.209
919.652
871.582
1132.42
865.02
934.133
697.288
678.849
668.46
602.22
814.048
838.823
785.742
818.299
836.955
662.646
653.076
626.915
724.777
724.949
712.654
701.317
700.431
664.442
658.132
499.728
1074.26
805.374
836.484
899.07
819.482
920.181
863.592
1122.07
861.271
936.817
696.37
678.086
667.208
811.835
836.516
782.302
815.569
834.925
661.612
652.21
626.824
722.736
723.198
711.906
700.818
699.098
663.402
656.671
2.06697e+161
1043.91
795.916
744.974
828.209
899.726
812.391
920.321
855.441
1111.32
857.466
939.257
695.442
677.357
665.987
809.603
834.235
778.907
812.817
832.887
660.726
651.257
626.708
720.751
721.411
711.101
697.759
662.37
655.28
477.547
2.06697e+161
9.09155e+223
745.199
819.18
900.351
920.057
848.383
1100.34
853.5
941.167
694.491
676.653
664.796
807.358
831.978
775.544
810.037
830.838
659.955
650.178
626.581
718.831
719.592
710.252
696.414
661.355
653.952
2.06697e+161
997.117
777.816
745.158
809.449
900.781
919.4
840.255
1089.41
849.494
942.759
693.488
675.965
663.635
805.093
829.776
772.225
807.229
828.777
659.331
648.931
626.427
716.935
717.738
709.359
695.068
660.344
652.691
986.361
9.09155e+223
744.834
998.504
998.504
998.504
799.049
900.994
918.255
889.632
834.26
1078.66
845.342
944.23
675.298
662.505
802.816
827.609
768.939
804.39
826.704
658.872
647.604
626.271
715.063
715.852
708.417
693.73
659.352
651.487
970.621
744.224
998.94
2.06697e+161
998.94
9.09155e+223
900.652
916.658
892.872
827.241
1068.14
841.054
946.337
674.647
661.4
800.53
825.462
765.689
801.522
824.616
658.532
646.288
626.178
713.235
713.925
707.421
692.405
658.379
650.338
2.06697e+161
1359.56
743.321
999.103
999.103
999.103
901.112
914.612
895.874
823.349
1057.77
836.403
947.686
673.994
660.334
798.227
823.344
762.483
798.62
822.508
658.325
644.954
626.079
711.474
711.957
706.368
691.096
657.416
649.23
921.531
9.09155e+223
9.09155e+223
999.033
999.033
999.033
900.964
912.169
899.009
821.181
1047.59
831.542
949.997
673.33
659.299
795.908
821.244
759.327
795.675
820.383
658.247
643.598
625.94
709.776
709.93
705.254
689.812
656.456
648.146
2.06697e+161
1354.59
740.947
998.748
998.748
998.748
900.636
909.196
902.577
818.159
1037.66
826.549
950.517
672.659
658.29
793.572
819.146
756.223
792.687
818.233
658.307
642.229
625.759
708.13
707.854
704.079
688.558
655.494
647.081
858.182
2.06697e+161
9.09155e+223
4.2695e+257
998.334
998.334
900.216
905.687
906.701
812.192
1028.01
821.242
949.568
671.969
657.311
791.226
817.054
753.178
789.665
816.063
658.444
640.86
625.531
706.529
705.748
702.848
687.333
654.521
646.034
824.034
9.09155e+223
901.037
737.28
997.701
997.701
997.701
899.823
901.64
911.498
802.49
1018.29
815.634
948.486
671.262
656.354
788.873
814.968
786.607
813.865
658.687
639.495
625.262
704.978
703.616
701.564
686.15
653.553
644.988
791.162
9.09155e+223
9.09155e+223
734.806
996.765
996.765
996.765
898.969
897.117
916.576
791.696
1008.51
809.619
946.189
670.536
655.421
786.525
812.889
783.516
811.64
659.051
638.165
624.941
703.495
701.467
700.234
685.01
652.591
643.946
2.06697e+161
1305.62
9.09155e+223
731.992
9.09155e+223
995.576
995.576
897.701
892.034
921.636
778.859
998.573
803.562
943.69
669.779
654.503
784.177
810.88
780.399
809.374
659.529
636.875
624.577
702.117
699.295
698.866
683.924
651.631
642.903
732.816
1281.03
895.947
728.824
994.174
994.174
994.174
1017.59
896.041
886.303
926.44
764.526
988.855
797.754
941.487
668.999
653.6
781.823
808.772
777.253
807.078
660.097
635.616
624.173
700.843
697.125
697.457
682.901
650.659
641.864
704.548
1257.43
893.27
9.09155e+223
3.94662e+180
9.09155e+223
992.612
1013.35
893.947
879.968
930.877
978.724
1258.67
792.584
938.905
668.208
652.724
779.449
806.639
774.076
804.753
660.748
634.399
623.74
699.692
694.961
696.014
681.943
649.681
640.828
677.419
9.09155e+223
889.237
990.854
990.854
990.854
1008.05
891.363
873.072
934.839
968.374
1257.03
788.147
936.168
667.4
651.878
776.965
804.49
770.866
802.387
661.517
633.229
623.265
698.67
692.799
694.539
681.052
648.714
639.787
2.06697e+161
1267.41
9.09155e+223
988.761
988.761
988.761
1012.29
1012.29
1012.29
1001.72
888.364
865.619
938.232
958.514
1254.76
784.723
933.499
666.575
651.067
774.459
802.324
767.631
799.982
662.359
632.104
622.744
697.773
690.652
693.031
680.237
647.743
638.75
630.454
1261.62
2.06697e+161
986.29
9.09155e+223
986.29
1015.27
1015.27
1015.27
994.218
884.792
857.446
941.209
948.318
1251.81
783.061
930.604
665.702
650.288
771.954
800.145
764.353
797.546
663.242
631.029
622.17
697.013
688.532
691.492
679.503
646.78
637.705
607.856
9.09155e+223
872.344
983.214
983.214
983.214
1017.6
1017.6
1017.6
985.374
880.355
848.752
943.897
937.987
1248.09
781.79
927.563
960.628
664.796
649.54
769.455
798.016
761.048
795.071
664.178
629.998
621.503
696.387
686.434
689.931
678.848
645.83
636.656
585.827
1234.5
864.235
1019.21
1019.21
1019.21
975.05
875.082
946.28
839.325
946.272
928.071
1243.56
924.073
966.711
663.901
648.827
766.981
795.942
757.73
792.564
665.179
629.003
620.741
695.903
684.394
688.345
678.267
644.926
635.618
702.064
2.06697e+161
856.425
9.09155e+223
1020.3
1020.3
1020.3
963.087
868.951
946.973
829.011
948.359
917.549
1238.13
920.169
972.408
662.981
648.15
764.561
793.824
754.409
790.039
666.183
628.045
619.841
695.556
682.423
686.733
677.758
644.075
634.599
542.958
1200.68
846.036
770.459
1020.83
1020.83
1020.83
949.7
861.908
947.526
817.962
950.156
907.993
1231.77
915.888
977.681
662.035
647.497
762.195
791.679
751.112
787.498
667.236
627.183
618.895
695.292
680.53
685.09
677.32
643.262
633.591
523.422
9.09155e+223
834.967
770.718
1021.17
1021.17
1021.17
934.917
853.994
947.958
808.072
951.439
952.691
1224.43
911.301
982.334
661.086
646.868
759.88
789.514
747.867
784.936
668.345
626.427
617.875
990.967
990.967
990.967
695.11
678.7
683.417
676.947
642.462
632.585
1096.63
1110.93
503.454
9.09155e+223
825.645
770.79
1021.46
1021.46
1021.46
919.268
845.297
948.255
798.521
952.046
887.545
1216.07
906.615
986.394
660.102
646.257
757.576
787.331
744.674
782.337
669.505
625.762
616.801
992.691
992.691
992.691
695.006
676.93
681.711
676.634
641.668
631.586
1096.97
1112.59
2.06697e+161
1123.53
9.09155e+223
770.74
1021.66
1021.66
1021.66
902.884
835.889
948.479
788.85
951.957
878.18
1206.63
901.539
990.133
659.137
645.667
755.292
785.142
741.531
779.706
670.747
625.217
615.709
994.347
994.347
994.347
694.993
675.185
679.967
792.672
676.384
640.907
630.603
718.826
881.138
1097.29
1114.66
2.06697e+161
1092.19
803.969
770.575
1021.34
1021.34
1021.34
885.897
825.609
948.65
779.076
951.365
869.802
1196.18
896.048
994.284
658.188
645.081
652.926
753.032
782.942
738.436
777.041
976.791
976.791
976.791
672.023
624.808
614.665
995.926
995.926
995.926
695.049
673.468
678.18
792.783
676.195
640.136
629.635
723.601
886.895
1097.83
1117.17
2.06697e+161
1059.53
1421.8
792.146
770.005
1020.44
1020.44
1020.44
868.504
814.411
948.843
769.075
950.385
900.261
860.81
1184.72
890.11
998.52
657.245
644.492
903.085
653.375
762.496
750.811
780.733
735.394
774.337
767.651
978.736
978.736
978.736
673.274
624.507
613.627
997.421
997.421
997.421
695.169
671.769
676.352
792.851
676.062
639.346
628.682
728.761
893.01
1098.99
1120.13
1152.24
1022.25
1419.23
9.09155e+223
768.951
1019.23
1019.23
1019.23
802.339
949.207
758.701
949.424
905.557
853.994
1172.48
883.881
1001.79
656.285
643.911
905.431
653.832
763.566
748.619
778.516
732.405
771.595
769.173
756.578
980.581
980.581
980.581
674.496
624.301
612.565
998.834
998.834
998.834
889.515
695.351
670.1
674.487
792.889
675.98
997.324
638.59
627.733
733.582
899.135
1925.67
1588.03
1100.64
1123.95
1151.66
1007.06
1413.77
763.712
767.517
1017.77
1017.77
1017.77
789.544
949.4
948.269
911.545
846.247
1159.57
877.433
1004.89
655.27
643.3
907.625
654.287
764.629
746.462
776.273
729.454
768.807
770.606
758.272
982.342
982.342
982.342
675.696
624.173
611.486
1000.14
1000.14
1000.14
892.345
695.59
668.478
672.581
792.889
675.935
997.631
637.808
626.765
1190.32
738.19
906.032
2377.67
1948.1
1592.13
1102.79
1130.05
1152.08
1423.44
995.245
1402.52
748.051
937.682
765.739
1016.25
1016.25
1016.25
776.099
949.207
946.275
918.492
839.778
1146.28
870.628
1005.64
654.249
642.666
909.796
654.75
765.712
744.356
774.02
726.562
765.983
771.998
759.985
984.013
984.013
984.013
676.883
624.153
610.41
1001.36
1001.36
1001.36
895.096
774.61
695.901
666.918
670.646
792.847
675.924
997.942
637.005
625.787
1330.39
1236.41
1187.72
743.275
915.33
2367.56
1968.65
1596.37
1105.14
984.601
1154.92
1458.03
1320.95
1423.82
977.309
1392.13
939.146
763.64
1014.74
1014.74
1014.74
762.065
948.844
943.36
926.323
835.807
1132.91
863.409
1005.12
653.23
642.008
911.981
655.238
766.85
742.313
771.763
876.741
876.741
876.741
723.735
763.131
773.379
761.715
985.595
985.595
985.595
678.06
624.238
609.333
1002.52
1002.52
1002.52
897.772
777.525
696.283
665.428
668.683
792.771
675.941
998.244
636.199
624.813
1350.56
1236.76
1184.91
2355.71
1995.41
1600.92
3005.27
2986.11
987.906
1161.94
1443.49
1641.06
1425.96
951.369
1384.29
939.935
2.06697e+161
1012.49
1012.49
1012.49
1054.57
747.408
948.265
939.972
935.052
833.338
1119.64
855.741
1004.87
652.203
641.32
914.106
655.754
768.019
740.313
769.507
878.977
878.977
878.977
720.964
760.247
774.745
763.468
987.107
987.107
987.107
679.214
624.435
608.258
1003.61
1003.61
1003.61
900.36
780.491
696.74
664.008
666.69
792.653
675.977
998.55
635.387
623.839
1399.97
1238.09
1182.96
2024.1
1604.42
2962.51
3027.76
992.151
1173.66
1422.3
1533.76
1413.88
919.267
1379
940.487
758.377
1009.59
1009.59
1009.59
1054.23
947.459
936.573
944.059
831.828
1106.61
847.402
1003.81
651.119
640.577
916.158
656.301
769.222
738.364
767.248
881.225
881.225
881.225
718.259
757.327
776.107
765.239
988.555
988.555
988.555
680.377
624.741
607.192
1004.63
1004.63
1004.63
902.861
783.498
697.269
662.669
664.685
792.496
758.414
676.04
998.856
634.563
622.862
1396.13
1237.36
1181.43
2049.04
1611.52
2912.79
3054.75
996.51
1428.71
1424.47
883.851
9.09155e+223
940.538
755.217
830.452
1006.32
1006.32
1006.32
1023.11
1023.11
1023.11
1052.91
946.388
755.414
932.847
952.924
827.09
1093.9
838.486
1002.05
649.996
639.792
918.139
656.885
624.517
770.46
736.471
764.993
883.476
883.476
883.476
715.623
754.37
777.476
727.59
767.031
989.972
989.972
989.972
884.63
681.567
625.139
606.134
1005.6
1005.6
1005.6
905.273
786.527
697.884
661.414
662.668
792.307
759.609
676.131
999.188
633.743
621.876
1411.4
1237.85
1178.26
1134.23
2074.14
1616.42
2858.95
3060.3
1000.81
1144.48
1426.53
1424.85
846.713
1371.37
939.873
751.734
830.373
1002.7
1002.7
1002.7
1028.93
1028.93
1028.93
1050.51
945.239
756.48
928.077
961.469
815.012
1081.35
1296.23
829.281
999.915
648.873
638.979
920.03
657.512
624.687
771.731
734.64
762.742
885.754
885.754
885.754
713.046
751.371
778.856
730.63
768.851
991.368
991.368
991.368
887.618
682.779
625.594
605.099
1006.55
1006.55
1006.55
907.633
789.609
698.609
660.274
660.642
792.089
760.74
676.25
999.542
632.93
620.88
1414.82
1238.45
1177.14
1129.95
2095.7
1620.88
3016.37
1005.17
1011.52
1430.79
1424.65
809.338
9.09155e+223
938.369
747.872
829.816
998.946
998.946
998.946
1033.94
1033.94
1033.94
1047.34
943.796
757.046
922.745
969.508
802.267
1068.98
1298.41
820.032
997.906
647.756
638.136
921.819
853.048
658.195
624.887
773.037
732.842
760.407
888.073
888.073
888.073
710.534
748.329
780.257
733.633
770.685
992.745
992.745
992.745
890.559
684.017
626.134
604.091
1007.49
1007.49
1007.49
909.948
792.739
699.444
659.248
658.617
791.845
761.81
676.394
999.884
632.123
619.885
1429.59
1239.25
1176.37
1127.38
2114.28
1625.8
1422.07
2897.09
1006.7
1007.96
1426.74
1424.42
775.847
9.09155e+223
935.862
743.571
828.684
994.606
994.606
994.606
1038.36
1038.36
1038.36
1043.22
941.877
756.561
917.091
976.835
785.528
1056.97
1300.71
810.762
995.948
646.657
637.248
923.504
856.374
658.935
625.115
774.385
764.146
731.058
757.988
890.402
890.402
890.402
708.094
745.233
781.693
736.599
772.533
994.1
994.1
994.1
893.455
685.293
626.771
603.121
1008.41
1008.41
1008.41
912.218
795.901
700.394
658.334
656.611
791.575
762.813
676.564
1000.2
631.316
618.873
1440.22
1240.19
1175.59
1126.81
2128.09
1633.8
1421.93
2307.08
2278.95
2509.99
3093.98
2807.11
1009.14
1012.08
1426.25
1423.39
9.09155e+223
1338.36
932.555
738.676
826.858
989.581
989.581
989.581
1042.18
1042.18
1042.18
1038.02
939.539
755.055
911.147
983.448
769.586
1044.75
1303.16
801.85
993.414
645.581
636.331
925.076
859.748
659.732
625.37
775.772
764.845
729.281
755.565
892.716
892.716
892.716
705.732
742.101
783.169
739.524
774.404
995.432
995.432
995.432
896.3
771.931
686.618
627.46
602.141
1009.33
1009.33
1009.33
914.444
799.086
701.467
657.536
654.616
791.284
763.747
676.755
1000.53
630.506
617.854
1450.19
1240.98
1175.54
1127.04
2139.69
1644.92
1422.44
2294.9
2276.92
2403.6
3028.66
2234.97
2764.59
2180.49
1013.33
1014.5
1428.53
1426.76
1408.34
713.715
1318.69
928.785
733.129
824.272
984.096
984.096
984.096
1045.24
1045.24
1045.24
1024.52
2403.95
936.724
753.015
904.212
989.235
1032.38
1305.79
793.162
990.468
973.366
644.528
635.405
926.524
863.151
660.58
625.652
777.206
765.608
727.509
753.145
895.012
895.012
895.012
806.917
703.432
738.921
784.692
742.413
776.304
720.511
996.742
996.742
996.742
899.068
775.514
687.873
628.185
601.194
1010.23
1010.23
1010.23
916.629
802.287
702.681
656.859
652.649
790.975
764.615
877.245
676.974
1000.86
718.07
629.721
616.824
1461.93
1241.39
1174.75
1127.51
2147.35
1657.05
1423.39
2283.92
2270.55
2333.25
3014.7
2315.61
2708.2
2238.16
1018.55
1017.88
1427.93
1428.85
1354.14
684.725
1291.79
923.712
726.973
820.367
978.266
978.266
978.266
1047.41
1047.41
1047.41
1020.12
1024.27
933.491
750.84
896.663
994.12
973.14
1020.36
1308.6
785.245
987.142
983.129
643.502
634.467
927.906
866.572
661.485
625.96
778.682
766.44
727.695
725.781
750.731
897.295
897.295
897.295
809.281
701.201
735.747
786.267
745.278
778.229
722.224
998.033
998.033
998.033
901.758
779.156
689.079
628.969
600.31
1011.12
1011.12
1011.12
918.771
805.499
704.046
656.306
650.717
790.655
765.419
877.388
677.233
1001.18
717.857
628.975
615.815
1463.69
1240.7
1173.96
1126.79
2151.4
1670.71
1424.77
2270.08
2288.76
2871.95
2419
2630.08
2354.77
1028.9
1022.58
1424.67
1439.55
1323.13
658.935
9.09155e+223
917.416
720.272
797.915
816.331
972.267
972.267
6.22655e+228
1048.6
1048.6
1048.6
1013.82
1015.78
929.466
988.438
888.248
998.306
976.903
1008.29
1311.16
779.368
983.417
992.032
642.522
633.507
929.271
869.971
662.452
626.296
780.197
767.336
727.697
724.107
748.376
899.567
899.567
899.567
811.658
699.05
732.587
787.903
748.132
780.184
723.983
999.316
999.316
999.316
904.372
782.834
690.281
629.796
599.499
1012
1012
1012
920.855
808.702
705.567
655.881
648.816
790.329
766.16
877.505
677.533
1001.48
717.681
628.277
614.829
1457.33
1236.84
1173.6
1125.33
2150.85
1686.63
1426.58
2270.39
2267.85
2749.25
2502.64
2468.88
1040.04
1025.42
1409.33
1589.45
1328
9.09155e+223
1271.74
911.128
713.132
798.74
811.635
965.68
965.68
965.68
1049.24
1049.24
1049.24
1005
1006.18
924.792
989.039
879.029
1001.88
980.409
996.13
1312.92
774.222
979.609
1000.12
641.53
632.544
930.592
873.35
663.488
626.66
781.742
768.302
727.836
722.543
746.063
814.069
700.914
696.991
729.45
789.62
750.977
725.785
1000.6
1000.6
1000.6
906.914
786.533
691.49
630.634
598.747
1012.86
1012.86
1012.86
922.878
811.887
707.236
655.582
646.996
789.999
766.832
877.605
677.87
1001.77
717.554
627.573
613.921
2174.92
1227.98
1172.25
1124.64
2149.61
1703.29
1428.81
2271.37
2246.37
2695.33
2550.66
1031.86
1376.11
1714.04
1330.08
610.568
1275.93
9.09155e+223
705.796
799.43
805.9
958.449
958.449
958.449
1049.47
1049.47
1049.47
994.593
995.347
919.302
989.697
868.826
1004.82
983.605
984.629
1313.57
771.322
975.184
1007.79
640.494
631.571
931.869
876.703
664.597
627.054
783.299
769.337
728.163
721.047
743.787
816.504
701.026
695.006
726.367
791.419
753.816
727.628
1001.9
1001.9
1001.9
909.384
790.235
692.716
631.523
598.069
1013.7
1013.7
1013.7
924.841
815.053
709.066
655.371
645.227
789.671
767.426
877.69
678.241
1002.07
717.503
626.852
613.051
2203.34
1223.66
1171.53
1124.03
2147.96
1722.5
1431.12
2266.42
2223.15
2186.12
2742.09
2691.1
1036.95
1349.44
1697.03
1331.27
2.06697e+161
1267.72
9.09155e+223
698.438
799.873
798.856
950.662
950.662
950.662
1049.69
1049.69
1049.69
983.662
983.343
912.967
990.429
857.889
1007.1
986.502
972.584
1312.97
767.81
970.291
1015.01
639.434
630.564
933.102
880.023
665.767
627.474
784.888
770.433
728.662
719.639
741.55
818.975
750.468
701.281
693.119
723.323
793.3
756.653
729.514
1003.21
1003.21
1003.21
911.773
793.926
693.968
632.462
597.467
1014.53
1014.53
1014.53
926.74
818.192
711.057
655.23
643.523
789.334
767.946
877.747
678.645
1002.36
717.445
679.321
626.148
612.191
2229.44
1243.49
1170.83
1123.43
2145.02
1740.82
1433.36
2266.16
2207.87
2227.48
2652.32
1045.29
1333.74
1482.6
1332.08
564.903
1252.55
884.316
690.916
799.912
790.021
942.47
942.47
942.47
1050.02
1050.02
1050.02
970.309
969.921
905.765
991.113
846.309
1008.69
989.047
960.356
1310.97
763.658
965.01
1021.59
638.425
629.55
934.305
883.302
666.995
627.918
602.322
786.516
771.58
777.967
729.333
718.319
739.325
821.477
752.629
701.68
691.354
720.317
795.261
759.478
731.441
1004.54
1004.54
1004.54
914.08
797.594
695.256
633.45
596.934
1015.33
1015.33
1015.33
928.572
821.3
713.215
655.171
641.851
788.995
768.396
877.779
679.068
889.813
717.378
678.932
625.452
611.342
2258.78
1264.54
1170.21
1122.8
2138.27
1756.28
1435.84
2264.62
2193.25
2234.18
2712.64
3075.38
1359.79
1055.72
1323.17
1401.18
1331.97
543.832
1235.45
9.09155e+223
799.565
781.771
933.931
933.931
933.931
1050.83
1050.05
1050.05
955.64
954.811
897.688
991.509
835.283
1009.78
991.225
949.019
1307.46
959.377
1027.75
637.51
628.497
935.469
886.545
668.288
628.387
602.471
788.143
772.787
780.944
730.183
717.091
737.126
824.014
754.905
702.241
689.694
717.348
797.286
762.281
715.029
733.407
1005.91
1005.91
1005.91
916.304
801.232
696.605
634.521
596.508
1016.11
1016.11
1016.11
930.34
824.368
715.534
655.19
640.193
788.654
768.778
724.961
877.792
713.233
679.514
891.603
717.348
678.571
624.756
610.527
2276.87
1267.69
1169.55
1122.19
2131.59
1776.04
1438.7
2253.45
2178.37
2250.97
2859.58
3032.89
1352.75
1068.17
1315.02
1379.99
1331.19
522.898
1219.02
862.669
798.992
773.632
924.497
924.497
924.497
1049.59
1049.59
1049.59
939.973
938.187
888.731
991.658
824.297
1010.52
993.071
936.767
1302.52
953.547
1034.26
636.661
627.448
936.556
889.749
669.629
628.884
602.636
789.797
774.051
784.1
731.221
715.96
734.955
826.583
757.304
702.966
688.15
714.42
799.345
765.056
719.588
735.413
1007.31
1007.31
1007.31
918.445
804.833
698.017
635.616
596.186
1016.87
1016.87
1016.87
932.039
827.391
718.003
655.285
638.565
788.326
769.131
726.788
877.788
714.23
679.99
893.365
717.356
678.241
647.983
624.073
609.705
2141.16
2282.08
1261.65
1168.89
1121.01
2123.43
1801.52
1441.94
2240.63
2164.89
2264.26
2951.45
2932.23
1346.34
1078.32
1308.71
1352.14
1326.66
2.06697e+161
1199.07
3.94662e+180
852.434
798.2
914.15
914.15
914.15
1048.87
1048.87
1048.87
920.132
878.929
991.759
813.301
1010.97
994.462
925.233
1296.48
947.226
1040.6
654.245
635.856
626.413
892.907
671.012
629.41
602.823
584.781
791.488
775.372
787.437
732.45
714.93
732.811
829.19
759.839
703.857
686.715
711.536
801.434
767.82
724.174
737.46
920.505
808.393
699.542
636.694
595.943
1017.61
1017.61
1017.61
933.673
830.365
720.613
655.445
636.97
788.038
769.46
728.604
877.786
829.047
715.256
680.488
895.124
677.943
647.465
623.416
608.861
2032.2
2290.33
1264.64
1168.52
1118.77
2113.65
1827.74
1445.69
2226.81
2160.89
2271.94
2825.93
1340.12
1090.23
1303.57
1350.92
1328.11
490.921
1173.11
1463.46
840.048
951.665
797.18
902.958
902.958
902.958
1047.91
1047.91
1047.91
900.633
868.296
991.827
802.238
1010.57
918.766
995.523
914.069
1289.47
940.633
1045.15
653.699
635.066
625.372
896.012
841.963
672.439
629.965
603.028
584.803
776.751
790.963
733.86
713.972
730.692
831.834
762.511
704.904
685.382
708.696
770.584
728.796
739.547
922.482
811.905
701.162
637.763
595.788
1018.35
1018.35
1018.35
935.244
833.29
723.342
655.675
635.427
787.794
769.766
730.4
877.826
829.873
716.3
681.003
896.873
677.682
647.01
622.812
608.038
2003.58
2393.62
1266.52
1168.15
1116.75
1851.46
1449.72
2212.98
2157.99
2262.92
2082.53
2779.05
2130.24
1335.1
1299.01
1351.14
1325.42
488.922
9.09155e+223
1457.86
826.781
956.995
795.935
1046.79
1046.79
1046.79
879.772
856.926
991.856
791.035
1009.18
927.717
996.227
902.926
1281.47
933.775
1049.28
653.187
634.276
624.335
899.054
845.898
630.549
603.251
584.816
778.2
774.57
794.654
735.44
713.038
728.625
834.538
765.316
706.095
684.16
705.901
773.372
733.457
741.676
924.382
815.359
702.89
638.828
595.724
936.757
836.164
726.173
655.971
633.943
787.593
770.049
732.166
877.914
830.664
717.359
681.537
898.611
677.478
646.615
622.236
607.185
2038.16
1269.73
1166.33
1114.69
1872.28
1453.95
2205.69
2155.2
2234.95
3021.98
2096.98
2774.18
2085.81
1330.92
1351.99
1325.65
2.06697e+161
1455.23
9.09155e+223
961.822
794.458
1045.8
1045.8
1045.8
858.008
844.756
991.826
779.737
1007.15
938.021
996.555
894.555
1272.39
926.672
1052.33
652.682
633.482
623.238
902.029
849.958
631.16
603.48
584.818
779.714
775.558
798.517
737.219
712.204
726.607
837.295
768.239
707.423
683.038
703.154
776.174
738.163
743.848
926.208
818.732
704.76
639.889
595.754
938.215
838.978
729.084
656.344
632.517
787.435
770.292
733.895
878.057
831.426
718.422
682.082
900.328
677.363
646.244
621.648
606.32
2136.45
1274.57
1165.21
1112.73
1889.59