/*--------------------------------*- C++ -*----------------------------------*\
| =========                 |                                                 |
| \\      /  F ield         | OpenFOAM: The Open Source CFD Toolbox           |
|  \\    /   O peration     | Version:  2.1.1                                 |
|   \\  /    A nd           | Web:      www.OpenFOAM.org                      |
|    \\/     M anipulation  |                                                 |
\*---------------------------------------------------------------------------*/
FoamFile
{
    version     2.0;
    format      ascii;
    class       vectorField;
    location    "0.0015";
    object      U;
}
// * * * * * * * * * * * * * * * * * * * * * * * * * * * * * * * * * * * * * //


43837
(
(-0.658125 -0.0285695 0.0242487)
(22.6209 -0.542701 -0.823649)
(22.5965 -0.568537 -0.817881)
(22.5693 -0.596806 -0.815961)
(22.5433 -0.649973 -0.823238)
(22.5262 -0.749572 -0.85026)
(22.4944 -0.802484 -0.866888)
(22.4556 -0.835148 -0.878479)
(22.4175 -0.867501 -0.889342)
(22.3896 -0.908831 -0.89366)
(22.3737 -0.924806 -0.867781)
(22.3918 -0.921073 -0.791212)
(22.3861 -0.894051 -0.715819)
(22.3764 -0.848223 -0.643176)
(22.324 -0.803811 -0.590648)
(22.2631 -0.760919 -0.542073)
(22.2322 -0.714344 -0.481916)
(22.5865 -0.00128865 -1.14427)
(22.643 -0.109761 -1.05029)
(22.6628 -0.175525 -0.988824)
(22.6595 -0.211764 -0.951438)
(22.6461 -0.234298 -0.927425)
(22.6346 -0.272316 -0.89791)
(22.6331 -0.344057 -0.86279)
(22.644 -0.45216 -0.833601)
(22.6299 -0.518131 -0.817707)
(22.6021 -0.54827 -0.810824)
(22.5713 -0.578773 -0.808294)
(22.544 -0.64816 -0.819022)
(22.5239 -0.761783 -0.853149)
(22.482 -0.81246 -0.873496)
(22.4329 -0.849881 -0.892464)
(22.3858 -0.893254 -0.912866)
(22.344 -0.946188 -0.927328)
(22.3162 -0.954453 -0.899985)
(21.6839 1.1839 -2.2578)
(22.3303 -0.937833 -0.807199)
(21.9668 0.922425 -1.9873)
(8.84855 -0.3485 0.405997)
(22.3441 -0.892205 -0.695813)
(22.166 0.720486 -1.77846)
(8.63856 -0.356048 0.407786)
(22.3187 -0.831462 -0.604893)
(22.2923 0.568302 -1.62641)
(8.42212 -0.363456 0.409814)
(22.239 -0.78462 -0.554392)
(22.3605 0.46221 -1.52501)
(8.18042 -0.372128 0.413751)
(22.1977 -0.732638 -0.487159)
(22.4 0.379127 -1.44952)
(7.91276 -0.381494 0.41863)
(22.0628 -0.708371 -0.474302)
(22.4357 0.293674 -1.37454)
(7.60763 -0.393257 0.425753)
(22.4866 0.188256 -1.2818)
(7.26975 -0.406479 0.434387)
(22.5576 0.059066 -1.1704)
(6.89046 -0.423209 0.445076)
(22.6319 -0.0709391 -1.05691)
(6.47608 -0.443284 0.4575)
(22.6586 -0.147173 -0.984785)
(6.03471 -0.466648 0.471255)
(22.6547 -0.186547 -0.944446)
(5.58096 -0.494306 0.485371)
(22.6411 -0.221697 -0.912539)
(22.6319 -0.280181 -0.877098)
(22.6427 -0.395911 -0.84093)
(22.6372 -0.492911 -0.820076)
(10.385 -0.309527 0.433418)
(22.6059 -0.533421 -0.812)
(10.2557 -0.314294 0.428308)
(22.5681 -0.568098 -0.811283)
(10.1188 -0.319421 0.423863)
(22.5378 -0.661846 -0.830478)
(9.96799 -0.325147 0.420479)
(22.5084 -0.785373 -0.87193)
(18.1619 3.91538 -4.69186)
(9.81094 -0.331617 0.417403)
(22.4513 -0.834673 -0.895995)
(18.7661 3.54283 -4.42404)
(9.64258 -0.338751 0.414865)
(22.3869 -0.881306 -0.924844)
(19.3386 3.15842 -4.1325)
(9.4636 -0.345865 0.413145)
(22.3233 -0.966752 -0.968143)
(19.8688 2.76956 -3.81026)
(9.27705 -0.353873 0.411636)
(22.2585 -0.995244 -0.975666)
(20.3578 2.36792 -3.45459)
(9.08256 -0.362197 0.410434)
(22.2217 -0.99358 -0.929422)
(20.806 1.97278 -3.08248)
(8.87398 -0.370273 0.410385)
(22.2363 -0.949517 -0.79169)
(21.2177 1.59135 -2.69964)
(8.65986 -0.378502 0.410175)
(22.2195 -0.866851 -0.650112)
(21.5946 1.25019 -2.33969)
(8.43511 -0.386708 0.410769)
(22.1292 -0.796119 -0.559405)
(21.924 0.956689 -2.02135)
(8.18505 -0.396156 0.41315)
(22.0507 -0.743143 -0.492446)
(22.1548 0.725644 -1.77744)
(7.90445 -0.407096 0.416761)
(21.7475 -0.736345 -0.525897)
(22.2894 0.56149 -1.6084)
(7.58695 -0.420302 0.422861)
(22.3589 0.448768 -1.49798)
(7.23266 -0.43516 0.430742)
(22.4085 0.347665 -1.40484)
(6.83841 -0.452178 0.440566)
(22.4632 0.232235 -1.30418)
(6.57836 -0.419843 -0.344729)
(6.40788 -0.472796 0.452735)
(22.5442 0.086568 -1.178)
(6.53739 -0.411235 -0.348288)
(5.94291 -0.497674 0.467091)
(11.1123 -0.295869 0.486585)
(22.6297 -0.0607238 -1.04858)
(6.49311 -0.402875 -0.352027)
(5.46968 -0.525573 0.482067)
(11.0099 -0.299727 0.47838)
(22.6514 -0.135577 -0.976079)
(6.44623 -0.394716 -0.355864)
(5.01153 -0.557284 0.496557)
(10.9017 -0.303888 0.470429)
(22.6418 -0.181523 -0.934845)
(6.39705 -0.386722 -0.359788)
(10.7855 -0.308241 0.462912)
(22.6272 -0.239701 -0.897901)
(6.34517 -0.378816 -0.363834)
(10.6613 -0.313172 0.45572)
(22.633 -0.358038 -0.857682)
(6.29103 -0.371164 -0.36794)
(10.5288 -0.318638 0.448941)
(22.6298 -0.480791 -0.83536)
(15.7364 5.36362 -5.83196)
(6.23466 -0.363737 -0.372107)
(10.389 -0.32458 0.442633)
(22.5902 -0.534278 -0.830734)
(15.9763 5.21712 -5.77751)
(6.17583 -0.356527 -0.376343)
(10.2377 -0.3308 0.437269)
(22.5435 -0.594501 -0.836794)
(16.2429 5.06935 -5.70033)
(6.11385 -0.34951 -0.380688)
(10.077 -0.338019 0.432609)
(22.5148 -0.749927 -0.88243)
(16.5449 4.90907 -5.57469)
(6.04819 -0.342648 -0.385161)
(9.90833 -0.34599 0.42842)
(22.454 -0.839556 -0.920395)
(16.8284 4.75651 -5.42265)
(5.97938 -0.335882 -0.389766)
(9.72711 -0.35457 0.424978)
(22.3751 -0.889453 -0.951545)
(17.0785 4.59935 -5.26233)
(5.90673 -0.329197 -0.394505)
(9.53918 -0.363402 0.42208)
(22.2882 -0.998583 -1.01264)
(17.7 4.2013 -4.96521)
(9.34373 -0.37332 0.419486)
(22.1957 -1.04055 -1.03718)
(18.4227 3.76446 -4.65232)
(9.14029 -0.382965 0.41743)
(22.1213 -1.04883 -1.01144)
(19.1059 3.31487 -4.30983)
(8.92814 -0.392662 0.415603)
(22.1075 -0.999491 -0.867293)
(19.7361 2.84495 -3.92264)
(7.15579 -0.353958 -0.869347)
(8.7094 -0.402682 0.413475)
(22.0661 -0.8947 -0.688559)
(20.3109 2.3777 -3.50619)
(7.0882 -0.349139 -0.868296)
(8.4779 -0.411278 0.412283)
(21.967 -0.806614 -0.560273)
(20.8403 1.9176 -3.05776)
(7.0158 -0.344606 -0.867586)
(8.22404 -0.420899 0.411166)
(21.6053 -0.783074 -0.574574)
(21.3092 1.49413 -2.61057)
(6.9736 -0.464865 -0.361415)
(6.93949 -0.340253 -0.867158)
(7.93545 -0.431652 0.412223)
(11.9014 -0.266405 0.566469)
(21.7356 1.11611 -2.20008)
(6.93677 -0.456 -0.364483)
(6.85813 -0.336049 -0.867167)
(7.61241 -0.444536 0.41431)
(11.8075 -0.270988 0.555972)
(22.0639 0.810374 -1.86656)
(6.89658 -0.447463 -0.367561)
(6.77269 -0.331934 -0.867437)
(7.24269 -0.46053 0.41988)
(11.7117 -0.275455 0.545623)
(22.2449 0.604065 -1.64831)
(6.85323 -0.439346 -0.370642)
(6.68389 -0.327758 -0.867909)
(6.8297 -0.478845 0.427105)
(11.6128 -0.27989 0.535443)
(22.3397 0.459991 -1.50589)
(6.80722 -0.431499 -0.373743)
(6.59128 -0.323701 -0.868555)
(6.36783 -0.501646 0.437779)
(11.5085 -0.284312 0.525617)
(22.406 0.328939 -1.38995)
(6.75827 -0.423854 -0.376892)
(6.49451 -0.319701 -0.869416)
(5.87585 -0.528951 0.451418)
(11.3998 -0.288997 0.515857)
(22.479 0.183095 -1.26613)
(6.70662 -0.416401 -0.380099)
(6.39459 -0.315634 -0.870447)
(5.36767 -0.560899 0.466841)
(11.2852 -0.293987 0.506225)
(22.6902 0.0328125 0.0434548)
(22.5896 -0.000284555 -1.10838)
(13.4772 6.4098 -5.29844)
(6.65459 -0.409057 -0.382977)
(6.29368 -0.311438 -0.87125)
(4.89563 -0.59362 0.482098)
(11.164 -0.299263 0.497023)
(10.8564 -0.310774 -0.813979)
(22.6876 0.0329491 0.0430115)
(22.7073 0.0336966 0.0177436)
(22.6344 -0.107178 -1.00831)
(13.6878 6.4166 -5.51156)
(6.60064 -0.401751 -0.385978)
(6.18932 -0.307001 -0.872245)
(4.5153 -0.623651 0.493671)
(11.0359 -0.304713 0.488065)
(10.5357 -0.278525 -0.815843)
(22.6851 0.0330566 0.0425401)
(22.705 0.034003 0.0176579)
(22.6277 -0.165518 -0.957863)
(13.8854 6.40456 -5.72188)
(6.54422 -0.394516 -0.389114)
(6.08219 -0.30233 -0.873405)
(10.8991 -0.310926 0.479276)
(10.1797 -0.241693 -0.81775)
(22.7534 -0.0635542 0.0502816)
(22.6829 0.0331286 0.0420329)
(22.7029 0.0342668 0.0175651)
(22.6122 -0.238762 -0.915954)
(14.1352 6.30378 -5.86356)
(6.48558 -0.387129 -0.39244)
(5.97221 -0.297556 -0.874679)
(8.2143 -0.399004 -0.923482)
(10.7566 -0.317712 0.470693)
(9.7864 -0.19845 -0.818563)
(22.7515 -0.0639007 0.0504034)
(22.6808 0.0331567 0.0414786)
(22.7359 0.0275363 0.0494042)
(22.7009 0.0344815 0.0174597)
(22.621 -0.385789 -0.876989)
(14.4012 6.18352 -5.98278)
(6.42496 -0.379833 -0.39589)
(5.85946 -0.292536 -0.876101)
(8.20227 -0.388979 -0.917416)
(10.6072 -0.324984 0.462456)
(9.36046 -0.149239 -0.818839)
(22.7495 -0.0642208 0.0505303)
(22.6791 0.0331343 0.0408685)
(22.7334 0.0280283 0.0490617)
(22.6991 0.0346436 0.0173445)
(22.7461 0.026062 0.020102)
(22.5986 -0.496205 -0.863389)
(14.6493 6.06565 -6.08853)
(6.36248 -0.372722 -0.399441)
(5.74445 -0.287215 -0.877641)
(8.17537 -0.38067 -0.912509)
(10.4455 -0.33267 0.455223)
(9.06478 -0.125702 -0.819143)
(22.7476 -0.0645103 0.0506612)
(22.7871 -0.0555099 0.0489682)
(22.6776 0.0330665 0.0402371)
(22.7311 0.0285077 0.0486267)
(22.6971 0.0347698 0.0172908)
(22.744 0.0266566 0.0197194)
(22.5485 -0.568238 -0.866476)
(14.9335 5.87292 -6.08606)
(6.29721 -0.365673 -0.403134)
(5.62589 -0.281511 -0.879323)
(8.14413 -0.373022 -0.907926)
(10.2774 -0.341401 0.448572)
(8.8577 -0.113057 -0.819008)
(22.7458 -0.0647653 0.0507955)
(22.7855 -0.0560092 0.0490131)
(22.6758 0.032971 0.0396662)
(22.7288 0.0289772 0.0481613)
(22.695 0.0348567 0.0172932)
(22.7418 0.0272572 0.0193791)
(22.5016 -0.69447 -0.897936)
(15.2545 5.65716 -6.02919)
(6.22889 -0.358675 -0.407007)
(5.50477 -0.275318 -0.881124)
(8.10883 -0.365978 -0.903615)
(10.0975 -0.351286 0.442696)
(8.67434 -0.102204 -0.818715)
(22.7439 -0.0649811 0.0509341)
(22.7838 -0.0565134 0.0490585)
(22.6739 0.0328494 0.0391579)
(22.7264 0.0294376 0.0477464)
(22.6928 0.0349025 0.0173461)
(22.7395 0.0278565 0.0190781)
(22.4493 -0.853326 -0.95852)
(15.5756 5.45509 -5.95979)
(6.15797 -0.351674 -0.411065)
(8.06954 -0.359444 -0.899587)
(9.91188 -0.361037 0.437513)
(8.50478 -0.0920082 -0.818116)
(22.7419 -0.0651563 0.0510752)
(22.7821 -0.0570212 0.0491047)
(22.6719 0.0326991 0.0387002)
(22.7238 0.0298857 0.0473801)
(22.6906 0.0349058 0.0174445)
(22.7372 0.0284506 0.0188124)
(22.3561 -0.909804 -0.989588)
(15.9295 5.25696 -5.86166)
(6.08388 -0.344704 -0.415315)
(8.02577 -0.353393 -0.895891)
(9.71656 -0.371866 0.43289)
(8.36657 -0.0824704 -0.816386)
(22.7399 -0.0652894 0.0512172)
(22.7803 -0.0575308 0.0491523)
(22.6697 0.0325172 0.0382784)
(22.721 0.0303181 0.0470604)
(22.6883 0.0348661 0.0175836)
(22.7348 0.0290337 0.0185777)
(22.2491 -1.03873 -1.06453)
(16.3249 5.04992 -5.70722)
(6.00653 -0.337609 -0.419778)
(7.97696 -0.347925 -0.892544)
(9.51441 -0.383588 0.428712)
(8.24619 -0.0728651 -0.814168)
(22.7378 -0.0653796 0.0513584)
(22.7785 -0.0580387 0.049203)
(22.6911 0.0361324 0.0892322)
(22.6675 0.0323012 0.0378799)
(22.7182 0.0307289 0.0467695)
(22.776 0.0207973 0.0493617)
(22.686 0.0347831 0.0177587)
(22.7323 0.0296014 0.0183713)
(22.7267 -0.0662527 0.0322124)
(22.1311 -1.08855 -1.09624)
(16.6614 4.86985 -5.53142)
(5.92567 -0.330402 -0.42443)
(7.92274 -0.342987 -0.889577)
(9.30046 -0.395263 0.425591)
(12.8535 -0.185145 0.673111)
(8.12387 -0.0633078 -0.812297)
(22.7357 -0.0654265 0.0514972)
(22.7767 -0.0585423 0.0492577)
(22.6892 0.0356198 0.0891724)
(22.6653 0.0320493 0.0374946)
(22.7154 0.0311142 0.0464932)
(22.7733 0.0213195 0.0494535)
(22.6836 0.0346573 0.0179657)
(22.7298 0.0301506 0.0181894)
(22.5627 0.00797139 -0.00870252)
(22.7242 -0.0661297 0.0326262)
(22.7765 -0.0628247 0.0254031)
(22.0233 -1.10538 -1.08309)
(17.0112 4.63825 -5.32264)
(5.84165 -0.323309 -0.429171)
(7.43796 -0.48071 -0.383106)
(7.86255 -0.338543 -0.887012)
(9.08141 -0.407112 0.422431)
(12.7571 -0.195408 0.660857)
(7.99899 -0.0540918 -0.810815)
(22.7335 -0.0654298 0.0516323)
(22.7748 -0.0590408 0.0493171)
(22.8075 -0.049767 0.0486964)
(22.6873 0.0350812 0.0890879)
(22.6631 0.0317616 0.0371159)
(22.7125 0.0314712 0.0462188)
(22.7704 0.0218433 0.0495554)
(22.6813 0.0344897 0.0182007)
(22.7273 0.030679 0.0180296)
(22.773 0.0193995 0.0239702)
(22.5605 0.00795536 -0.00782693)
(22.6087 0.00746983 -0.0198673)
(22.7217 -0.0659754 0.0330439)
(22.7741 -0.0632063 0.0255733)
(21.9686 -1.05419 -0.946148)
(17.8015 4.15086 -4.96994)
(5.75413 -0.316215 -0.434032)
(7.40924 -0.471782 -0.38512)
(7.79646 -0.334578 -0.884849)
(8.86154 -0.417641 0.418761)
(12.6578 -0.205536 0.648648)
(7.87426 -0.045711 -0.809698)
(22.7314 -0.0653895 0.0517628)
(22.7729 -0.0595327 0.0493817)
(22.8061 -0.0501181 0.0486753)
(22.6855 0.0345167 0.0889791)
(22.7222 0.0419378 0.0855484)
(22.661 0.0314436 0.0367423)
(22.7096 0.0317999 0.0459315)
(22.7675 0.0223658 0.0496588)
(22.679 0.0342819 0.0184585)
(22.7248 0.0311863 0.0178873)
(22.7708 0.0198852 0.0236635)
(22.5583 0.00793221 -0.00693864)
(22.6061 0.00757676 -0.0197464)
(22.7191 -0.065793 0.0334624)
(22.7716 -0.0635675 0.0257618)
(21.8915 -0.938455 -0.741362)
(18.6296 3.63185 -4.58621)
(5.66256 -0.309114 -0.439045)
(7.37908 -0.463169 -0.387139)
(7.72467 -0.330998 -0.883093)
(8.62824 -0.426286 0.415514)
(12.5554 -0.215129 0.636591)
(7.74936 -0.03761 -0.809046)
(22.7292 -0.0653096 0.0518876)
(22.771 -0.0600184 0.0494516)
(22.8047 -0.050476 0.048662)
(22.6836 0.0339276 0.0888463)
(22.7201 0.0418053 0.085896)
(22.6588 0.0311005 0.0363774)
(22.7066 0.0321066 0.0456207)
(22.7646 0.0228843 0.049755)
(22.6766 0.0340368 0.018733)
(22.7223 0.0316766 0.017756)
(22.7686 0.0203893 0.023356)
(22.5561 0.00790114 -0.00604214)
(22.6034 0.00767419 -0.0195911)
(22.7166 -0.0655839 0.0338785)
(22.769 -0.0639093 0.0259683)
(21.6316 -0.863145 -0.649536)
(19.3966 3.08837 -4.15206)
(7.34567 -0.454921 -0.389134)
(7.64677 -0.327775 -0.881755)
(8.37474 -0.436269 0.411516)
(12.4464 -0.224244 0.624793)
(7.6236 -0.0296665 -0.80889)
(12.1583 -0.442631 -0.880361)
(22.7271 -0.0651904 0.0520064)
(22.769 -0.0604981 0.0495264)
(22.8033 -0.0508439 0.0486554)
(22.6818 0.0333206 0.0886922)
(22.718 0.0416642 0.0862306)
(22.6567 0.030734 0.0360219)
(22.7038 0.0323914 0.0452914)
(22.7617 0.0234026 0.049834)
(22.6743 0.0337566 0.0190217)
(22.7198 0.0321468 0.0176369)
(22.7663 0.0209133 0.023047)
(22.5539 0.00786138 -0.00514128)
(22.6008 0.0077618 -0.0194004)
(22.7141 -0.0653483 0.0342907)
(22.7665 -0.064233 0.0261947)
(21.0977 -0.796387 -0.62669)
(20.0846 2.54563 -3.68155)
(7.30839 -0.447051 -0.391112)
(7.56335 -0.324743 -0.880804)
(8.07917 -0.446634 0.40969)
(12.3355 -0.232582 0.613228)
(7.49472 -0.021679 -0.809194)
(12.0067 -0.435516 -0.881579)
(22.7249 -0.0650315 0.0521184)
(22.7671 -0.0609701 0.0496068)
(22.8018 -0.0512227 0.0486545)
(22.6801 0.0326969 0.0885177)
(22.716 0.0415138 0.0865517)
(22.6547 0.0303449 0.0356755)
(22.7009 0.0326516 0.0449446)
(22.7588 0.0239232 0.0498907)
(22.6721 0.0334434 0.0193223)
(22.7173 0.0325943 0.0175313)
(22.7641 0.0214544 0.0227385)
(22.5518 0.00781057 -0.00424213)
(22.5981 0.00783884 -0.0191737)
(22.7116 -0.0650861 0.0346981)
(22.7638 -0.0645375 0.0264417)
(20.7123 2.01594 -3.17218)
(7.26716 -0.439557 -0.393102)
(7.47463 -0.321836 -0.880197)
(7.74647 -0.459237 0.408102)
(12.2232 -0.24059 0.601743)
(7.36542 -0.0136795 -0.809978)
(11.8218 -0.423979 -0.882865)
(22.7228 -0.0648327 0.0522237)
(22.7651 -0.0614325 0.0496933)
(22.8003 -0.051612 0.0486597)
(22.6784 0.0320574 0.088323)
(22.714 0.0413538 0.0868586)
(22.6526 0.029934 0.0353377)
(22.6981 0.0328851 0.0445819)
(22.7558 0.0244443 0.0499253)
(22.6698 0.0331002 0.0196285)
(22.7149 0.0330231 0.0174324)
(22.7618 0.022015 0.022429)
(22.5497 0.00775422 -0.00334083)
(22.5955 0.00790784 -0.0189033)
(22.7091 -0.0647979 0.0351005)
(22.7612 -0.0648218 0.0267096)
(21.257 1.52973 -2.65786)
(7.22212 -0.432357 -0.395132)
(7.3799 -0.319265 -0.879969)
(7.35502 -0.475702 0.410709)
(12.1064 -0.248562 0.590385)
(7.23516 -0.00582647 -0.811182)
(11.6044 -0.407505 -0.884235)
(22.7207 -0.0645937 0.0523225)
(22.7631 -0.061883 0.0497864)
(22.7987 -0.052016 0.0486679)
(22.6974 0.0270526 0.0994038)
(22.6767 0.0314035 0.0881089)
(22.712 0.0411834 0.087151)
(22.6506 0.0295057 0.0350119)
(22.6953 0.0330903 0.0442054)
(22.7529 0.024964 0.0499384)
(22.6676 0.0327279 0.0199374)
(22.7124 0.0334307 0.0173383)
(22.7595 0.0225953 0.0221162)
(22.5476 0.00769441 -0.00243986)
(22.5929 0.00796904 -0.0185876)
(22.7067 -0.0644831 0.0354972)
(22.7585 -0.0650847 0.0269984)
(21.7421 1.1023 -2.19095)
(7.17324 -0.425146 -0.397271)
(7.28026 -0.316803 -0.880091)
(6.91495 -0.496302 0.415571)
(11.9874 -0.256294 0.579202)
(7.10236 0.0022404 -0.813025)
(11.3545 -0.386076 -0.885588)
(22.7185 -0.0643143 0.052415)
(22.761 -0.0623192 0.0498866)
(22.7972 -0.0524343 0.0486798)
(22.6662 0.0246552 0.0963463)
(22.6959 0.0271454 0.0995945)
(22.6751 0.0307363 0.0878756)
(22.7101 0.0410017 0.0874277)
(22.6487 0.0290594 0.0346972)
(22.6925 0.033271 0.0438125)
(22.7499 0.0254847 0.0499247)
(22.6654 0.0323267 0.0202455)
(22.71 0.0338136 0.0172478)
(22.7572 0.0231919 0.0217983)
(22.5455 0.00763056 -0.00154262)
(22.5904 0.00802256 -0.0182257)
(22.7042 -0.0641409 0.0358878)
(22.7559 -0.0653251 0.0273086)
(22.8034 -0.0564355 0.0244176)
(22.0839 0.774616 -1.83387)
(11.7399 8.44343 -5.23631)
(7.12045 -0.41789 -0.399534)
(7.17621 -0.314348 -0.880519)
(8.80331 -0.444288 -0.987132)
(6.42045 -0.522015 0.423545)
(11.8675 -0.263574 0.568317)
(6.9664 0.0103948 -0.815487)
(11.0702 -0.359316 -0.88699)
(22.7164 -0.0639967 0.0525013)
(22.759 -0.0627413 0.0499935)
(22.7956 -0.0528668 0.0486948)
(22.6651 0.024338 0.0959514)
(22.6943 0.0272192 0.0997451)
(22.6735 0.0300566 0.0876239)
(22.7082 0.0408084 0.0876882)
(22.745 0.0432975 0.0790615)
(22.6468 0.0285914 0.0343905)
(22.6899 0.0334278 0.0434006)
(22.7469 0.0260081 0.0498774)
(22.6633 0.0318972 0.0205486)
(22.7077 0.0341692 0.0171594)
(22.7549 0.0238001 0.021474)
(22.5434 0.0075621 -0.000651855)
(22.5878 0.00806869 -0.0178169)
(22.7018 -0.0637698 0.0362712)
(22.7532 -0.0655422 0.0276402)
(22.8014 -0.0569552 0.0243776)
(22.2505 0.566984 -1.6203)
(11.8222 8.13178 -5.26535)
(7.06472 -0.410964 -0.401845)
(7.0685 -0.311769 -0.881191)
(8.85261 -0.426051 -0.977275)
(5.8867 -0.553322 0.43624)
(11.7415 -0.270698 0.557795)
(6.82481 0.018651 -0.818782)
(10.755 -0.324967 -0.886723)
(22.7144 -0.0636434 0.0525811)
(22.7569 -0.0631499 0.0501064)
(22.794 -0.0533125 0.0487141)
(22.6641 0.0240049 0.0955369)
(22.6927 0.0272736 0.0998564)
(22.672 0.0293651 0.0873541)
(22.7064 0.0405979 0.0879293)
(22.7431 0.0433523 0.0795768)
(22.6451 0.0280966 0.0340887)
(22.6873 0.0335573 0.0429657)
(22.744 0.0265329 0.0497898)
(22.6613 0.0314392 0.0208427)
(22.7054 0.0344947 0.0170713)
(22.7526 0.0244161 0.0211404)
(22.5413 0.0074881 0.000229764)
(22.5853 0.00810779 -0.0173603)
(22.6995 -0.0633692 0.0366445)
(22.7505 -0.0657366 0.0279915)
(22.7994 -0.0574757 0.0243526)
(22.3571 0.394686 -1.46066)
(11.9443 7.75261 -5.25572)
(7.00651 -0.404393 -0.404187)
(6.95735 -0.308903 -0.882048)
(8.89316 -0.409292 -0.968128)
(5.3405 -0.589673 0.451662)
(11.6122 -0.277814 0.547364)
(6.67763 0.0265103 -0.823019)
(10.3969 -0.286175 -0.888108)
(22.7123 -0.0632548 0.0526535)
(22.7549 -0.0635417 0.0502254)
(22.7924 -0.0537723 0.0487376)
(22.6631 0.0236645 0.0950915)
(22.691 0.0273085 0.0999301)
(22.6706 0.0286646 0.0870681)
(22.7045 0.0403587 0.088142)
(22.7412 0.0433901 0.080083)
(22.6435 0.0275658 0.0337814)
(22.6849 0.0336564 0.0425022)
(22.7411 0.0270568 0.0496524)
(22.6594 0.0309516 0.0211248)
(22.7032 0.0347808 0.0169809)
(22.7504 0.0250347 0.0207938)
(22.5393 0.00740799 0.00110009)
(22.5828 0.00814026 -0.016856)
(22.6972 -0.0629401 0.0370045)
(22.7479 -0.0659091 0.0283587)
(22.7973 -0.0579984 0.0243417)
(22.4345 0.234702 -1.32906)
(12.1423 7.41852 -5.26585)
(6.94586 -0.397908 -0.406601)
(6.84338 -0.305958 -0.883035)
(8.92447 -0.393877 -0.959361)
(4.84607 -0.625539 0.467067)
(11.4771 -0.284946 0.537131)
(6.52385 0.0335937 -0.828203)
(10.0023 -0.237035 -0.885799)
(22.7104 -0.0628298 0.052717)
(22.7529 -0.0639132 0.0503504)
(22.7908 -0.0542444 0.0487664)
(22.4703 -0.0268918 0.0636538)
(22.662 0.0233156 0.0946167)
(22.6893 0.0273239 0.0999678)
(22.6692 0.0279463 0.0867578)
(22.7026 0.04009 0.0883263)
(22.7393 0.0434114 0.0805792)
(22.642 0.0269967 0.0334689)
(22.6826 0.033719 0.0420018)
(22.7383 0.0275762 0.0494551)
(22.6576 0.0304328 0.021391)
(22.7011 0.0350218 0.0168849)
(22.7482 0.025651 0.0204291)
(22.5372 0.00732072 0.00195721)
(22.5804 0.00816634 -0.0163043)
(22.695 -0.0624853 0.0373477)
(22.7453 -0.066061 0.0287365)
(22.7953 -0.0585233 0.0243437)
(22.5495 0.0381214 -1.16419)
(12.3886 7.04849 -5.20822)
(6.88282 -0.391514 -0.409125)
(6.72614 -0.302976 -0.884198)
(8.93611 -0.38083 -0.951632)
(4.47104 -0.65541 0.477706)
(11.334 -0.292113 0.527239)
(6.36327 0.0395859 -0.834538)
(9.66331 -0.204928 -0.886068)
(22.7085 -0.0623698 0.0527687)
(22.7509 -0.0642614 0.0504807)
(22.7892 -0.0547281 0.0488008)
(22.4703 -0.0258891 0.0636016)
(22.6609 0.0229571 0.0941138)
(22.6876 0.0273197 0.0999713)
(22.6678 0.0272109 0.0864227)
(22.7007 0.0397909 0.0884817)
(22.7373 0.043416 0.0810645)
(22.6408 0.02639 0.033156)
(22.6806 0.0337381 0.0414519)
(22.7356 0.0280869 0.049187)
(22.656 0.0298802 0.0216364)
(22.6992 0.0352079 0.0167723)
(22.7461 0.0262596 0.0200398)
(22.5351 0.0072256 0.00280011)
(22.5779 0.00818643 -0.015706)
(22.6929 -0.0620073 0.0376696)
(22.7428 -0.0661942 0.0291187)
(22.7933 -0.0590505 0.0243562)
(22.6138 -0.0952474 -1.04278)
(12.6603 6.83284 -5.21347)
(6.81768 -0.385204 -0.411772)
(6.60513 -0.299809 -0.885606)
(8.93362 -0.369469 -0.944856)
(11.1885 -0.299315 0.517515)
(6.1933 0.0442568 -0.842212)
(9.4133 -0.182544 -0.883521)
(22.7066 -0.0618763 0.0528065)
(22.7489 -0.0645825 0.0506156)
(22.7876 -0.0552224 0.0488421)
(22.4705 -0.0249393 0.0635808)
(22.6598 0.0225877 0.0935847)
(22.6859 0.0272959 0.0999422)
(22.7205 0.0244049 0.095712)
(22.6664 0.0264602 0.0860631)
(22.6988 0.039461 0.0886084)
(22.7354 0.0434041 0.0815376)
(22.6397 0.0257366 0.0328362)
(22.6789 0.0337081 0.0408542)
(22.733 0.0285888 0.048851)
(22.6545 0.0292932 0.0218591)
(22.6973 0.0353469 0.0166804)
(22.7441 0.0268553 0.0196204)
(22.533 0.00712178 0.00362763)
(22.5755 0.00820087 -0.0150619)
(22.691 -0.0615099 0.0379655)
(22.7404 -0.0663111 0.0294981)
(22.7913 -0.0595809 0.0243768)
(22.6082 -0.164281 -0.986168)
(12.9356 6.5744 -5.21359)
(6.75026 -0.378998 -0.414568)
(6.48129 -0.296331 -0.887173)
(8.92386 -0.358999 -0.938387)
(11.0362 -0.307062 0.50789)
(9.21389 -0.166627 -0.881111)
(22.7049 -0.0613514 0.0528263)
(22.747 -0.0648731 0.0507542)
(22.786 -0.0557243 0.0488934)
(22.4706 -0.024041 0.0635858)
(22.6587 0.0222059 0.0930311)
(22.6842 0.0272522 0.0998815)
(22.7184 0.0246938 0.0960821)
(22.665 0.0256953 0.0856797)
(22.6968 0.0390998 0.0887063)
(22.7333 0.0433763 0.0819978)
(22.6387 0.0250634 0.0325344)
(22.6773 0.0336335 0.040247)
(22.7307 0.0290782 0.0484243)
(22.6529 0.028695 0.0221015)
(22.6952 0.0354471 0.0166483)
(22.742 0.0274601 0.0192442)
(22.531 0.00700753 0.00443795)
(22.5732 0.0082102 -0.0143747)
(22.6893 -0.0609963 0.0382286)
(22.7382 -0.0664148 0.0298664)
(22.7894 -0.0601152 0.0244026)
(22.591 -0.25484 -0.942096)
(13.2034 6.64792 -5.52234)
(6.68068 -0.372584 -0.417574)
(6.35484 -0.292414 -0.888904)
(8.90663 -0.349344 -0.932267)
(10.8746 -0.315469 0.498625)
(9.05071 -0.154208 -0.878568)
(22.7033 -0.0607948 0.0528332)
(22.7451 -0.0651285 0.0508958)
(22.7844 -0.0562335 0.0489479)
(22.4709 -0.0231933 0.0636109)
(22.6576 0.0218102 0.0924536)
(22.6824 0.0271888 0.0997916)
(22.7163 0.0249749 0.0964372)
(22.6636 0.0249176 0.0852732)
(22.6949 0.038707 0.0887753)
(22.7313 0.0433319 0.0824447)
(22.6376 0.0243813 0.0322596)
(22.6755 0.033528 0.0396987)
(22.7284 0.0295586 0.0479845)
(22.6513 0.0280858 0.0223612)
(22.6931 0.0355068 0.0166704)
(22.7397 0.0280676 0.018909)
(22.5289 0.0068818 0.00523016)
(22.5708 0.00821495 -0.0136489)
(22.6878 -0.060468 0.0384622)
(22.7361 -0.0665105 0.0302125)
(22.7875 -0.0606531 0.0244312)
(22.5971 -0.421662 -0.908012)
(13.4041 6.7323 -5.85467)
(7.36399 0.247071 0.118517)
(6.60926 -0.365995 -0.420771)
(6.22521 -0.288283 -0.890737)
(8.88188 -0.340537 -0.926512)
(10.7073 -0.323936 0.490099)
(8.88911 -0.141328 -0.875999)
(22.7016 -0.060209 0.0528336)
(22.7431 -0.0653442 0.0510415)
(22.7827 -0.0567487 0.0490025)
(22.4711 -0.0223946 0.0636507)
(22.6566 0.021399 0.0918534)
(22.6808 0.0271053 0.0996739)
(22.7142 0.0252481 0.0967778)
(22.6622 0.0241283 0.0848445)
(22.693 0.0382824 0.0888162)
(22.7293 0.0432713 0.0828781)
(22.6364 0.0236925 0.032014)
(22.6736 0.0333933 0.0392056)
(22.7259 0.0300278 0.0475914)
(22.6496 0.0274658 0.0226354)
(22.6909 0.0355249 0.0167417)
(22.7374 0.0286707 0.0186115)
(22.5268 0.0067437 0.00600427)
(22.5685 0.00821531 -0.0128882)
(22.6862 -0.0599151 0.0387087)
(22.734 -0.0665547 0.0305798)
(22.7855 -0.0611622 0.024489)
(22.5551 -0.524177 -0.903513)
(13.6433 6.71609 -6.10429)
(7.14344 0.266 0.115748)
(6.53532 -0.359641 -0.424111)
(6.09216 -0.283851 -0.892639)
(8.85207 -0.332407 -0.921054)
(10.5312 -0.333834 0.481928)
(8.75003 -0.128714 -0.872677)
(22.6999 -0.0595971 0.0528261)
(22.7411 -0.0655182 0.0511894)
(22.781 -0.0572664 0.0490581)
(22.4715 -0.0216431 0.0637013)
(22.6555 0.0209714 0.0912327)
(22.6791 0.0270018 0.099529)
(22.7121 0.025512 0.0971033)
(22.6609 0.0233284 0.0843943)
(22.6911 0.0378261 0.0888297)
(22.7272 0.0431975 0.0832985)
(22.6352 0.0229958 0.0317955)
(22.6715 0.0332285 0.0387589)
(22.7233 0.030481 0.0472381)
(22.648 0.0268365 0.022922)
(22.6887 0.0355007 0.016857)
(22.735 0.0292638 0.0183482)
(22.5247 0.00659254 0.00676067)
(22.5662 0.00821132 -0.0120971)
(22.7317 -0.0665488 0.0309672)
(22.7834 -0.0616443 0.0245736)
(22.4955 -0.628448 -0.920138)
(13.9482 6.55024 -6.22437)
(6.91283 0.285419 0.113519)
(6.45901 -0.353278 -0.427652)
(5.95565 -0.279007 -0.894645)
(8.81709 -0.324996 -0.915936)
(10.3494 -0.344464 0.474168)
(13.958 -0.0549416 0.761975)
(8.63026 -0.117429 -0.869067)
(22.6981 -0.0589621 0.0528097)
(22.739 -0.0656493 0.0513378)
(22.7792 -0.0577843 0.0491159)
(22.4719 -0.0209365 0.063756)
(22.6775 0.0268788 0.0993566)
(22.71 0.0257654 0.097413)
(22.6596 0.0225189 0.0839237)
(22.6892 0.0373426 0.0888177)
(22.7251 0.0431124 0.0837065)
(22.634 0.0222922 0.0316051)
(22.6694 0.0330294 0.0383444)
(22.7205 0.0309174 0.0469289)
(22.6462 0.0261975 0.0232196)
(22.6864 0.0354338 0.0170116)
(22.7326 0.0298426 0.0181149)
(22.5227 0.00642712 0.00749815)
(22.564 0.0082025 -0.0112791)
(22.7293 -0.0664979 0.031369)
(22.7811 -0.0621011 0.0246824)
(22.4507 -0.834532 -0.991584)
(14.2692 6.31882 -6.26448)
(6.67489 0.305632 0.111334)
(6.38007 -0.3469 -0.431419)
(5.81682 -0.273582 -0.896743)
(8.77701 -0.318273 -0.911162)
(10.1583 -0.355391 0.467219)
(13.8548 -0.0650643 0.752748)
(8.51503 -0.10672 -0.865591)
(22.6964 -0.0583065 0.0527828)
(22.7369 -0.0657364 0.051485)
(22.7774 -0.0583013 0.0491768)
(22.4723 -0.0202739 0.0638099)
(22.6759 0.0267364 0.0991568)
(22.7079 0.0260081 0.0977074)
(22.6583 0.0217001 0.0834337)
(22.6873 0.036833 0.0887812)
(22.7231 0.0430151 0.0841018)
(22.6326 0.0215835 0.0314449)
(22.6672 0.0327945 0.0379511)
(22.7177 0.0313309 0.0466462)
(22.6445 0.025549 0.0235258)
(22.6841 0.0353245 0.0172011)
(22.7301 0.030404 0.0179082)
(22.5206 0.00624694 0.00821673)
(22.5618 0.00818842 -0.0104372)
(22.7268 -0.0664067 0.0317816)
(22.7788 -0.0625341 0.0248135)
(22.3528 -0.935612 -1.03949)
(14.6402 6.04285 -6.22211)
(6.42864 0.326508 0.109512)
(6.29872 -0.340488 -0.435416)
(5.6756 -0.26754 -0.898922)
(8.73172 -0.312234 -0.906748)
(9.95962 -0.367498 0.460754)
(13.7453 -0.0763526 0.742788)
(8.39871 -0.0956977 -0.862318)
(22.6947 -0.0576314 0.0527441)
(22.7348 -0.065779 0.0516293)
(22.7755 -0.0588148 0.0492417)
(22.4728 -0.0196543 0.0638578)
(22.6743 0.026575 0.0989296)
(22.7059 0.0262385 0.097987)
(22.657 0.0208745 0.0829264)
(22.6854 0.0362975 0.0887201)
(22.721 0.0429051 0.0844838)
(22.6313 0.0208663 0.0313107)
(22.665 0.0325239 0.0375714)
(22.7148 0.0317182 0.0463771)
(22.6428 0.0248919 0.0238389)
(22.6818 0.0351736 0.0174216)
(22.7276 0.0309452 0.0177253)
(22.5185 0.006052 0.00891741)
(22.5596 0.00816862 -0.00957479)
(22.7243 -0.0662797 0.0322013)
(22.7764 -0.0629448 0.0249657)
(22.2308 -1.05128 -1.10427)
(15.0413 5.77711 -6.14739)
(6.17334 0.34687 0.108919)
(6.21481 -0.334021 -0.439648)
(7.91827 -0.456152 -0.410773)
(5.53176 -0.26107 -0.90109)
(8.67971 -0.306959 -0.902796)
(9.75275 -0.380496 0.454742)
(13.6331 -0.0884434 0.732328)
(8.27886 -0.084911 -0.859521)
(12.4115 -0.461054 -0.957284)
(22.6929 -0.0569408 0.0526916)
(22.7326 -0.0657773 0.0517696)
(22.7736 -0.0593217 0.0493117)
(22.4733 -0.0190775 0.0638942)
(22.6728 0.0263947 0.0986754)
(22.7039 0.0264548 0.0982518)
(22.6557 0.0200454 0.0824035)
(22.6836 0.035736 0.0886346)
(22.7189 0.0427856 0.0848535)
(22.6299 0.0201384 0.0311985)
(22.6628 0.0322185 0.0371993)
(22.7118 0.0320782 0.0461016)
(22.641 0.0242255 0.0241574)
(22.6795 0.0349821 0.0176692)
(22.7251 0.0314639 0.0175642)
(22.5164 0.00584213 0.00960077)
(22.5574 0.00814261 -0.00869576)
(22.7217 -0.0661208 0.0326252)
(22.774 -0.063334 0.0251375)
(22.09 -1.14358 -1.16082)
(15.4567 5.52568 -6.05074)
(5.9284 0.363954 0.111323)
(6.12773 -0.327233 -0.444154)
(7.88618 -0.447488 -0.412158)
(5.40933 -0.253493 -0.902414)
(8.62078 -0.302396 -0.899321)
(9.5403 -0.392996 0.449372)
(13.5141 -0.101737 0.721408)
(8.15741 -0.0745104 -0.857079)
(12.38 -0.463448 -0.954069)
(22.6912 -0.0562381 0.0526238)
(22.7304 -0.0657312 0.0519046)
(22.7717 -0.0598203 0.0493873)
(22.4738 -0.0185417 0.0639167)
(22.6713 0.0261953 0.0983953)
(22.7019 0.0266552 0.0985026)
(22.6545 0.0192154 0.0818666)
(22.6818 0.0351487 0.0885251)
(22.7169 0.0426581 0.0852109)
(22.6285 0.019397 0.031107)
(22.6606 0.0318825 0.0368331)
(22.7089 0.032408 0.0458176)
(22.6392 0.0235502 0.0244798)
(22.6772 0.0347526 0.017938)
(22.7226 0.0319619 0.0174184)
(22.5143 0.00561777 0.0102681)
(22.5552 0.00810969 -0.00780422)
(22.7192 -0.0659332 0.0330503)
(22.7714 -0.0637028 0.0253282)
(21.9498 -1.16227 -1.1602)
(15.9157 5.2795 -5.90789)
(5.71099 0.373346 0.118927)
(6.03793 -0.320506 -0.4488)
(7.85337 -0.438781 -0.413653)
(5.29133 -0.24529 -0.903835)
(8.55483 -0.298505 -0.896336)
(9.31733 -0.406525 0.444122)
(13.3907 -0.115725 0.710275)
(8.03422 -0.0647133 -0.855011)
(12.3073 -0.464709 -0.953096)